 Gaussian 16, Revision B.01,
 Gaussian 16:  ES64L-G16RevB.01 20-Dec-2017

 -----------------------------
 #p b3lyp/6-31g(d) opt SCF=XQC
 -----------------------------

 ------------------------------
 Gaussian input prepared by ASE
 ------------------------------
 Symbolic Z-matrix:
 Charge =  0 Multiplicity = 1

 SCF Done:  E(RB3LYP) =  -1318.29399327     A.U. after   15 cycles
 SCF Done:  E(RB3LYP) =  -1318.30262984     A.U. after   13 cycles
 SCF Done:  E(RB3LYP) =  -1318.30396656     A.U. after   12 cycles
 SCF Done:  E(RB3LYP) =  -1318.30448860     A.U. after   14 cycles
 SCF Done:  E(RB3LYP) =  -1318.30504278     A.U. after   14 cycles
 SCF Done:  E(RB3LYP) =  -1318.30528158     A.U. after   14 cycles
 SCF Done:  E(RB3LYP) =  -1318.30534239     A.U. after   12 cycles
 SCF Done:  E(RB3LYP) =  -1318.30539087     A.U. after   11 cycles
 SCF Done:  E(RB3LYP) =  -1318.30539926     A.U. after   10 cycles
 SCF Done:  E(RB3LYP) =  -1318.30539973     A.U. after   10 cycles
 SCF Done:  E(RB3LYP) =  -1318.30540071     A.U. after    8 cycles
 SCF Done:  E(RB3LYP) =  -1318.30540103     A.U. after    8 cycles
 SCF Done:  E(RB3LYP) =  -1318.30540110     A.U. after    7 cycles
 Optimization completed.
    -- Stationary point found.

                         Standard orientation:
 ---------------------------------------------------------------------
 Center     Atomic      Atomic             Coordinates (Angstroms)
 Number     Number       Type             X           Y           Z
 ---------------------------------------------------------------------
      1          8           0        2.205852   -2.308069   -0.736053
      2         16           0        1.514072   -1.050779   -1.064748
      3          8           0        1.266117   -0.665766   -2.466838
      4          6           0       -0.097760   -1.114755   -0.236299
      5          6           0       -1.165036   -0.793673   -0.975086
      6          6           0       -2.593301   -0.957231   -0.494852
      7          6           0       -3.251711    0.379728   -0.302615
      8          6           0       -4.374324    0.944406   -0.834364
      9          6           0       -4.499170    2.248837   -0.251091
     10          6           0       -3.441488    2.386523    0.591599
     11          8           0       -2.667515    1.260870    0.573321
     12          6           0       -2.654326   -1.884062    0.746433
     13          6           0       -1.560085   -1.543270    1.762127
     14          6           0       -0.150519   -1.689251    1.168458
     15          8           0        0.831372   -1.117099    2.031132
     16          6           0        2.440858    0.309328   -0.325527
     17          6           0        2.278287    1.595540   -0.844843
     18          6           0        3.021105    2.643545   -0.300457
     19          6           0        3.919411    2.396980    0.740627
     20          6           0        4.081545    1.102263    1.240694
     21          6           0        3.340024    0.046688    0.709571
     22          1           0       -1.015827   -0.416861   -1.984024
     23          1           0       -3.156158   -1.434087   -1.308571
     24          1           0       -5.036124    0.485895   -1.556442
     25          1           0       -5.271876    2.980906   -0.440226
     26          1           0       -3.102219    3.176505    1.244121
     27          1           0       -3.645060   -1.818002    1.208575
     28          1           0       -2.527754   -2.920227    0.405389
     29          1           0       -1.633896   -2.180064    2.650289
     30          1           0       -1.687496   -0.506100    2.097360
     31          1           0        0.131179   -2.746587    1.112685
     32          1           0        0.631193   -0.170014    2.114906
     33          1           0        1.598090    1.761568   -1.673470
     34          1           0        2.906178    3.648598   -0.696545
     35          1           0        4.500290    3.214823    1.158571
     36          1           0        4.789139    0.912138    2.042772
     37          1           0        3.447514   -0.965091    1.081840
 ---------------------------------------------------------------------

 The electronic state is 1-A.
 Alpha  occ. eigenvalues --  -89.08466 -19.22292 -19.15545 -19.12950 -19.12886
 Alpha  occ. eigenvalues --  -10.25310 -10.24931 -10.24359 -10.22490 -10.22165
 Alpha  occ. eigenvalues --  -10.22126 -10.21811 -10.20915 -10.20709 -10.20594
 Alpha  occ. eigenvalues --  -10.20474 -10.20350 -10.20124 -10.19543 -10.19444
 Alpha  occ. eigenvalues --  -10.19342  -8.11313  -6.07745  -6.07690  -6.07636
 Alpha  occ. eigenvalues --   -1.11503  -1.08616  -1.02936  -0.98385  -0.86989
 Alpha  occ. eigenvalues --   -0.85963  -0.80638  -0.78889  -0.77392  -0.76593
 Alpha  occ. eigenvalues --   -0.75950  -0.72542  -0.67616  -0.64690  -0.62530
 Alpha  occ. eigenvalues --   -0.61877  -0.60800  -0.59424  -0.56317  -0.55328
 Alpha  occ. eigenvalues --   -0.54413  -0.52746  -0.50563  -0.48829  -0.47523
 Alpha  occ. eigenvalues --   -0.46880  -0.46322  -0.45336  -0.45222  -0.45081
 Alpha  occ. eigenvalues --   -0.44801  -0.43532  -0.43156  -0.42309  -0.42051
 Alpha  occ. eigenvalues --   -0.41033  -0.40456  -0.39066  -0.38140  -0.37586
 Alpha  occ. eigenvalues --   -0.37121  -0.35856  -0.35322  -0.34928  -0.32929
 Alpha  occ. eigenvalues --   -0.31748  -0.30539  -0.29789  -0.29077  -0.28570
 Alpha  occ. eigenvalues --   -0.28501  -0.26825  -0.26143  -0.25974  -0.23018
 Alpha virt. eigenvalues --   -0.04187  -0.01515  -0.01284   0.00808   0.05812
 Alpha virt. eigenvalues --    0.06850   0.07556   0.08297   0.09709   0.10050
 Alpha virt. eigenvalues --    0.10670   0.11689   0.12075   0.12676   0.13817

 Mulliken charges:
               1
     1  O   -0.550090
     2  S    1.149192
     3  O   -0.559812
     4  C   -0.180739
     5  C   -0.105879
     6  C   -0.227696
     7  C    0.355131
     8  C   -0.206053
     9  C   -0.179503
    10  C    0.081540
    11  O   -0.445261
    12  C   -0.281498
    13  C   -0.298739
    14  C    0.109332
    15  O   -0.621045
    16  C   -0.162224
    17  C   -0.139608
    18  C   -0.131405
    19  C   -0.120246
    20  C   -0.136649
    21  C   -0.121254
    22  H    0.194712
    23  H    0.163532
    24  H    0.142625
    25  H    0.145680
    26  H    0.156144
    27  H    0.151158
    28  H    0.151179
    29  H    0.154839
    30  H    0.150606
    31  H    0.180466
    32  H    0.390396
    33  H    0.173949
    34  H    0.141783
    35  H    0.140818
    36  H    0.144317
    37  H    0.190299
 Sum of Mulliken charges =  -0.00000

 Dipole moment (field-independent basis, Debye):
    X=             -3.7127    Y=              3.9127    Z=              2.7658  Tot=              6.0616
 Quadrupole moment (field-independent basis, Debye-Ang):
   XX=           -116.7710   YY=           -122.0799   ZZ=           -133.6797
   XY=             12.0588   XZ=             10.2613   YZ=             -1.1217

 Normal termination of Gaussian 16 at Fri Nov  4 19:28:43 2022.
