 Gaussian 16, Revision B.01,
 Gaussian 16:  ES64L-G16RevB.01 20-Dec-2017

 -------------------------------------------------------------------
 #p b3lyp/6-31g(d) 6D 10F nosymm GFInput td=(50-50,nstate=2) SCF=XQC
 -------------------------------------------------------------------

 ------------------------------
 Gaussian input prepared by ASE
 ------------------------------
 Symbolic Z-matrix:
 Charge =  0 Multiplicity = 1

                          Input orientation:
 ---------------------------------------------------------------------
 Center     Atomic      Atomic             Coordinates (Angstroms)
 Number     Number       Type             X           Y           Z
 ---------------------------------------------------------------------
      1          8           0       -2.239007   -0.181682    2.843178
      2         16           0       -1.618919    0.659665    1.806353
      3          8           0       -1.304439    2.076851    2.067621
      4          6           0       -0.066860   -0.153650    1.339393
      5          6           0        1.022325    0.619954    1.282884
      6          6           0        2.422625    0.077388    1.077708
      7          6           0        2.968275    0.491115   -0.259832
      8          6           0        4.080852    1.188537   -0.630848
      9          6           0        4.071278    1.253973   -2.063664
     10          6           0        2.951479    0.594632   -2.462527
     11          8           0        2.263747    0.124478   -1.379733
     12          6           0        2.465629   -1.449846    1.340835
     13          6           0        1.283018   -2.170704    0.687434
     14          6           0       -0.068625   -1.667305    1.216847
     15          8           0       -1.145701   -2.150400    0.415473
     16          6           0       -2.689575    0.640959    0.354247
     17          6           0       -2.585186    1.680343   -0.572708
     18          6           0       -3.437002    1.689220   -1.677596
     19          6           0       -4.384016    0.674909   -1.838654
     20          6           0       -4.486047   -0.351163   -0.895567
     21          6           0       -3.635878   -0.375250    0.210244
     22          1           0        0.915408    1.694086    1.413327
     23          1           0        3.072526    0.571730    1.812276
     24          1           0        4.821643    1.606641    0.037004
     25          1           0        4.800263    1.731373   -2.703540
     26          1           0        2.512462    0.379120   -3.424701
     27          1           0        3.415230   -1.860188    0.981154
     28          1           0        2.437638   -1.610088    2.426887
     29          1           0        1.341886   -3.252412    0.849389
     30          1           0        1.312168   -2.004849   -0.396992
     31          1           0       -0.268883   -2.087109    2.208858
     32          1           0       -1.020516   -1.803050   -0.483269
     33          1           0       -1.863870    2.474998   -0.414336
     34          1           0       -3.368140    2.493086   -2.405115
     35          1           0       -5.049480    0.688010   -2.697694
     36          1           0       -5.231078   -1.132250   -1.018028
     37          1           0       -3.695232   -1.161123    0.953692
 ---------------------------------------------------------------------

 SCF Done:  E(RB3LYP) =  -1318.30540664     A.U. after   15 cycles

 Excitation energies and oscillator strengths:

 Excited state symmetry could not be determined.
 Excited State   1:      Triplet-?Sym    3.6543 eV  339.28 nm  f=0.0000  <S**2>=2.000
      73 -> 82         0.10968
      77 -> 82        -0.14775
      77 -> 83         0.15190
      78 -> 81         0.39284
      78 -> 82        -0.10074
      79 -> 83        -0.24842
      80 -> 81         0.25764
      80 -> 82         0.15136
      80 -> 84        -0.29576
 This state for optimization and/or second-order correction.
 Total Energy, E(TD-HF/TD-DFT) =  -1318.17111389
 Copying the excited state density for this state as the 1-particle RhoCI density.

 Excited state symmetry could not be determined.
 Excited State   2:      Triplet-?Sym    3.6996 eV  335.12 nm  f=0.0000  <S**2>=2.000
      77 -> 83         0.13279
      78 -> 81         0.27760
      78 -> 82        -0.11022
      79 -> 83        -0.20305
      80 -> 81        -0.16976
      80 -> 82        -0.22368
      80 -> 84         0.47552

 Excited state symmetry could not be determined.
 Excited State   3:      Singlet-?Sym    4.5503 eV  272.47 nm  f=0.0690  <S**2>=0.000
      80 -> 81         0.69170
      80 -> 82         0.12065

 Excited state symmetry could not be determined.
 Excited State   4:      Singlet-?Sym    5.1179 eV  242.26 nm  f=0.0002  <S**2>=0.000
      77 -> 81         0.15779
      78 -> 83         0.17411
      79 -> 81         0.63044

 Alpha  occ. eigenvalues --  -89.08466 -19.22292 -19.15545 -19.12950 -19.12886
 Alpha  occ. eigenvalues --  -10.25310 -10.24931 -10.24359 -10.22490 -10.22165
 Alpha  occ. eigenvalues --  -10.22126 -10.21811 -10.20915 -10.20709 -10.20594
 Alpha  occ. eigenvalues --  -10.20474 -10.20350 -10.20124 -10.19543 -10.19444
 Alpha  occ. eigenvalues --  -10.19342  -8.11313  -6.07745  -6.07690  -6.07636
 Alpha  occ. eigenvalues --   -1.11503  -1.08616  -1.02937  -0.98385  -0.86989
 Alpha  occ. eigenvalues --   -0.85963  -0.80638  -0.78889  -0.77392  -0.76593
 Alpha  occ. eigenvalues --   -0.75950  -0.72542  -0.67616  -0.64690  -0.62530
 Alpha  occ. eigenvalues --   -0.61877  -0.60800  -0.59424  -0.56317  -0.55328
 Alpha  occ. eigenvalues --   -0.54413  -0.52746  -0.50563  -0.48829  -0.47523
 Alpha  occ. eigenvalues --   -0.46880  -0.46322  -0.45336  -0.45222  -0.45081
 Alpha  occ. eigenvalues --   -0.44801  -0.43532  -0.43156  -0.42309  -0.42051
 Alpha  occ. eigenvalues --   -0.41033  -0.40456  -0.39066  -0.38140  -0.37586
 Alpha  occ. eigenvalues --   -0.37121  -0.35856  -0.35322  -0.34928  -0.32929
 Alpha  occ. eigenvalues --   -0.31747  -0.30539  -0.29789  -0.29077  -0.28570
 Alpha  occ. eigenvalues --   -0.28501  -0.26825  -0.26143  -0.25974  -0.23018
 Alpha virt. eigenvalues --   -0.04187  -0.01514  -0.01284   0.00808   0.05812
 Alpha virt. eigenvalues --    0.06850   0.07556   0.08297   0.09709   0.10050
 Alpha virt. eigenvalues --    0.10670   0.11689   0.12075   0.12676   0.13818

 Mulliken charges:
               1
     1  O   -0.550104
     2  S    1.149139
     3  O   -0.559787
     4  C   -0.180739
     5  C   -0.105830
     6  C   -0.227701
     7  C    0.355134
     8  C   -0.206056
     9  C   -0.179499
    10  C    0.081538
    11  O   -0.445267
    12  C   -0.281513
    13  C   -0.298733
    14  C    0.109331
    15  O   -0.621048
    16  C   -0.162236
    17  C   -0.139598
    18  C   -0.131397
    19  C   -0.120251
    20  C   -0.136655
    21  C   -0.121249
    22  H    0.194715
    23  H    0.163531
    24  H    0.142624
    25  H    0.145680
    26  H    0.156145
    27  H    0.151161
    28  H    0.151182
    29  H    0.154839
    30  H    0.150607
    31  H    0.180467
    32  H    0.390398
    33  H    0.173954
    34  H    0.141782
    35  H    0.140819
    36  H    0.144318
    37  H    0.190299
 Sum of Mulliken charges =  -0.00000

 Dipole moment (field-independent basis, Debye):
    X=              3.2239    Y=             -0.8045    Z=             -5.0698  Tot=              6.0617
 Quadrupole moment (field-independent basis, Debye-Ang):
   XX=           -115.4465   YY=           -130.8347   ZZ=           -130.7093
   XY=              3.4170   XZ=             16.2622   YZ=             -6.9836

 Normal termination of Gaussian 16 at Sat Nov  5 11:56:30 2022.
