 Gaussian 16, Revision B.01,
 Gaussian 16:  ES64L-G16RevB.01 20-Dec-2017

 -------------------------------------------------------------------
 #p b3lyp/6-31g(d) 6D 10F nosymm GFInput td=(50-50,nstate=2) SCF=XQC
 -------------------------------------------------------------------

 ------------------------------
 Gaussian input prepared by ASE
 ------------------------------
 Symbolic Z-matrix:
 Charge =  0 Multiplicity = 1

                          Input orientation:
 ---------------------------------------------------------------------
 Center     Atomic      Atomic             Coordinates (Angstroms)
 Number     Number       Type             X           Y           Z
 ---------------------------------------------------------------------
      1          6           0        5.839040    4.257511    0.853101
      2          6           0        6.087621    3.011535   -0.016567
      3          6           0        4.914543    2.055046   -0.026489
      4          6           0        4.813133    1.018184    0.909203
      5          6           0        3.710695    0.168783    0.930157
      6          6           0        2.672271    0.327441    0.001002
      7          7           0        1.617134   -0.611684    0.042189
      8          6           0        0.337327   -0.571205   -0.427247
      9          6           0       -0.486568   -1.647655   -0.609120
     10          6           0       -0.148601   -3.073585   -0.472536
     11          6           0        0.935003   -3.627316   -1.169171
     12          6           0        1.257049   -4.981624   -1.065574
     13          6           0        0.477826   -5.805905   -0.257328
     14          6           0       -0.603456   -5.284033    0.456960
     15          6           0       -0.912040   -3.922404    0.366343
     16          8           0       -1.905214   -3.318245    1.071342
     17          6           0       -2.820393   -4.127644    1.793022
     18          6           0       -1.816248   -1.141206   -1.017056
     19          8           0       -2.814474   -1.752008   -1.344711
     20          7           0       -1.732877    0.273806   -1.013620
     21          6           0       -2.841727    1.160459   -1.329615
     22          6           0       -3.655785    1.555752   -0.091121
     23          6           0       -4.815019    2.480130   -0.443149
     24          8           0       -5.515957    2.788741    0.746437
     25          6           0       -6.612457    3.648111    0.526491
     26          6           0       -0.471895    0.698044   -0.645991
     27          8           0       -0.121790    1.856376   -0.514139
     28          6           0        2.769451    1.344874   -0.956768
     29          6           0        3.871629    2.195083   -0.952111
     30          1           0        4.967923    4.817796    0.495578
     31          1           0        5.646953    3.976757    1.894780
     32          1           0        6.706577    4.927513    0.834924
     33          1           0        6.310269    3.329340   -1.043316
     34          1           0        6.982634    2.491234    0.347950
     35          1           0        5.607166    0.872379    1.638366
     36          1           0        3.647779   -0.621990    1.674635
     37          1           0        1.886081   -1.527424    0.385569
     38          1           0        1.511970   -2.982776   -1.827460
     39          1           0        2.094903   -5.387310   -1.624687
     40          1           0        0.706294   -6.865090   -0.173770
     41          1           0       -1.191624   -5.939056    1.089339
     42          1           0       -2.327378   -4.659064    2.618099
     43          1           0       -3.564814   -3.442006    2.200841
     44          1           0       -3.315282   -4.853602    1.135961
     45          1           0       -2.421767    2.047546   -1.814374
     46          1           0       -3.470819    0.631259   -2.051701
     47          1           0       -3.003870    2.058461    0.631991
     48          1           0       -4.051350    0.653574    0.388924
     49          1           0       -4.441404    3.405085   -0.918425
     50          1           0       -5.490151    1.993909   -1.170357
     51          1           0       -7.084002    3.825249    1.496865
     52          1           0       -6.296217    4.615051    0.101588
     53          1           0       -7.354497    3.199401   -0.154414
     54          1           0        1.989198    1.477539   -1.694459
     55          1           0        3.927207    2.980864   -1.702440
 ---------------------------------------------------------------------

 SCF Done:  E(RB3LYP) =  -1302.50917157     A.U. after   16 cycles

 Excitation energies and oscillator strengths:

 Excited state symmetry could not be determined.
 Excited State   1:      Triplet-?Sym    1.9052 eV  650.76 nm  f=0.0000  <S**2>=2.000
      98 ->106         0.11813
     105 ->106         0.68496
 This state for optimization and/or second-order correction.
 Total Energy, E(TD-HF/TD-DFT) =  -1302.43915593
 Copying the excited state density for this state as the 1-particle RhoCI density.

 Excited state symmetry could not be determined.
 Excited State   2:      Singlet-?Sym    2.8052 eV  441.98 nm  f=0.2305  <S**2>=0.000
     105 ->106         0.69579

 Excited state symmetry could not be determined.
 Excited State   3:      Triplet-?Sym    3.1912 eV  388.52 nm  f=0.0000  <S**2>=2.000
     102 ->106         0.11121
     103 ->106         0.18946
     104 ->106         0.60657
     104 ->109         0.10230
     105 ->107         0.11747
     105 ->110        -0.11068

 Excited state symmetry could not be determined.
 Excited State   4:      Singlet-?Sym    3.4682 eV  357.49 nm  f=0.0192  <S**2>=0.000
     104 ->106         0.69741

 Alpha  occ. eigenvalues --  -19.17936 -19.14284 -19.13978 -19.12875 -14.38421
 Alpha  occ. eigenvalues --  -14.36958 -10.30658 -10.29308 -10.25355 -10.25319
 Alpha  occ. eigenvalues --  -10.24088 -10.23556 -10.22824 -10.22347 -10.22302
 Alpha  occ. eigenvalues --  -10.20377 -10.19798 -10.19654 -10.19630 -10.19181
 Alpha  occ. eigenvalues --  -10.19134 -10.19002 -10.18841 -10.18799 -10.18703
 Alpha  occ. eigenvalues --  -10.18701 -10.18627 -10.18000 -10.17532  -1.06753
 Alpha  occ. eigenvalues --   -1.06076  -1.03730  -1.02705  -0.96770  -0.94709
 Alpha  occ. eigenvalues --   -0.86137  -0.85194  -0.82081  -0.78458  -0.77600
 Alpha  occ. eigenvalues --   -0.75558  -0.74948  -0.74499  -0.72239  -0.70428
 Alpha  occ. eigenvalues --   -0.69247  -0.66731  -0.65330  -0.63071  -0.62312
 Alpha  occ. eigenvalues --   -0.61360  -0.60045  -0.59564  -0.58560  -0.57771
 Alpha  occ. eigenvalues --   -0.55419  -0.53821  -0.52323  -0.50922  -0.48941
 Alpha  occ. eigenvalues --   -0.48718  -0.48129  -0.48008  -0.47384  -0.46979
 Alpha  occ. eigenvalues --   -0.46766  -0.46107  -0.45577  -0.45037  -0.44405
 Alpha  occ. eigenvalues --   -0.43821  -0.43696  -0.42869  -0.42450  -0.41991
 Alpha  occ. eigenvalues --   -0.41677  -0.41551  -0.41341  -0.40572  -0.39530
 Alpha  occ. eigenvalues --   -0.38804  -0.38282  -0.37851  -0.37602  -0.37367
 Alpha  occ. eigenvalues --   -0.36910  -0.35976  -0.35787  -0.35127  -0.33789
 Alpha  occ. eigenvalues --   -0.33559  -0.33492  -0.33051  -0.33001  -0.31977
 Alpha  occ. eigenvalues --   -0.31336  -0.28500  -0.27341  -0.26240  -0.25443
 Alpha  occ. eigenvalues --   -0.25072  -0.24833  -0.24661  -0.22352  -0.19436
 Alpha virt. eigenvalues --   -0.07192  -0.00863  -0.00075   0.00518   0.01221
 Alpha virt. eigenvalues --    0.07319   0.08551   0.08750   0.09445   0.09549
 Alpha virt. eigenvalues --    0.10082   0.10737   0.10870   0.12076   0.13043

 Mulliken charges:
               1
     1  C   -0.432666
     2  C   -0.341609
     3  C    0.182086
     4  C   -0.189188
     5  C   -0.188363
     6  C    0.349240
     7  N   -0.807242
     8  C    0.246991
     9  C   -0.040876
    10  C    0.019548
    11  C   -0.187221
    12  C   -0.138626
    13  C   -0.129854
    14  C   -0.199936
    15  C    0.366098
    16  O   -0.504828
    17  C   -0.215924
    18  C    0.596890
    19  O   -0.498228
    20  N   -0.535959
    21  C   -0.150726
    22  C   -0.280983
    23  C   -0.007977
    24  O   -0.461511
    25  C   -0.191086
    26  C    0.625393
    27  O   -0.496141
    28  C   -0.117164
    29  C   -0.203614
    30  H    0.152413
    31  H    0.149167
    32  H    0.142384
    33  H    0.142790
    34  H    0.140926
    35  H    0.124674
    36  H    0.127557
    37  H    0.338570
    38  H    0.139280
    39  H    0.130057
    40  H    0.132816
    41  H    0.135981
    42  H    0.148115
    43  H    0.175859
    44  H    0.160038
    45  H    0.166232
    46  H    0.173252
    47  H    0.166757
    48  H    0.164289
    49  H    0.118142
    50  H    0.118489
    51  H    0.157650
    52  H    0.129012
    53  H    0.128696
    54  H    0.143182
    55  H    0.127149
 Sum of Mulliken charges =  -0.00000

 Dipole moment (field-independent basis, Debye):
    X=              1.3451    Y=             -1.5478    Z=              0.6491  Tot=              2.1509
 Quadrupole moment (field-independent basis, Debye-Ang):
   XX=           -152.6037   YY=           -152.7715   ZZ=           -166.2287
   XY=             -5.0757   XZ=             -1.2024   YZ=            -13.4484

 Normal termination of Gaussian 16 at Sat Nov  5 11:52:29 2022.
