 Gaussian 16, Revision B.01,
 Gaussian 16:  ES64L-G16RevB.01 20-Dec-2017

 -----------------------------
 #p b3lyp/6-31g(d) opt SCF=XQC
 -----------------------------

 ------------------------------
 Gaussian input prepared by ASE
 ------------------------------
 Symbolic Z-matrix:
 Charge =  0 Multiplicity = 1

 SCF Done:  E(RB3LYP) =  -1302.50312067     A.U. after   16 cycles
 SCF Done:  E(RB3LYP) =  -1302.50822273     A.U. after   13 cycles
 SCF Done:  E(RB3LYP) =  -1302.50853512     A.U. after   12 cycles
 SCF Done:  E(RB3LYP) =  -1302.50903155     A.U. after   12 cycles
 SCF Done:  E(RB3LYP) =  -1302.50911152     A.U. after   11 cycles
 SCF Done:  E(RB3LYP) =  -1302.50914423     A.U. after   10 cycles
 SCF Done:  E(RB3LYP) =  -1302.50916201     A.U. after    9 cycles
 SCF Done:  E(RB3LYP) =  -1302.50916559     A.U. after    9 cycles
 SCF Done:  E(RB3LYP) =  -1302.50916744     A.U. after    8 cycles
 SCF Done:  E(RB3LYP) =  -1302.50916955     A.U. after    9 cycles
 SCF Done:  E(RB3LYP) =  -1302.50917196     A.U. after   10 cycles
 SCF Done:  E(RB3LYP) =  -1302.50917327     A.U. after    9 cycles
 SCF Done:  E(RB3LYP) =  -1302.50917402     A.U. after    9 cycles
 SCF Done:  E(RB3LYP) =  -1302.50917462     A.U. after    9 cycles
 SCF Done:  E(RB3LYP) =  -1302.50917509     A.U. after    9 cycles
 SCF Done:  E(RB3LYP) =  -1302.50917532     A.U. after    8 cycles
 SCF Done:  E(RB3LYP) =  -1302.50917540     A.U. after    8 cycles
 Optimization completed.
    -- Stationary point found.

                         Standard orientation:
 ---------------------------------------------------------------------
 Center     Atomic      Atomic             Coordinates (Angstroms)
 Number     Number       Type             X           Y           Z
 ---------------------------------------------------------------------
      1          6           0       -6.850915   -2.878745    0.952525
      2          6           0       -6.770194   -1.614968    0.076785
      3          6           0       -5.392827   -0.987339    0.071739
      4          6           0       -5.037246   -0.005284    1.004487
      5          6           0       -3.755554    0.536836    1.030196
      6          6           0       -2.785880    0.115203    0.108901
      7          7           0       -1.527300    0.756214    0.154197
      8          6           0       -0.296873    0.390046   -0.306114
      9          6           0        0.774177    1.221387   -0.485972
     10          6           0        0.808155    2.687095   -0.356748
     11          6           0       -0.095431    3.493945   -1.062891
     12          6           0       -0.064026    4.886167   -0.966292
     13          6           0        0.894018    5.490025   -0.155493
     14          6           0        1.803334    4.714671    0.568177
     15          6           0        1.756975    3.318851    0.484487
     16          8           0        2.560250    2.486200    1.198538
     17          6           0        3.646535    3.040736    1.923779
     18          6           0        1.934288    0.392161   -0.882806
     19          8           0        3.056712    0.728118   -1.205591
     20          7           0        1.494704   -0.955402   -0.875005
     21          6           0        2.344230   -2.095914   -1.180118
     22          6           0        3.024087   -2.678350    0.065425
     23          6           0        3.912991   -3.868317   -0.275235
     24          8           0        4.505703   -4.338469    0.920306
     25          6           0        5.349638   -5.448961    0.711056
     26          6           0        0.165209   -1.044051   -0.514741
     27          8           0       -0.468030   -2.075017   -0.381296
     28          6           0       -3.132310   -0.849244   -0.845962
     29          6           0       -4.414107   -1.392079   -0.846056
     30          1           0       -6.148314   -3.643484    0.603078
     31          1           0       -6.600037   -2.650517    1.994537
     32          1           0       -7.859905   -3.306897    0.930612
     33          1           0       -7.060118   -1.871207   -0.950382
     34          1           0       -7.506091   -0.882808    0.433198
     35          1           0       -5.772609    0.340900    1.727553
     36          1           0       -3.498501    1.289626    1.772326
     37          1           0       -1.557190    1.711983    0.492479
     38          1           0       -0.813129    3.013425   -1.722950
     39          1           0       -0.768266    5.488196   -1.532678
     40          1           0        0.941197    6.572940   -0.077242
     41          1           0        2.534678    5.202358    1.202368
     42          1           0        3.299587    3.684071    2.743517
     43          1           0        4.190281    2.190827    2.339200
     44          1           0        4.313242    3.614041    1.267667
     45          1           0        1.715857   -2.849973   -1.664704
     46          1           0        3.091224   -1.747304   -1.899624
     47          1           0        2.261730   -2.995542    0.785704
     48          1           0        3.632718   -1.903530    0.545072
     49          1           0        3.319784   -4.670710   -0.749881
     50          1           0        4.693647   -3.572983   -0.999390
     51          1           0        5.755104   -5.734892    1.685325
     52          1           0        4.800983   -6.306259    0.287332
     53          1           0        6.185225   -5.206642    0.033803
     54          1           0       -2.406894   -1.179267   -1.577698
     55          1           0       -4.662760   -2.141933   -1.594003
 ---------------------------------------------------------------------

 The electronic state is 1-A.
 Alpha  occ. eigenvalues --  -19.17936 -19.14284 -19.13978 -19.12875 -14.38421
 Alpha  occ. eigenvalues --  -14.36958 -10.30658 -10.29308 -10.25355 -10.25320
 Alpha  occ. eigenvalues --  -10.24088 -10.23556 -10.22824 -10.22347 -10.22302
 Alpha  occ. eigenvalues --  -10.20377 -10.19798 -10.19654 -10.19630 -10.19181
 Alpha  occ. eigenvalues --  -10.19134 -10.19002 -10.18841 -10.18799 -10.18703
 Alpha  occ. eigenvalues --  -10.18701 -10.18627 -10.18000 -10.17533  -1.06753
 Alpha  occ. eigenvalues --   -1.06076  -1.03730  -1.02705  -0.96770  -0.94709
 Alpha  occ. eigenvalues --   -0.86137  -0.85194  -0.82081  -0.78458  -0.77600
 Alpha  occ. eigenvalues --   -0.75558  -0.74948  -0.74499  -0.72239  -0.70428
 Alpha  occ. eigenvalues --   -0.69247  -0.66731  -0.65330  -0.63071  -0.62312
 Alpha  occ. eigenvalues --   -0.61360  -0.60045  -0.59564  -0.58560  -0.57771
 Alpha  occ. eigenvalues --   -0.55419  -0.53821  -0.52323  -0.50922  -0.48941
 Alpha  occ. eigenvalues --   -0.48718  -0.48129  -0.48008  -0.47384  -0.46979
 Alpha  occ. eigenvalues --   -0.46766  -0.46107  -0.45577  -0.45037  -0.44405
 Alpha  occ. eigenvalues --   -0.43821  -0.43696  -0.42869  -0.42450  -0.41991
 Alpha  occ. eigenvalues --   -0.41677  -0.41551  -0.41341  -0.40572  -0.39530
 Alpha  occ. eigenvalues --   -0.38804  -0.38282  -0.37851  -0.37602  -0.37367
 Alpha  occ. eigenvalues --   -0.36910  -0.35976  -0.35787  -0.35127  -0.33789
 Alpha  occ. eigenvalues --   -0.33559  -0.33492  -0.33051  -0.33001  -0.31977
 Alpha  occ. eigenvalues --   -0.31336  -0.28500  -0.27341  -0.26240  -0.25443
 Alpha  occ. eigenvalues --   -0.25072  -0.24833  -0.24661  -0.22352  -0.19436
 Alpha virt. eigenvalues --   -0.07192  -0.00863  -0.00075   0.00518   0.01221
 Alpha virt. eigenvalues --    0.07319   0.08551   0.08750   0.09445   0.09549
 Alpha virt. eigenvalues --    0.10082   0.10737   0.10870   0.12076   0.13043

 Mulliken charges:
               1
     1  C   -0.432668
     2  C   -0.341619
     3  C    0.182081
     4  C   -0.189179
     5  C   -0.188368
     6  C    0.349248
     7  N   -0.807239
     8  C    0.246998
     9  C   -0.040880
    10  C    0.019538
    11  C   -0.187214
    12  C   -0.138626
    13  C   -0.129852
    14  C   -0.199929
    15  C    0.366078
    16  O   -0.504819
    17  C   -0.215915
    18  C    0.596894
    19  O   -0.498231
    20  N   -0.535950
    21  C   -0.150727
    22  C   -0.280989
    23  C   -0.007968
    24  O   -0.461510
    25  C   -0.191093
    26  C    0.625372
    27  O   -0.496137
    28  C   -0.117167
    29  C   -0.203603
    30  H    0.152414
    31  H    0.149169
    32  H    0.142385
    33  H    0.142793
    34  H    0.140928
    35  H    0.124671
    36  H    0.127557
    37  H    0.338569
    38  H    0.139274
    39  H    0.130057
    40  H    0.132817
    41  H    0.135979
    42  H    0.148117
    43  H    0.175855
    44  H    0.160034
    45  H    0.166234
    46  H    0.173251
    47  H    0.166758
    48  H    0.164291
    49  H    0.118140
    50  H    0.118488
    51  H    0.157651
    52  H    0.129014
    53  H    0.128697
    54  H    0.143181
    55  H    0.127147
 Sum of Mulliken charges =  -0.00000

 Dipole moment (field-independent basis, Debye):
    X=             -0.9123    Y=              1.8417    Z=              0.6342  Tot=              2.1509
 Quadrupole moment (field-independent basis, Debye-Ang):
   XX=           -154.9441   YY=           -151.0449   ZZ=           -166.1457
   XY=             -4.5076   XZ=              4.4736   YZ=             12.6693

 Normal termination of Gaussian 16 at Fri Nov  4 20:01:51 2022.
