 Gaussian 16, Revision B.01,
 Gaussian 16:  ES64L-G16RevB.01 20-Dec-2017

 -----------------------------
 #p b3lyp/6-31g(d) opt SCF=XQC
 -----------------------------

 ------------------------------
 Gaussian input prepared by ASE
 ------------------------------
 Symbolic Z-matrix:
 Charge =  0 Multiplicity = 1

 SCF Done:  E(RB3LYP) =  -1820.11484590     A.U. after   15 cycles
 SCF Done:  E(RB3LYP) =  -1820.12291312     A.U. after   14 cycles
 SCF Done:  E(RB3LYP) =  -1820.12396736     A.U. after   14 cycles
 SCF Done:  E(RB3LYP) =  -1820.12982231     A.U. after   15 cycles
 SCF Done:  E(RB3LYP) =  -1820.12943535     A.U. after   14 cycles
 SCF Done:  E(RB3LYP) =  -1820.13119636     A.U. after   12 cycles
 SCF Done:  E(RB3LYP) =  -1820.13012549     A.U. after   14 cycles
 SCF Done:  E(RB3LYP) =  -1820.13193145     A.U. after   12 cycles
 SCF Done:  E(RB3LYP) =  -1820.13217667     A.U. after   12 cycles
 SCF Done:  E(RB3LYP) =  -1820.13222818     A.U. after   12 cycles
 SCF Done:  E(RB3LYP) =  -1820.13248115     A.U. after    9 cycles
 SCF Done:  E(RB3LYP) =  -1820.13248291     A.U. after   10 cycles
 SCF Done:  E(RB3LYP) =  -1820.10034208     A.U. after   13 cycles
 SCF Done:  E(RB3LYP) =  -1820.13249744     A.U. after   11 cycles
 SCF Done:  E(RB3LYP) =  -1820.13249030     A.U. after   10 cycles
 SCF Done:  E(RB3LYP) =  -1820.13250421     A.U. after   10 cycles
 SCF Done:  E(RB3LYP) =  -1820.13250462     A.U. after    9 cycles
 SCF Done:  E(RB3LYP) =  -1820.13250466     A.U. after    7 cycles
 SCF Done:  E(RB3LYP) =  -1820.13250473     A.U. after    7 cycles
 SCF Done:  E(RB3LYP) =  -1820.13250473     A.U. after    6 cycles
 Optimization completed.
    -- Stationary point found.

                         Standard orientation:
 ---------------------------------------------------------------------
 Center     Atomic      Atomic             Coordinates (Angstroms)
 Number     Number       Type             X           Y           Z
 ---------------------------------------------------------------------
      1          6           0        3.113219    3.353906    0.504283
      2          6           0        2.335760    2.089320    0.870566
      3          7           0        1.793437    1.377302   -0.295694
      4          6           0        0.616422    1.674236   -0.946414
      5         16           0       -0.323087    3.141845   -0.653078
      6          6           0       -1.886121    2.409626   -0.057567
      7          6           0       -1.795407    1.713366    1.312136
      8          8           0       -0.771621    1.645789    1.979514
      9          7           0       -2.991842    1.182994    1.707987
     10          6           0       -3.103326    0.236898    2.811284
     11          6           0       -3.596936   -1.155907    2.351731
     12          6           0       -2.704116   -1.796667    1.312693
     13          6           0       -1.670735   -2.664432    1.679404
     14          6           0       -0.800028   -3.208926    0.733978
     15          6           0       -0.935774   -2.862518   -0.608415
     16          6           0       -1.953696   -1.995937   -1.010390
     17          6           0       -2.838905   -1.502200   -0.053957
     18          8           0       -3.898817   -0.649276   -0.389362
     19          6           0       -4.391514   -0.674279   -1.669170
     20          9           0       -5.620265   -0.122821   -1.619333
     21          9           0       -3.627183    0.104511   -2.487051
     22          7           0        0.310082    0.731088   -1.813152
     23          7           0        1.285524   -0.227336   -1.732073
     24          6           0        2.174809    0.167673   -0.833404
     25          6           0        3.369521   -0.616495   -0.483388
     26          6           0        3.271011   -2.017048   -0.496810
     27          6           0        4.387361   -2.796408   -0.208405
     28          6           0        5.608891   -2.195518    0.099179
     29          6           0        5.735063   -0.801006    0.112875
     30          6           0        7.053646   -0.145013    0.453592
     31          6           0        4.608554   -0.027008   -0.187665
     32          1           0        2.464688    4.085613    0.013158
     33          1           0        3.510520    3.814502    1.415657
     34          1           0        3.953234    3.139267   -0.165189
     35          1           0        1.482545    2.323570    1.511523
     36          1           0        2.973048    1.379919    1.402842
     37          1           0       -2.257445    1.710687   -0.813269
     38          1           0       -2.594387    3.244813   -0.004463
     39          1           0       -3.729564    1.150530    1.015670
     40          1           0       -2.110403    0.169240    3.261842
     41          1           0       -3.793246    0.626679    3.571263
     42          1           0       -3.647580   -1.798262    3.238969
     43          1           0       -4.620037   -1.065642    1.968530
     44          1           0       -1.549687   -2.913834    2.731084
     45          1           0       -0.008803   -3.882343    1.050298
     46          1           0       -0.241455   -3.239019   -1.352723
     47          1           0       -2.014012   -1.671270   -2.042118
     48          1           0       -4.441353   -1.682691   -2.090757
     49          1           0        2.316447   -2.471571   -0.737362
     50          1           0        4.306777   -3.880216   -0.222658
     51          1           0        6.475093   -2.814064    0.323359
     52          1           0        7.188608   -0.062577    1.540402
     53          1           0        7.900013   -0.722378    0.066022
     54          1           0        7.117708    0.866617    0.039518
     55          1           0        4.712627    1.053289   -0.222401
 ---------------------------------------------------------------------

 The electronic state is 1-A.
 Alpha  occ. eigenvalues --  -88.88707 -24.72377 -24.71850 -19.21255 -19.11822
 Alpha  occ. eigenvalues --  -14.39451 -14.35945 -14.33135 -14.32854 -10.41007
 Alpha  occ. eigenvalues --  -10.29262 -10.26243 -10.25552 -10.24296 -10.22696
 Alpha  occ. eigenvalues --  -10.22608 -10.22562 -10.20639 -10.20576 -10.20309
 Alpha  occ. eigenvalues --  -10.20109 -10.19767 -10.19695 -10.19569 -10.19280
 Alpha  occ. eigenvalues --  -10.19263 -10.19123 -10.18973 -10.18813 -10.18760
 Alpha  occ. eigenvalues --  -10.18575  -7.94751  -5.91308  -5.90904  -5.90180
 Alpha  occ. eigenvalues --   -1.27616  -1.20868  -1.09645  -1.04908  -1.03523
 Alpha  occ. eigenvalues --   -0.92514  -0.91520  -0.86518  -0.86325  -0.82669
 Alpha  occ. eigenvalues --   -0.79784  -0.78542  -0.76684  -0.76400  -0.76196
 Alpha  occ. eigenvalues --   -0.74603  -0.73479  -0.70235  -0.68965  -0.68138
 Alpha  occ. eigenvalues --   -0.65332  -0.64358  -0.63026  -0.62975  -0.60799
 Alpha  occ. eigenvalues --   -0.60181  -0.58482  -0.57564  -0.56850  -0.56455
 Alpha  occ. eigenvalues --   -0.55848  -0.55367  -0.51735  -0.51053  -0.49465
 Alpha  occ. eigenvalues --   -0.49153  -0.48808  -0.47661  -0.47208  -0.46792
 Alpha  occ. eigenvalues --   -0.46424  -0.45834  -0.44809  -0.44519  -0.44346
 Alpha  occ. eigenvalues --   -0.44034  -0.43365  -0.42914  -0.42671  -0.42235
 Alpha  occ. eigenvalues --   -0.42093  -0.41464  -0.40899  -0.40663  -0.40547
 Alpha  occ. eigenvalues --   -0.39664  -0.39244  -0.38871  -0.38762  -0.38274
 Alpha  occ. eigenvalues --   -0.37854  -0.37435  -0.36627  -0.36113  -0.35611
 Alpha  occ. eigenvalues --   -0.35503  -0.34906  -0.34631  -0.34292  -0.33878
 Alpha  occ. eigenvalues --   -0.33579  -0.29990  -0.28002  -0.27391  -0.26086
 Alpha  occ. eigenvalues --   -0.25688  -0.24994  -0.24918  -0.24526  -0.24012
 Alpha  occ. eigenvalues --   -0.23767  -0.21460
 Alpha virt. eigenvalues --   -0.02472  -0.01136  -0.00315  -0.00125   0.01085
 Alpha virt. eigenvalues --    0.02329   0.05493   0.06707   0.07529   0.08282
 Alpha virt. eigenvalues --    0.09048   0.09395   0.10935   0.11409   0.11626

 Mulliken charges:
               1
     1  C   -0.461023
     2  C   -0.175112
     3  N   -0.447628
     4  C    0.240829
     5  S    0.162113
     6  C   -0.551702
     7  C    0.614108
     8  O   -0.500545
     9  N   -0.589280
    10  C   -0.122633
    11  C   -0.372878
    12  C    0.146683
    13  C   -0.193544
    14  C   -0.119925
    15  C   -0.135376
    16  C   -0.162683
    17  C    0.279468
    18  O   -0.538645
    19  C    0.607987
    20  F   -0.266238
    21  F   -0.266600
    22  N   -0.308766
    23  N   -0.366305
    24  C    0.403535
    25  C    0.122500
    26  C   -0.156667
    27  C   -0.137603
    28  C   -0.173075
    29  C    0.171474
    30  C   -0.530818
    31  C   -0.233520
    32  H    0.176272
    33  H    0.155652
    34  H    0.158630
    35  H    0.228649
    36  H    0.167133
    37  H    0.228107
    38  H    0.196406
    39  H    0.340851
    40  H    0.190215
    41  H    0.150959
    42  H    0.152566
    43  H    0.159469
    44  H    0.130175
    45  H    0.132860
    46  H    0.152708
    47  H    0.176925
    48  H    0.137517
    49  H    0.154144
    50  H    0.130933
    51  H    0.124252
    52  H    0.166282
    53  H    0.160757
    54  H    0.157709
    55  H    0.132697
 Sum of Mulliken charges =  -0.00000

 Dipole moment (field-independent basis, Debye):
    X=             -0.0385    Y=             -1.7928    Z=              3.4857  Tot=              3.9199
 Quadrupole moment (field-independent basis, Debye-Ang):
   XX=           -157.0744   YY=           -175.2400   ZZ=           -192.0434
   XY=              3.4276   XZ=              0.8192   YZ=              0.6015

 Normal termination of Gaussian 16 at Fri Nov  4 20:50:40 2022.
