 Gaussian 16, Revision B.01,
 Gaussian 16:  ES64L-G16RevB.01 20-Dec-2017

 -------------------------------------------------------------------
 #p b3lyp/6-31g(d) 6D 10F nosymm GFInput td=(50-50,nstate=2) SCF=XQC
 -------------------------------------------------------------------

 ------------------------------
 Gaussian input prepared by ASE
 ------------------------------
 Symbolic Z-matrix:
 Charge =  0 Multiplicity = 1

                          Input orientation:
 ---------------------------------------------------------------------
 Center     Atomic      Atomic             Coordinates (Angstroms)
 Number     Number       Type             X           Y           Z
 ---------------------------------------------------------------------
      1          6           0        3.468119    0.403965    2.731329
      2          6           0        2.344485   -0.188120    1.880055
      3          7           0        1.732676    0.782733    0.961154
      4          6           0        0.744371    1.686290    1.283349
      5         16           0        0.221370    2.019051    2.938142
      6          6           0       -1.528722    1.509577    2.831054
      7          6           0       -1.753568   -0.000745    2.637496
      8          8           0       -0.850556   -0.823842    2.565526
      9          7           0       -3.079642   -0.325384    2.562738
     10          6           0       -3.543152   -1.626817    2.097740
     11          6           0       -4.357338   -1.533052    0.785089
     12          6           0       -3.586523   -0.908246   -0.356298
     13          6           0       -2.867293   -1.693886   -1.262304
     14          6           0       -2.099501   -1.123785   -2.279120
     15          6           0       -2.016143    0.262661   -2.385240
     16          6           0       -2.717786    1.078311   -1.495788
     17          6           0       -3.514356    0.485016   -0.518233
     18          8           0       -4.265823    1.241412    0.390914
     19          6           0       -4.631668    2.518388    0.049193
     20          9           0       -5.661462    2.851606    0.852254
     21          9           0       -3.614038    3.388622    0.307587
     22          7           0        0.268741    2.265538    0.200365
     23          7           0        0.932803    1.730095   -0.871531
     24          6           0        1.813505    0.853809   -0.412234
     25          6           0        2.711627    0.081234   -1.284742
     26          6           0        2.234337   -0.313801   -2.544731
     27          6           0        3.064169   -1.013620   -3.415621
     28          6           0        4.371604   -1.331110   -3.044640
     29          6           0        4.873703   -0.942951   -1.796442
     30          6           0        6.286269   -1.291581   -1.386330
     31          6           0        4.033741   -0.231629   -0.932206
     32          1           0        3.091070    1.198312    3.382512
     33          1           0        3.894565   -0.379173    3.368072
     34          1           0        4.272665    0.820808    2.115834
     35          1           0        1.535192   -0.570011    2.506856
     36          1           0        2.713257   -1.012319    1.265722
     37          1           0       -2.009388    2.070073    2.023412
     38          1           0       -1.982567    1.835663    3.774288
     39          1           0       -3.733958    0.441228    2.469108
     40          1           0       -2.650603   -2.241420    1.959554
     41          1           0       -4.163907   -2.101349    2.869083
     42          1           0       -4.660233   -2.550456    0.510282
     43          1           0       -5.278522   -0.969487    0.973612
     44          1           0       -2.912492   -2.775957   -1.162486
     45          1           0       -1.554412   -1.761356   -2.969023
     46          1           0       -1.388914    0.725775   -3.140181
     47          1           0       -2.595545    2.153994   -1.534164
     48          1           0       -4.918815    2.616308   -1.002033
     49          1           0        1.216784   -0.060960   -2.820972
     50          1           0        2.690993   -1.314939   -4.390959
     51          1           0        5.011664   -1.878681   -3.732862
     52          1           0        6.342312   -2.308363   -0.975014
     53          1           0        6.972558   -1.249982   -2.239075
     54          1           0        6.661585   -0.607917   -0.617762
     55          1           0        4.432765    0.110465    0.017969
 ---------------------------------------------------------------------

 SCF Done:  E(RB3LYP) =  -1820.13250919     A.U. after   15 cycles

 Excitation energies and oscillator strengths:

 Excited state symmetry could not be determined.
 Excited State   1:      Triplet-?Sym    3.3680 eV  368.13 nm  f=0.0000  <S**2>=2.000
     108 ->118         0.10018
     112 ->118        -0.11613
     113 ->118        -0.14260
     113 ->121         0.10993
     114 ->120         0.10690
     114 ->121         0.18135
     116 ->118         0.15895
     117 ->118         0.55348
 This state for optimization and/or second-order correction.
 Total Energy, E(TD-HF/TD-DFT) =  -1820.00873863
 Copying the excited state density for this state as the 1-particle RhoCI density.

 Excited state symmetry could not be determined.
 Excited State   2:      Triplet-?Sym    3.7072 eV  334.44 nm  f=0.0000  <S**2>=2.000
     110 ->119        -0.20192
     111 ->119         0.19002
     112 ->119         0.24793
     112 ->120         0.12591
     113 ->119        -0.18086
     113 ->120        -0.15325
     115 ->119        -0.27182
     115 ->120         0.33151
     115 ->121        -0.15314
     116 ->119        -0.11322
     116 ->120         0.17128

 Excited state symmetry could not be determined.
 Excited State   3:      Singlet-?Sym    4.6562 eV  266.28 nm  f=0.3086  <S**2>=0.000
     116 ->118        -0.13950
     117 ->118         0.66797
     117 ->122         0.10575

 Excited state symmetry could not be determined.
 Excited State   4:      Singlet-?Sym    4.9005 eV  253.00 nm  f=0.0158  <S**2>=0.000
     112 ->118         0.13209
     113 ->118         0.19237
     115 ->118        -0.15490
     116 ->118         0.48136
     117 ->120        -0.20641
     117 ->121        -0.32874

 Alpha  occ. eigenvalues --  -88.88707 -24.72377 -24.71850 -19.21255 -19.11822
 Alpha  occ. eigenvalues --  -14.39450 -14.35945 -14.33135 -14.32854 -10.41007
 Alpha  occ. eigenvalues --  -10.29263 -10.26244 -10.25552 -10.24296 -10.22696
 Alpha  occ. eigenvalues --  -10.22608 -10.22562 -10.20640 -10.20576 -10.20309
 Alpha  occ. eigenvalues --  -10.20109 -10.19768 -10.19695 -10.19569 -10.19280
 Alpha  occ. eigenvalues --  -10.19263 -10.19123 -10.18973 -10.18813 -10.18760
 Alpha  occ. eigenvalues --  -10.18575  -7.94751  -5.91308  -5.90904  -5.90180
 Alpha  occ. eigenvalues --   -1.27616  -1.20868  -1.09645  -1.04908  -1.03524
 Alpha  occ. eigenvalues --   -0.92515  -0.91520  -0.86518  -0.86325  -0.82668
 Alpha  occ. eigenvalues --   -0.79784  -0.78542  -0.76684  -0.76400  -0.76196
 Alpha  occ. eigenvalues --   -0.74603  -0.73479  -0.70235  -0.68965  -0.68138
 Alpha  occ. eigenvalues --   -0.65332  -0.64358  -0.63026  -0.62975  -0.60799
 Alpha  occ. eigenvalues --   -0.60181  -0.58482  -0.57564  -0.56850  -0.56455
 Alpha  occ. eigenvalues --   -0.55849  -0.55367  -0.51735  -0.51053  -0.49465
 Alpha  occ. eigenvalues --   -0.49153  -0.48808  -0.47661  -0.47208  -0.46792
 Alpha  occ. eigenvalues --   -0.46424  -0.45834  -0.44809  -0.44519  -0.44346
 Alpha  occ. eigenvalues --   -0.44034  -0.43365  -0.42914  -0.42671  -0.42235
 Alpha  occ. eigenvalues --   -0.42093  -0.41464  -0.40899  -0.40663  -0.40547
 Alpha  occ. eigenvalues --   -0.39664  -0.39245  -0.38871  -0.38762  -0.38274
 Alpha  occ. eigenvalues --   -0.37854  -0.37436  -0.36627  -0.36113  -0.35611
 Alpha  occ. eigenvalues --   -0.35503  -0.34906  -0.34631  -0.34292  -0.33878
 Alpha  occ. eigenvalues --   -0.33579  -0.29989  -0.28002  -0.27391  -0.26086
 Alpha  occ. eigenvalues --   -0.25688  -0.24994  -0.24918  -0.24526  -0.24012
 Alpha  occ. eigenvalues --   -0.23767  -0.21460
 Alpha virt. eigenvalues --   -0.02471  -0.01136  -0.00316  -0.00125   0.01085
 Alpha virt. eigenvalues --    0.02329   0.05493   0.06708   0.07529   0.08282
 Alpha virt. eigenvalues --    0.09048   0.09395   0.10935   0.11409   0.11626

 Mulliken charges:
               1
     1  C   -0.461025
     2  C   -0.175118
     3  N   -0.447648
     4  C    0.240868
     5  S    0.162103
     6  C   -0.551696
     7  C    0.614114
     8  O   -0.500555
     9  N   -0.589273
    10  C   -0.122641
    11  C   -0.372878
    12  C    0.146739
    13  C   -0.193562
    14  C   -0.119929
    15  C   -0.135361
    16  C   -0.162701
    17  C    0.279418
    18  O   -0.538639
    19  C    0.608005
    20  F   -0.266243
    21  F   -0.266603
    22  N   -0.308775
    23  N   -0.366311
    24  C    0.403536
    25  C    0.122489
    26  C   -0.156647
    27  C   -0.137607
    28  C   -0.173078
    29  C    0.171471
    30  C   -0.530811
    31  C   -0.233512
    32  H    0.176273
    33  H    0.155653
    34  H    0.158632
    35  H    0.228651
    36  H    0.167132
    37  H    0.228108
    38  H    0.196405
    39  H    0.340849
    40  H    0.190217
    41  H    0.150960
    42  H    0.152567
    43  H    0.159468
    44  H    0.130177
    45  H    0.132861
    46  H    0.152708
    47  H    0.176925
    48  H    0.137517
    49  H    0.154140
    50  H    0.130933
    51  H    0.124252
    52  H    0.166281
    53  H    0.160755
    54  H    0.157708
    55  H    0.132695
 Sum of Mulliken charges =  -0.00000

 Dipole moment (field-independent basis, Debye):
    X=             -0.8360    Y=             -3.8033    Z=             -0.4497  Tot=              3.9200
 Quadrupole moment (field-independent basis, Debye-Ang):
   XX=           -156.4299   YY=           -192.9176   ZZ=           -177.5870
   XY=             -3.3155   XZ=             -0.4445   YZ=              3.9338

 Normal termination of Gaussian 16 at Sat Nov  5 12:05:39 2022.
