 Gaussian 16, Revision B.01,
 Gaussian 16:  ES64L-G16RevB.01 20-Dec-2017

 -------------------------------------------------------------------
 #p b3lyp/6-31g(d) 6D 10F nosymm GFInput td=(50-50,nstate=2) SCF=XQC
 -------------------------------------------------------------------

 ------------------------------
 Gaussian input prepared by ASE
 ------------------------------
 Symbolic Z-matrix:
 Charge =  0 Multiplicity = 1

                          Input orientation:
 ---------------------------------------------------------------------
 Center     Atomic      Atomic             Coordinates (Angstroms)
 Number     Number       Type             X           Y           Z
 ---------------------------------------------------------------------
      1          6           0        5.757716   -0.098541    3.511433
      2          8           0        5.859004   -0.558098    2.173800
      3          6           0        4.875842   -0.201207    1.302294
      4          6           0        3.771892    0.587773    1.611135
      5          6           0        2.817342    0.910466    0.637520
      6          6           0        2.949116    0.411038   -0.654328
      7          7           0        2.027915    0.719998   -1.685753
      8          6           0        0.662022    0.744300   -1.647801
      9          6           0       -0.108894    0.337082   -0.535490
     10          6           0       -1.477049    0.422824   -0.693063
     11          6           0       -2.380940    0.005658    0.446436
     12          8           0       -1.933283   -0.395849    1.514113
     13          7           0       -3.709738    0.136979    0.125161
     14          6           0       -4.828454   -0.144707    0.908478
     15          6           0       -4.744426   -0.638324    2.220718
     16          6           0       -5.906613   -0.896939    2.942620
     17          6           0       -7.172575   -0.676749    2.392076
     18          6           0       -7.271730   -0.188971    1.095082
     19          6           0       -6.113824    0.079184    0.347886
     20          6           0       -6.233075    0.580788   -0.986711
     21          7           0       -6.300252    0.989426   -2.075306
     22          7           0       -2.075359    0.859456   -1.818263
     23          6           0       -1.260683    1.207846   -2.822290
     24          6           0       -1.896104    1.686047   -4.100022
     25          7           0        0.075963    1.169005   -2.784669
     26          6           0        4.059355   -0.390966   -0.978870
     27          6           0        5.024769   -0.689653   -0.022827
     28          8           0        6.131032   -1.448515   -0.245969
     29          6           0        6.330703   -1.973389   -1.548061
     30          1           0        6.629866   -0.499768    4.030533
     31          1           0        4.844136   -0.467107    3.996963
     32          1           0        5.776461    0.998379    3.564615
     33          1           0        3.647435    0.980122    2.613549
     34          1           0        1.992101    1.565650    0.892966
     35          1           0        2.400277    0.942681   -2.601109
     36          1           0        0.318213   -0.037037    0.384414
     37          1           0       -3.855255    0.494051   -0.820744
     38          1           0       -3.767611   -0.810217    2.650067
     39          1           0       -5.817632   -1.278568    3.956097
     40          1           0       -8.069670   -0.883147    2.967206
     41          1           0       -8.240218   -0.008007    0.639950
     42          1           0       -1.584235    1.053177   -4.938244
     43          1           0       -2.983884    1.666327   -4.013621
     44          1           0       -1.566831    2.705801   -4.328639
     45          1           0        4.142744   -0.785995   -1.984878
     46          1           0        7.265601   -2.534402   -1.502146
     47          1           0        5.515772   -2.649069   -1.840427
     48          1           0        6.423053   -1.174291   -2.295883
 ---------------------------------------------------------------------

 SCF Done:  E(RB3LYP) =  -1311.11377363     A.U. after   16 cycles

 Excitation energies and oscillator strengths:

 Excited state symmetry could not be determined.
 Excited State   1:      Triplet-?Sym    2.8448 eV  435.83 nm  f=0.0000  <S**2>=2.000
      98 ->103        -0.14883
     100 ->103        -0.16626
     101 ->103        -0.12080
     102 ->103         0.62642
     102 ->104        -0.12118
 This state for optimization and/or second-order correction.
 Total Energy, E(TD-HF/TD-DFT) =  -1311.00923075
 Copying the excited state density for this state as the 1-particle RhoCI density.

 Excited state symmetry could not be determined.
 Excited State   2:      Triplet-?Sym    3.0783 eV  402.77 nm  f=0.0000  <S**2>=2.000
      97 ->104         0.24315
     100 ->103        -0.10184
     101 ->103         0.57643
     101 ->104         0.15380
     101 ->106        -0.20446

 Excited state symmetry could not be determined.
 Excited State   3:      Singlet-?Sym    3.2090 eV  386.36 nm  f=0.0547  <S**2>=0.000
     102 ->103         0.70177

 Excited state symmetry could not be determined.
 Excited State   4:      Singlet-?Sym    3.9555 eV  313.45 nm  f=0.0010  <S**2>=0.000
      96 ->103        -0.10766
      99 ->103         0.66740
      99 ->104        -0.10669
     100 ->103        -0.11184

 Alpha  occ. eigenvalues --  -19.18511 -19.18195 -19.13172 -14.38063 -14.37636
 Alpha  occ. eigenvalues --  -14.33599 -14.33260 -14.33089 -10.30300 -10.28253
 Alpha  occ. eigenvalues --  -10.26446 -10.25949 -10.25697 -10.25227 -10.24737
 Alpha  occ. eigenvalues --  -10.24448 -10.24426 -10.23833 -10.23442 -10.22884
 Alpha  occ. eigenvalues --  -10.21461 -10.20777 -10.20178 -10.20101 -10.19844
 Alpha  occ. eigenvalues --  -10.19756 -10.19753 -10.19469 -10.17905  -1.08064
 Alpha  occ. eigenvalues --   -1.06066  -1.04935  -0.99990  -0.96077  -0.95138
 Alpha  occ. eigenvalues --   -0.90396  -0.88433  -0.86347  -0.84935  -0.80344
 Alpha  occ. eigenvalues --   -0.77938  -0.76850  -0.76379  -0.75484  -0.72327
 Alpha  occ. eigenvalues --   -0.71415  -0.70019  -0.68765  -0.65304  -0.64851
 Alpha  occ. eigenvalues --   -0.62813  -0.61360  -0.59185  -0.58030  -0.56938
 Alpha  occ. eigenvalues --   -0.55774  -0.55003  -0.53635  -0.52482  -0.51702
 Alpha  occ. eigenvalues --   -0.50500  -0.48631  -0.48031  -0.47381  -0.47347
 Alpha  occ. eigenvalues --   -0.46748  -0.46132  -0.45941  -0.45752  -0.45181
 Alpha  occ. eigenvalues --   -0.44432  -0.43811  -0.43664  -0.42433  -0.42253
 Alpha  occ. eigenvalues --   -0.41091  -0.40460  -0.40168  -0.39911  -0.39047
 Alpha  occ. eigenvalues --   -0.38854  -0.38757  -0.38076  -0.37391  -0.35610
 Alpha  occ. eigenvalues --   -0.35577  -0.34470  -0.34355  -0.33199  -0.33152
 Alpha  occ. eigenvalues --   -0.32988  -0.32431  -0.31946  -0.30466  -0.28593
 Alpha  occ. eigenvalues --   -0.27402  -0.26230  -0.25693  -0.25379  -0.23810
 Alpha  occ. eigenvalues --   -0.23131  -0.20110
 Alpha virt. eigenvalues --   -0.06561  -0.04098  -0.02060  -0.00684  -0.00164
 Alpha virt. eigenvalues --    0.01443   0.03221   0.06209   0.07654   0.08282
 Alpha virt. eigenvalues --    0.08845   0.09163   0.09841   0.10480   0.12029

 Mulliken charges:
               1
     1  C   -0.217170
     2  O   -0.498263
     3  C    0.345346
     4  C   -0.215430
     5  C   -0.174128
     6  C    0.333737
     7  N   -0.761347
     8  C    0.526817
     9  C   -0.196902
    10  C    0.257599
    11  C    0.596020
    12  O   -0.515651
    13  N   -0.789529
    14  C    0.383967
    15  C   -0.167910
    16  C   -0.131931
    17  C   -0.132332
    18  C   -0.152753
    19  C    0.086460
    20  C    0.241309
    21  N   -0.496065
    22  N   -0.568131
    23  C    0.448350
    24  C   -0.510865
    25  N   -0.530583
    26  C   -0.256262
    27  C    0.340636
    28  O   -0.496967
    29  C   -0.216700
    30  H    0.173338
    31  H    0.154204
    32  H    0.152076
    33  H    0.141725
    34  H    0.147742
    35  H    0.338269
    36  H    0.184721
    37  H    0.389404
    38  H    0.197200
    39  H    0.144789
    40  H    0.141163
    41  H    0.157772
    42  H    0.171128
    43  H    0.185481
    44  H    0.172194
    45  H    0.136423
    46  H    0.175378
    47  H    0.154667
    48  H    0.151006
 Sum of Mulliken charges =  -0.00000

 Dipole moment (field-independent basis, Debye):
    X=              3.6425    Y=             -0.7963    Z=              1.8412  Tot=              4.1584
 Quadrupole moment (field-independent basis, Debye-Ang):
   XX=           -152.9900   YY=           -166.2667   ZZ=           -152.0023
   XY=              6.0008   XZ=            -22.3995   YZ=              5.8463

 Normal termination of Gaussian 16 at Sat Nov  5 11:54:18 2022.
