 Gaussian 16, Revision B.01,
 Gaussian 16:  ES64L-G16RevB.01 20-Dec-2017

 -----------------------------
 #p b3lyp/6-31g(d) opt SCF=XQC
 -----------------------------

 ------------------------------
 Gaussian input prepared by ASE
 ------------------------------
 Symbolic Z-matrix:
 Charge =  0 Multiplicity = 1

 SCF Done:  E(RB3LYP) =  -1311.10814124     A.U. after   16 cycles
 SCF Done:  E(RB3LYP) =  -1311.11308295     A.U. after   12 cycles
 SCF Done:  E(RB3LYP) =  -1311.11351088     A.U. after   11 cycles
 SCF Done:  E(RB3LYP) =  -1311.11361851     A.U. after   11 cycles
 SCF Done:  E(RB3LYP) =  -1311.11366063     A.U. after   11 cycles
 SCF Done:  E(RB3LYP) =  -1311.11368539     A.U. after   10 cycles
 SCF Done:  E(RB3LYP) =  -1311.11370068     A.U. after   10 cycles
 SCF Done:  E(RB3LYP) =  -1311.11371459     A.U. after   11 cycles
 SCF Done:  E(RB3LYP) =  -1311.11371789     A.U. after   10 cycles
 SCF Done:  E(RB3LYP) =  -1311.11371912     A.U. after    8 cycles
 SCF Done:  E(RB3LYP) =  -1311.11373617     A.U. after    9 cycles
 SCF Done:  E(RB3LYP) =  -1311.11375287     A.U. after   11 cycles
 SCF Done:  E(RB3LYP) =  -1311.11375524     A.U. after    9 cycles
 SCF Done:  E(RB3LYP) =  -1311.11375933     A.U. after    9 cycles
 SCF Done:  E(RB3LYP) =  -1311.11377080     A.U. after   10 cycles
 SCF Done:  E(RB3LYP) =  -1311.11377357     A.U. after    9 cycles
 SCF Done:  E(RB3LYP) =  -1311.11377528     A.U. after    9 cycles
 SCF Done:  E(RB3LYP) =  -1311.11377688     A.U. after    9 cycles
 SCF Done:  E(RB3LYP) =  -1311.11377723     A.U. after    8 cycles
 SCF Done:  E(RB3LYP) =  -1311.11377730     A.U. after    7 cycles
 Optimization completed.
    -- Stationary point found.

                         Standard orientation:
 ---------------------------------------------------------------------
 Center     Atomic      Atomic             Coordinates (Angstroms)
 Number     Number       Type             X           Y           Z
 ---------------------------------------------------------------------
      1          6           0       -6.040066   -3.384921   -1.021381
      2          8           0       -6.160733   -2.202049   -0.248745
      3          6           0       -5.157708   -1.284945   -0.328504
      4          6           0       -4.015464   -1.405519   -1.114201
      5          6           0       -3.042457   -0.397568   -1.136861
      6          6           0       -3.195772    0.731536   -0.338563
      7          7           0       -2.256597    1.792594   -0.335186
      8          6           0       -0.891398    1.740144   -0.300897
      9          6           0       -0.146052    0.549404   -0.146071
     10          6           0        1.225195    0.701552   -0.122405
     11          6           0        2.102737   -0.520108    0.041819
     12          8           0        1.631577   -1.646813    0.142243
     13          7           0        3.437550   -0.197461    0.060230
     14          6           0        4.537751   -1.043908    0.192691
     15          6           0        4.424204   -2.436148    0.339205
     16          6           0        5.569201   -3.218073    0.466785
     17          6           0        6.846576   -2.650294    0.453241
     18          6           0        6.974880   -1.274511    0.309323
     19          6           0        5.834730   -0.465786    0.179025
     20          6           0        5.983935    0.949532    0.032088
     21          7           0        6.075558    2.104321   -0.088756
     22          7           0        1.848801    1.890299   -0.235060
     23          6           0        1.056376    2.962243   -0.362106
     24          6           0        1.719672    4.308458   -0.475156
     25          7           0       -0.280604    2.937422   -0.399714
     26          6           0       -4.344919    0.864182    0.463331
     27          6           0       -5.327481   -0.120612    0.466613
     28          8           0       -6.470749   -0.075513    1.201722
     29          6           0       -6.693153    1.058270    2.023842
     30          1           0       -6.933405   -3.973511   -0.805512
     31          1           0       -5.148274   -3.961295   -0.740826
     32          1           0       -6.002304   -3.163492   -2.096536
     33          1           0       -3.874072   -2.280810   -1.737208
     34          1           0       -2.185291   -0.495252   -1.793569
     35          1           0       -2.614073    2.740378   -0.340949
     36          1           0       -0.594809   -0.427704   -0.034325
     37          1           0        3.604297    0.805072   -0.042415
     38          1           0        3.438466   -2.879149    0.350451
     39          1           0        5.457434   -4.293052    0.579139
     40          1           0        7.729996   -3.272875    0.553816
     41          1           0        7.952851   -0.804153    0.295314
     42          1           0        1.378180    4.967930    0.330377
     43          1           0        2.804704    4.202569   -0.424044
     44          1           0        1.444225    4.788568   -1.420781
     45          1           0       -4.445425    1.741632    1.091848
     46          1           0       -7.655917    0.889239    2.509015
     47          1           0       -5.913286    1.160516    2.790318
     48          1           0       -6.741752    1.982610    1.432609
 ---------------------------------------------------------------------

 The electronic state is 1-A.
 Alpha  occ. eigenvalues --  -19.18511 -19.18196 -19.13172 -14.38063 -14.37636
 Alpha  occ. eigenvalues --  -14.33599 -14.33260 -14.33089 -10.30300 -10.28253
 Alpha  occ. eigenvalues --  -10.26446 -10.25949 -10.25697 -10.25227 -10.24737
 Alpha  occ. eigenvalues --  -10.24448 -10.24426 -10.23833 -10.23442 -10.22884
 Alpha  occ. eigenvalues --  -10.21461 -10.20777 -10.20178 -10.20101 -10.19844
 Alpha  occ. eigenvalues --  -10.19756 -10.19753 -10.19469 -10.17905  -1.08064
 Alpha  occ. eigenvalues --   -1.06066  -1.04935  -0.99990  -0.96077  -0.95138
 Alpha  occ. eigenvalues --   -0.90396  -0.88433  -0.86347  -0.84935  -0.80344
 Alpha  occ. eigenvalues --   -0.77938  -0.76850  -0.76379  -0.75484  -0.72327
 Alpha  occ. eigenvalues --   -0.71415  -0.70019  -0.68766  -0.65304  -0.64851
 Alpha  occ. eigenvalues --   -0.62813  -0.61360  -0.59185  -0.58030  -0.56938
 Alpha  occ. eigenvalues --   -0.55774  -0.55003  -0.53635  -0.52482  -0.51702
 Alpha  occ. eigenvalues --   -0.50500  -0.48631  -0.48031  -0.47381  -0.47347
 Alpha  occ. eigenvalues --   -0.46748  -0.46132  -0.45941  -0.45752  -0.45181
 Alpha  occ. eigenvalues --   -0.44432  -0.43811  -0.43664  -0.42433  -0.42253
 Alpha  occ. eigenvalues --   -0.41091  -0.40460  -0.40168  -0.39911  -0.39047
 Alpha  occ. eigenvalues --   -0.38854  -0.38757  -0.38076  -0.37391  -0.35610
 Alpha  occ. eigenvalues --   -0.35577  -0.34470  -0.34355  -0.33199  -0.33152
 Alpha  occ. eigenvalues --   -0.32988  -0.32431  -0.31946  -0.30466  -0.28593
 Alpha  occ. eigenvalues --   -0.27402  -0.26230  -0.25693  -0.25379  -0.23810
 Alpha  occ. eigenvalues --   -0.23131  -0.20110
 Alpha virt. eigenvalues --   -0.06561  -0.04098  -0.02060  -0.00684  -0.00164
 Alpha virt. eigenvalues --    0.01443   0.03221   0.06209   0.07654   0.08282
 Alpha virt. eigenvalues --    0.08845   0.09163   0.09841   0.10480   0.12029

 Mulliken charges:
               1
     1  C   -0.217170
     2  O   -0.498266
     3  C    0.345344
     4  C   -0.215426
     5  C   -0.174132
     6  C    0.333738
     7  N   -0.761341
     8  C    0.526799
     9  C   -0.196886
    10  C    0.257588
    11  C    0.595999
    12  O   -0.515638
    13  N   -0.789511
    14  C    0.383948
    15  C   -0.167897
    16  C   -0.131929
    17  C   -0.132334
    18  C   -0.152745
    19  C    0.086458
    20  C    0.241305
    21  N   -0.496065
    22  N   -0.568128
    23  C    0.448357
    24  C   -0.510870
    25  N   -0.530581
    26  C   -0.256255
    27  C    0.340622
    28  O   -0.496962
    29  C   -0.216700
    30  H    0.173338
    31  H    0.154204
    32  H    0.152076
    33  H    0.141725
    34  H    0.147741
    35  H    0.338268
    36  H    0.184720
    37  H    0.389405
    38  H    0.197196
    39  H    0.144789
    40  H    0.141163
    41  H    0.157772
    42  H    0.171128
    43  H    0.185483
    44  H    0.172195
    45  H    0.136425
    46  H    0.175377
    47  H    0.154668
    48  H    0.151006
 Sum of Mulliken charges =  -0.00000

 Dipole moment (field-independent basis, Debye):
    X=             -3.6846    Y=             -1.9232    Z=              0.1323  Tot=              4.1584
 Quadrupole moment (field-independent basis, Debye-Ang):
   XX=           -151.7691   YY=           -154.7632   ZZ=           -162.5002
   XY=            -22.8966   XZ=              0.6253   YZ=              7.3135

 Normal termination of Gaussian 16 at Fri Nov  4 19:45:21 2022.
