 Gaussian 16, Revision B.01,
 Gaussian 16:  ES64L-G16RevB.01 20-Dec-2017

 -----------------------------
 #p b3lyp/6-31g(d) opt SCF=XQC
 -----------------------------

 ------------------------------
 Gaussian input prepared by ASE
 ------------------------------
 Symbolic Z-matrix:
 Charge =  0 Multiplicity = 1

 SCF Done:  E(RB3LYP) =  -952.980120909     A.U. after   14 cycles
 SCF Done:  E(RB3LYP) =  -952.983761803     A.U. after   12 cycles
 SCF Done:  E(RB3LYP) =  -952.984088482     A.U. after   12 cycles
 SCF Done:  E(RB3LYP) =  -952.984158845     A.U. after   12 cycles
 SCF Done:  E(RB3LYP) =  -952.984398412     A.U. after   12 cycles
 SCF Done:  E(RB3LYP) =  -952.984481471     A.U. after   11 cycles
 SCF Done:  E(RB3LYP) =  -952.984550067     A.U. after   12 cycles
 SCF Done:  E(RB3LYP) =  -952.984567410     A.U. after   10 cycles
 SCF Done:  E(RB3LYP) =  -952.984591562     A.U. after   11 cycles
 SCF Done:  E(RB3LYP) =  -952.984594984     A.U. after    9 cycles
 SCF Done:  E(RB3LYP) =  -952.984595672     A.U. after    8 cycles
 SCF Done:  E(RB3LYP) =  -952.984596029     A.U. after    8 cycles
 SCF Done:  E(RB3LYP) =  -952.984596067     A.U. after    7 cycles
 Optimization completed.
    -- Stationary point found.

                         Standard orientation:
 ---------------------------------------------------------------------
 Center     Atomic      Atomic             Coordinates (Angstroms)
 Number     Number       Type             X           Y           Z
 ---------------------------------------------------------------------
      1          6           0       -0.388450    2.852947    0.908445
      2          6           0       -0.725251    1.489976    0.349468
      3          6           0       -2.050484    1.046540    0.390518
      4          6           0       -2.427481   -0.189294   -0.139224
      5          6           0       -3.858169   -0.645182   -0.027982
      6          9           0       -4.723486    0.391668   -0.067249
      7          9           0       -4.081048   -1.298172    1.137307
      8          9           0       -4.194662   -1.494170   -1.023865
      9          6           0       -1.472066   -1.023108   -0.718525
     10          6           0       -0.142820   -0.611287   -0.742546
     11          6           0        0.245668    0.630321   -0.217317
     12          6           0        1.678548    1.072145   -0.357808
     13          8           0        1.935303    2.222477   -0.693322
     14          6           0        2.789556    0.098321   -0.100327
     15          6           0        4.052772    0.388665   -0.641980
     16          6           0        5.133295   -0.453803   -0.402065
     17          6           0        4.971461   -1.587449    0.401003
     18          6           0        3.725533   -1.873789    0.961148
     19          6           0        2.636810   -1.038831    0.708439
     20          1           0       -0.174120    3.562618    0.103889
     21          1           0        0.502945    2.827938    1.542902
     22          1           0       -1.223438    3.238242    1.501542
     23          1           0       -2.808021    1.686276    0.832771
     24          1           0       -1.762143   -1.976840   -1.145904
     25          1           0        0.605269   -1.254322   -1.195342
     26          1           0        4.161525    1.282586   -1.247467
     27          1           0        6.103808   -0.227788   -0.835209
     28          1           0        5.816850   -2.242874    0.592868
     29          1           0        3.600619   -2.745880    1.596988
     30          1           0        1.673528   -1.260739    1.156305
 ---------------------------------------------------------------------

 The electronic state is 1-A.
 Alpha  occ. eigenvalues --  -24.72605 -24.72568 -24.71997 -19.14375 -10.43414
 Alpha  occ. eigenvalues --  -10.28434 -10.22274 -10.22100 -10.21485 -10.21271
 Alpha  occ. eigenvalues --  -10.21166 -10.20915 -10.20898 -10.20848 -10.20844
 Alpha  occ. eigenvalues --  -10.20505 -10.20382 -10.20304 -10.18600  -1.30143
 Alpha  occ. eigenvalues --   -1.21621  -1.21122  -1.04313  -0.88301  -0.86768
 Alpha  occ. eigenvalues --   -0.80395  -0.78612  -0.76595  -0.75858  -0.70877
 Alpha  occ. eigenvalues --   -0.70090  -0.65190  -0.62914  -0.62008  -0.61023
 Alpha  occ. eigenvalues --   -0.57957  -0.57764  -0.56817  -0.55361  -0.53230
 Alpha  occ. eigenvalues --   -0.49462  -0.48471  -0.46458  -0.46202  -0.45509
 Alpha  occ. eigenvalues --   -0.45350  -0.45132  -0.44226  -0.43456  -0.42827
 Alpha  occ. eigenvalues --   -0.42603  -0.41923  -0.41319  -0.41165  -0.39900
 Alpha  occ. eigenvalues --   -0.39764  -0.39121  -0.37324  -0.37079  -0.36428
 Alpha  occ. eigenvalues --   -0.36181  -0.35507  -0.35253  -0.27352  -0.26710
 Alpha  occ. eigenvalues --   -0.26486  -0.26121  -0.25290
 Alpha virt. eigenvalues --   -0.07303  -0.03029  -0.02070  -0.01055   0.04073
 Alpha virt. eigenvalues --    0.08724   0.10018   0.11495   0.11988   0.13335
 Alpha virt. eigenvalues --    0.13645   0.14581   0.15139   0.16083   0.17315

 Mulliken charges:
               1
     1  C   -0.515605
     2  C    0.144183
     3  C   -0.230198
     4  C    0.010756
     5  C    0.785251
     6  F   -0.268116
     7  F   -0.260963
     8  F   -0.269728
     9  C   -0.171348
    10  C   -0.180598
    11  C    0.036087
    12  C    0.319638
    13  O   -0.461624
    14  C    0.069152
    15  C   -0.152233
    16  C   -0.134156
    17  C   -0.118304
    18  C   -0.135429
    19  C   -0.177188
    20  H    0.194016
    21  H    0.166969
    22  H    0.149832
    23  H    0.152145
    24  H    0.156940
    25  H    0.155791
    26  H    0.163171
    27  H    0.140843
    28  H    0.140289
    29  H    0.139655
    30  H    0.150772
 Sum of Mulliken charges =  -0.00000

 Dipole moment (field-independent basis, Debye):
    X=              2.4595    Y=             -1.6702    Z=              0.7289  Tot=              3.0610
 Quadrupole moment (field-independent basis, Debye-Ang):
   XX=           -105.2176   YY=           -105.0913   ZZ=           -106.2311
   XY=            -10.5710   XZ=              0.0027   YZ=              2.2533

 Normal termination of Gaussian 16 at Fri Nov  4 19:25:49 2022.
