 Gaussian 16, Revision B.01,
 Gaussian 16:  ES64L-G16RevB.01 20-Dec-2017

 -------------------------------------------------------------------
 #p b3lyp/6-31g(d) 6D 10F nosymm GFInput td=(50-50,nstate=2) SCF=XQC
 -------------------------------------------------------------------

 ------------------------------
 Gaussian input prepared by ASE
 ------------------------------
 Symbolic Z-matrix:
 Charge =  0 Multiplicity = 1

                          Input orientation:
 ---------------------------------------------------------------------
 Center     Atomic      Atomic             Coordinates (Angstroms)
 Number     Number       Type             X           Y           Z
 ---------------------------------------------------------------------
      1          6           0       -1.012668   -1.545398    2.241122
      2          6           0       -1.369921   -0.669926    1.062352
      3          6           0       -2.690535   -0.652201    0.603845
      4          6           0       -3.087034    0.160667   -0.460144
      5          6           0       -4.509796    0.109321   -0.950235
      6          9           0       -5.379322   -0.156077    0.049196
      7          9           0       -4.677899   -0.857511   -1.883480
      8          9           0       -4.888055    1.274589   -1.520201
      9          6           0       -2.155997    0.974970   -1.103365
     10          6           0       -0.830507    0.949097   -0.679722
     11          6           0       -0.422750    0.139593    0.391174
     12          6           0        1.000930    0.222886    0.875207
     13          8           0        1.238633    0.262251    2.076749
     14          6           0        2.125517    0.271894   -0.115687
     15          6           0        3.362133    0.774180    0.322368
     16          6           0        4.455055    0.805101   -0.537520
     17          6           0        4.333168    0.314080   -1.841478
     18          6           0        3.114643   -0.206350   -2.280152
     19          6           0        2.012977   -0.223338   -1.424361
     20          1           0       -0.837048   -0.941778    3.136488
     21          1           0       -0.093542   -2.113491    2.067275
     22          1           0       -1.821343   -2.252654    2.449107
     23          1           0       -3.429442   -1.275880    1.097558
     24          1           0       -2.461961    1.620243   -1.919706
     25          1           0       -0.101502    1.583400   -1.174058
     26          1           0        3.440655    1.133759    1.343188
     27          1           0        5.404356    1.206656   -0.193761
     28          1           0        5.188433    0.333303   -2.511724
     29          1           0        3.021274   -0.601534   -3.287898
     30          1           0        1.071549   -0.639855   -1.767821
 ---------------------------------------------------------------------

 SCF Done:  E(RB3LYP) =  -952.984595986     A.U. after   15 cycles

 Excitation energies and oscillator strengths:

 Excited state symmetry could not be determined.
 Excited State   1:      Triplet-?Sym    2.9336 eV  422.64 nm  f=0.0000  <S**2>=2.000
      68 -> 69         0.66933
      68 -> 73         0.10235
 This state for optimization and/or second-order correction.
 Total Energy, E(TD-HF/TD-DFT) =  -952.876789997
 Copying the excited state density for this state as the 1-particle RhoCI density.

 Excited state symmetry could not be determined.
 Excited State   2:      Triplet-?Sym    3.3585 eV  369.16 nm  f=0.0000  <S**2>=2.000
      64 -> 69         0.16568
      65 -> 69         0.54191
      65 -> 70         0.19709
      66 -> 69         0.19800
      66 -> 71         0.13604
      66 -> 72         0.17390

 Excited state symmetry could not be determined.
 Excited State   3:      Singlet-?Sym    3.5404 eV  350.19 nm  f=0.0011  <S**2>=0.000
      64 -> 69        -0.12495
      65 -> 69        -0.23475
      66 -> 69        -0.11739
      68 -> 69         0.62468

 Excited state symmetry could not be determined.
 Excited State   4:      Singlet-?Sym    4.4262 eV  280.11 nm  f=0.0482  <S**2>=0.000
      64 -> 71         0.10874
      67 -> 69         0.66814
      68 -> 69         0.13216

 Alpha  occ. eigenvalues --  -24.72605 -24.72568 -24.71998 -19.14375 -10.43414
 Alpha  occ. eigenvalues --  -10.28434 -10.22274 -10.22100 -10.21485 -10.21271
 Alpha  occ. eigenvalues --  -10.21166 -10.20915 -10.20898 -10.20848 -10.20844
 Alpha  occ. eigenvalues --  -10.20505 -10.20382 -10.20304 -10.18600  -1.30143
 Alpha  occ. eigenvalues --   -1.21621  -1.21122  -1.04312  -0.88301  -0.86768
 Alpha  occ. eigenvalues --   -0.80395  -0.78612  -0.76595  -0.75858  -0.70877
 Alpha  occ. eigenvalues --   -0.70090  -0.65190  -0.62914  -0.62008  -0.61023
 Alpha  occ. eigenvalues --   -0.57957  -0.57764  -0.56817  -0.55361  -0.53230
 Alpha  occ. eigenvalues --   -0.49462  -0.48471  -0.46458  -0.46202  -0.45509
 Alpha  occ. eigenvalues --   -0.45350  -0.45132  -0.44226  -0.43456  -0.42827
 Alpha  occ. eigenvalues --   -0.42603  -0.41923  -0.41319  -0.41165  -0.39900
 Alpha  occ. eigenvalues --   -0.39764  -0.39121  -0.37324  -0.37079  -0.36428
 Alpha  occ. eigenvalues --   -0.36181  -0.35507  -0.35253  -0.27352  -0.26710
 Alpha  occ. eigenvalues --   -0.26486  -0.26121  -0.25290
 Alpha virt. eigenvalues --   -0.07303  -0.03029  -0.02070  -0.01055   0.04073
 Alpha virt. eigenvalues --    0.08724   0.10018   0.11495   0.11988   0.13335
 Alpha virt. eigenvalues --    0.13645   0.14581   0.15139   0.16083   0.17315

 Mulliken charges:
               1
     1  C   -0.515603
     2  C    0.144182
     3  C   -0.230195
     4  C    0.010736
     5  C    0.785263
     6  F   -0.268113
     7  F   -0.260967
     8  F   -0.269729
     9  C   -0.171334
    10  C   -0.180603
    11  C    0.036083
    12  C    0.319639
    13  O   -0.461628
    14  C    0.069161
    15  C   -0.152227
    16  C   -0.134160
    17  C   -0.118300
    18  C   -0.135434
    19  C   -0.177194
    20  H    0.194017
    21  H    0.166970
    22  H    0.149833
    23  H    0.152143
    24  H    0.156938
    25  H    0.155792
    26  H    0.163169
    27  H    0.140843
    28  H    0.140289
    29  H    0.139654
    30  H    0.150775
 Sum of Mulliken charges =  -0.00000

 Dipole moment (field-independent basis, Debye):
    X=              2.4951    Y=             -0.1697    Z=             -1.7650  Tot=              3.0610
 Quadrupole moment (field-independent basis, Debye-Ang):
   XX=           -108.4279   YY=           -104.8322   ZZ=           -105.6041
   XY=              3.0511   XZ=             -9.6282   YZ=             -2.7290

 Normal termination of Gaussian 16 at Sat Nov  5 12:07:19 2022.
