 Gaussian 16, Revision B.01,
 Gaussian 16:  ES64L-G16RevB.01 20-Dec-2017

 -------------------------------------------------------------------
 #p b3lyp/6-31g(d) 6D 10F nosymm GFInput td=(50-50,nstate=2) SCF=XQC
 -------------------------------------------------------------------

 ------------------------------
 Gaussian input prepared by ASE
 ------------------------------
 Symbolic Z-matrix:
 Charge =  0 Multiplicity = 1

                          Input orientation:
 ---------------------------------------------------------------------
 Center     Atomic      Atomic             Coordinates (Angstroms)
 Number     Number       Type             X           Y           Z
 ---------------------------------------------------------------------
      1          6           0        1.207326   -2.679977   -0.128625
      2          6           0        1.994760   -1.395707   -0.049795
      3          6           0        3.395535   -1.437526   -0.050253
      4          7           0        4.197706   -0.379408    0.018082
      5          6           0        3.565430    0.809643    0.095887
      6          7           0        4.358624    1.919940    0.223576
      7          7           0        2.242357    1.000780    0.090667
      8          6           0        1.458098   -0.091707    0.020445
      9          6           0        0.030252    0.226100    0.024035
     10          6           0       -0.593161    1.440860    0.104331
     11          6           0       -2.002675    1.183929    0.066062
     12          6           0       -3.166763    1.970729    0.107774
     13          6           0       -4.377953    1.304102    0.042237
     14          9           0       -5.520894    2.025889    0.079319
     15          6           0       -4.490798   -0.091248   -0.061552
     16          6           0       -3.344216   -0.880804   -0.103526
     17          6           0       -2.125007   -0.216643   -0.038129
     18          8           0       -0.889188   -0.800638   -0.063714
     19          1           0        0.551123   -2.815186    0.737343
     20          1           0        1.894590   -3.531906   -0.167877
     21          1           0        0.568754   -2.719575   -1.017100
     22          1           0        3.894522   -2.405310   -0.113660
     23          1           0        5.328756    1.806338   -0.031628
     24          1           0        3.927370    2.809164    0.018371
     25          1           0       -0.085794    2.390096    0.182405
     26          1           0       -3.140109    3.052024    0.187612
     27          1           0       -5.480372   -0.532750   -0.107438
     28          1           0       -3.398272   -1.961210   -0.183238
 ---------------------------------------------------------------------

 SCF Done:  E(RB3LYP) =  -840.734251041     A.U. after   15 cycles

 Excitation energies and oscillator strengths:

 Excited state symmetry could not be determined.
 Excited State   1:      Triplet-?Sym    2.5476 eV  486.66 nm  f=0.0000  <S**2>=2.000
      62 -> 64        -0.21687
      63 -> 64         0.64605
 This state for optimization and/or second-order correction.
 Total Energy, E(TD-HF/TD-DFT) =  -840.640627298
 Copying the excited state density for this state as the 1-particle RhoCI density.

 Excited state symmetry could not be determined.
 Excited State   2:      Triplet-?Sym    3.1337 eV  395.65 nm  f=0.0000  <S**2>=2.000
      62 -> 64         0.62669
      63 -> 64         0.23644
      63 -> 65        -0.14680

 Excited state symmetry could not be determined.
 Excited State   3:      Singlet-?Sym    3.7419 eV  331.34 nm  f=0.3155  <S**2>=0.000
      62 -> 64         0.22256
      63 -> 64         0.66191

 Excited state symmetry could not be determined.
 Excited State   4:      Singlet-?Sym    3.8897 eV  318.75 nm  f=0.0028  <S**2>=0.000
      60 -> 64         0.69379
      60 -> 65        -0.12053

 Alpha  occ. eigenvalues --  -24.70179 -19.22024 -14.34765 -14.32701 -14.32635
 Alpha  occ. eigenvalues --  -10.28572 -10.27335 -10.25661 -10.25173 -10.24923
 Alpha  occ. eigenvalues --  -10.23125 -10.20936 -10.20849 -10.20354 -10.20272
 Alpha  occ. eigenvalues --  -10.20190 -10.19747 -10.18671  -1.21301  -1.11624
 Alpha  occ. eigenvalues --   -0.99700  -0.90307  -0.88799  -0.86784  -0.80978
 Alpha  occ. eigenvalues --   -0.79850  -0.75575  -0.74924  -0.69698  -0.67443
 Alpha  occ. eigenvalues --   -0.63150  -0.62584  -0.60741  -0.59094  -0.54978
 Alpha  occ. eigenvalues --   -0.54498  -0.52760  -0.52057  -0.48666  -0.47454
 Alpha  occ. eigenvalues --   -0.47098  -0.45824  -0.45412  -0.45187  -0.43822
 Alpha  occ. eigenvalues --   -0.43447  -0.41774  -0.41486  -0.41007  -0.40856
 Alpha  occ. eigenvalues --   -0.40173  -0.38783  -0.37231  -0.35192  -0.34637
 Alpha  occ. eigenvalues --   -0.33006  -0.31499  -0.30802  -0.29478  -0.24764
 Alpha  occ. eigenvalues --   -0.23784  -0.23239  -0.21531
 Alpha virt. eigenvalues --   -0.06451  -0.00949   0.00479   0.01754   0.06952
 Alpha virt. eigenvalues --    0.09033   0.09227   0.11118   0.11764   0.13309
 Alpha virt. eigenvalues --    0.14311   0.14339   0.15451   0.16130   0.16761

 Mulliken charges:
               1
     1  C   -0.516841
     2  C    0.112876
     3  C    0.010643
     4  N   -0.459813
     5  C    0.621210
     6  N   -0.760608
     7  N   -0.556865
     8  C    0.228704
     9  C    0.287118
    10  C   -0.207388
    11  C    0.112116
    12  C   -0.282453
    13  C    0.384247
    14  F   -0.302321
    15  C   -0.213927
    16  C   -0.185223
    17  C    0.344158
    18  O   -0.541328
    19  H    0.170349
    20  H    0.149958
    21  H    0.170028
    22  H    0.140065
    23  H    0.339769
    24  H    0.336542
    25  H    0.163654
    26  H    0.151353
    27  H    0.150447
    28  H    0.153529
 Sum of Mulliken charges =  -0.00000

 Dipole moment (field-independent basis, Debye):
    X=              0.6614    Y=             -0.2766    Z=             -0.8054  Tot=              1.0783
 Quadrupole moment (field-independent basis, Debye-Ang):
   XX=           -102.7787   YY=            -88.9436   ZZ=           -104.1125
   XY=             11.0555   XZ=             -3.1717   YZ=             -0.9743

 Normal termination of Gaussian 16 at Sat Nov  5 11:53:54 2022.
