 Gaussian 16, Revision B.01,
 Gaussian 16:  ES64L-G16RevB.01 20-Dec-2017

 -----------------------------
 #p b3lyp/6-31g(d) opt SCF=XQC
 -----------------------------

 ------------------------------
 Gaussian input prepared by ASE
 ------------------------------
 Symbolic Z-matrix:
 Charge =  0 Multiplicity = 1

 SCF Done:  E(RB3LYP) =  -840.730691098     A.U. after   14 cycles
 SCF Done:  E(RB3LYP) =  -840.733811665     A.U. after   12 cycles
 SCF Done:  E(RB3LYP) =  -840.734095912     A.U. after   11 cycles
 SCF Done:  E(RB3LYP) =  -840.734172215     A.U. after   11 cycles
 SCF Done:  E(RB3LYP) =  -840.734206441     A.U. after   10 cycles
 SCF Done:  E(RB3LYP) =  -840.734228024     A.U. after   10 cycles
 SCF Done:  E(RB3LYP) =  -840.734244906     A.U. after    9 cycles
 SCF Done:  E(RB3LYP) =  -840.734250176     A.U. after    9 cycles
 SCF Done:  E(RB3LYP) =  -840.734250393     A.U. after    7 cycles
 Optimization completed.
    -- Stationary point found.

                         Standard orientation:
 ---------------------------------------------------------------------
 Center     Atomic      Atomic             Coordinates (Angstroms)
 Number     Number       Type             X           Y           Z
 ---------------------------------------------------------------------
      1          6           0       -1.804229    2.676258    0.019484
      2          6           0       -2.411737    1.295516    0.009467
      3          6           0       -3.805381    1.148858   -0.003380
      4          7           0       -4.457919   -0.009551   -0.009896
      5          6           0       -3.671469   -1.105481    0.000221
      6          7           0       -4.308218   -2.318047    0.049776
      7          7           0       -2.334700   -1.116558   -0.002760
      8          6           0       -1.704534    0.073554    0.003828
      9          6           0       -0.246909   -0.049282    0.002845
     10          6           0        0.534216   -1.171984    0.013748
     11          6           0        1.896378   -0.726259    0.006710
     12          6           0        3.155713   -1.350716    0.011639
     13          6           0        4.266253   -0.524730    0.000865
     14          9           0        5.495890   -1.087440    0.005011
     15          6           0        4.190415    0.876885   -0.014312
     16          6           0        2.948056    1.506434   -0.019144
     17          6           0        1.829238    0.681820   -0.008441
     18          8           0        0.526098    1.095068   -0.010718
     19          1           0       -1.174117    2.843189    0.899187
     20          1           0       -2.599858    3.428977    0.026185
     21          1           0       -1.174847    2.857436   -0.857890
     22          1           0       -4.429995    2.042953   -0.011529
     23          1           0       -5.284246   -2.319765   -0.208208
     24          1           0       -3.760705   -3.126524   -0.205965
     25          1           0        0.159113   -2.183760    0.026913
     26          1           0        3.274722   -2.428668    0.023462
     27          1           0        5.111627    1.449245   -0.021917
     28          1           0        2.856319    2.587177   -0.030603
 ---------------------------------------------------------------------

 The electronic state is 1-A.
 Alpha  occ. eigenvalues --  -24.70179 -19.22024 -14.34765 -14.32701 -14.32635
 Alpha  occ. eigenvalues --  -10.28572 -10.27335 -10.25661 -10.25173 -10.24923
 Alpha  occ. eigenvalues --  -10.23125 -10.20936 -10.20849 -10.20354 -10.20272
 Alpha  occ. eigenvalues --  -10.20190 -10.19747 -10.18671  -1.21301  -1.11624
 Alpha  occ. eigenvalues --   -0.99700  -0.90307  -0.88799  -0.86784  -0.80978
 Alpha  occ. eigenvalues --   -0.79850  -0.75575  -0.74924  -0.69698  -0.67443
 Alpha  occ. eigenvalues --   -0.63150  -0.62584  -0.60741  -0.59094  -0.54978
 Alpha  occ. eigenvalues --   -0.54498  -0.52760  -0.52057  -0.48666  -0.47454
 Alpha  occ. eigenvalues --   -0.47098  -0.45824  -0.45412  -0.45187  -0.43822
 Alpha  occ. eigenvalues --   -0.43447  -0.41774  -0.41486  -0.41007  -0.40856
 Alpha  occ. eigenvalues --   -0.40173  -0.38783  -0.37231  -0.35192  -0.34637
 Alpha  occ. eigenvalues --   -0.33006  -0.31499  -0.30802  -0.29478  -0.24764
 Alpha  occ. eigenvalues --   -0.23784  -0.23239  -0.21531
 Alpha virt. eigenvalues --   -0.06451  -0.00949   0.00479   0.01754   0.06952
 Alpha virt. eigenvalues --    0.09033   0.09227   0.11118   0.11764   0.13309
 Alpha virt. eigenvalues --    0.14311   0.14339   0.15451   0.16130   0.16761

 Mulliken charges:
               1
     1  C   -0.516837
     2  C    0.112875
     3  C    0.010655
     4  N   -0.459819
     5  C    0.621222
     6  N   -0.760609
     7  N   -0.556876
     8  C    0.228683
     9  C    0.287144
    10  C   -0.207395
    11  C    0.112122
    12  C   -0.282449
    13  C    0.384246
    14  F   -0.302320
    15  C   -0.213930
    16  C   -0.185222
    17  C    0.344148
    18  O   -0.541333
    19  H    0.170348
    20  H    0.149957
    21  H    0.170027
    22  H    0.140064
    23  H    0.339769
    24  H    0.336542
    25  H    0.163654
    26  H    0.151353
    27  H    0.150447
    28  H    0.153530
 Sum of Mulliken charges =  -0.00000

 Dipole moment (field-independent basis, Debye):
    X=             -0.6908    Y=              0.2358    Z=             -0.7936  Tot=              1.0783
 Quadrupole moment (field-independent basis, Debye-Ang):
   XX=           -105.1495   YY=            -86.4098   ZZ=           -103.8384
   XY=              8.4147   XZ=              3.7614   YZ=              2.3853

 Normal termination of Gaussian 16 at Fri Nov  4 19:22:07 2022.
