 Gaussian 16, Revision B.01,
 Gaussian 16:  ES64L-G16RevB.01 20-Dec-2017

 -------------------------------------------------------------------
 #p b3lyp/6-31g(d) 6D 10F nosymm GFInput td=(50-50,nstate=2) SCF=XQC
 -------------------------------------------------------------------

 ------------------------------
 Gaussian input prepared by ASE
 ------------------------------
 Symbolic Z-matrix:
 Charge =  0 Multiplicity = 1

                          Input orientation:
 ---------------------------------------------------------------------
 Center     Atomic      Atomic             Coordinates (Angstroms)
 Number     Number       Type             X           Y           Z
 ---------------------------------------------------------------------
      1          6           0        6.236271    0.997350    0.223614
      2          6           0        4.915081    0.304146   -0.016741
      3          6           0        4.695901   -0.457273   -1.171182
      4          6           0        3.486507   -1.119547   -1.376685
      5          6           0        2.449651   -1.040632   -0.439049
      6          6           0        1.136779   -1.754249   -0.679431
      7          6           0        0.103727   -0.945476   -1.519891
      8          6           0       -0.503981    0.249261   -0.837610
      9          7           0        0.102519    1.414182   -0.895507
     10          7           0       -0.661153    2.321140   -0.215522
     11          6           0       -1.726688    1.699883    0.240169
     12          6           0       -2.775102    2.515389    0.942692
     13          7           0       -3.967193    2.704322    0.092946
     14          7           0       -1.687793    0.352614   -0.107188
     15          6           0       -2.746434   -0.709121    0.055528
     16          6           0       -3.486684   -0.859116   -1.287506
     17          6           0       -2.110047   -2.040165    0.503134
     18          6           0       -3.768027   -0.326335    1.139941
     19          6           0        2.668147   -0.278656    0.714473
     20          6           0        3.877637    0.382244    0.920649
     21          1           0        6.913152    0.374515    0.824420
     22          1           0        6.749450    1.218892   -0.718260
     23          1           0        6.100815    1.940866    0.763647
     24          1           0        5.483124   -0.535415   -1.918264
     25          1           0        3.346690   -1.707200   -2.282403
     26          1           0        0.691340   -2.038062    0.279688
     27          1           0        1.330956   -2.688576   -1.222012
     28          1           0       -0.666477   -1.624544   -1.895113
     29          1           0        0.622286   -0.546353   -2.397125
     30          1           0       -2.259803    3.453089    1.191945
     31          1           0       -3.095673    2.061335    1.883450
     32          1           0       -4.627872    3.312545    0.576387
     33          1           0       -3.684770    3.204553   -0.749763
     34          1           0       -2.809081   -1.141931   -2.098766
     35          1           0       -3.971049    0.085761   -1.551851
     36          1           0       -4.258351   -1.632924   -1.205831
     37          1           0       -2.910802   -2.748121    0.740088
     38          1           0       -1.485838   -2.505246   -0.258833
     39          1           0       -1.509815   -1.897204    1.407824
     40          1           0       -4.468916   -1.160385    1.248237
     41          1           0       -3.285344   -0.175175    2.111430
     42          1           0       -4.338728    0.560050    0.859500
     43          1           0        1.879432   -0.193329    1.458128
     44          1           0        4.016155    0.972901    1.823773
 ---------------------------------------------------------------------

 SCF Done:  E(RB3LYP) =  -843.146887341     A.U. after   14 cycles

 Excitation energies and oscillator strengths:

 Excited state symmetry could not be determined.
 Excited State   1:      Triplet-?Sym    3.6790 eV  337.00 nm  f=0.0000  <S**2>=2.000
      71 -> 75         0.16729
      71 -> 76         0.24770
      72 -> 76         0.16619
      73 -> 75         0.11091
      73 -> 76         0.27458
      74 -> 75         0.48246
      74 -> 76        -0.13071
      74 -> 77         0.17595
 This state for optimization and/or second-order correction.
 Total Energy, E(TD-HF/TD-DFT) =  -843.011685448
 Copying the excited state density for this state as the 1-particle RhoCI density.

 Excited state symmetry could not be determined.
 Excited State   2:      Triplet-?Sym    4.5161 eV  274.54 nm  f=0.0000  <S**2>=2.000
      69 -> 78         0.10931
      71 -> 75         0.16338
      71 -> 76        -0.13703
      71 -> 77        -0.40282
      72 -> 75        -0.10386
      72 -> 76         0.10949
      72 -> 77         0.24749
      73 -> 75        -0.13765
      73 -> 76         0.14517
      73 -> 77         0.30826
      74 -> 77         0.14894

 Excited state symmetry could not be determined.
 Excited State   3:      Singlet-?Sym    5.4627 eV  226.97 nm  f=0.0016  <S**2>=0.000
      71 -> 75        -0.27195
      72 -> 75        -0.12898
      73 -> 75        -0.33233
      73 -> 76         0.17895
      74 -> 75         0.17743
      74 -> 76         0.47232
      74 -> 77        -0.11198

 Excited state symmetry could not be determined.
 Excited State   4:      Singlet-?Sym    5.8634 eV  211.46 nm  f=0.0308  <S**2>=0.000
      71 -> 75         0.11472
      72 -> 75         0.34712
      72 -> 76        -0.21128
      73 -> 75        -0.25150
      73 -> 76         0.15287
      74 -> 75         0.26333
      74 -> 76        -0.24683
      74 -> 77        -0.32399

 Alpha  occ. eigenvalues --  -14.39018 -14.32623 -14.32033 -14.31709 -10.25564
 Alpha  occ. eigenvalues --  -10.23504 -10.23479 -10.22156 -10.19737 -10.19015
 Alpha  occ. eigenvalues --  -10.19005 -10.18567 -10.18274 -10.18184 -10.18096
 Alpha  occ. eigenvalues --  -10.17480 -10.17365 -10.17346 -10.17331 -10.17204
 Alpha  occ. eigenvalues --   -1.03816  -0.91046  -0.89084  -0.84495  -0.81513
 Alpha  occ. eigenvalues --   -0.80460  -0.77889  -0.74022  -0.72820  -0.70349
 Alpha  occ. eigenvalues --   -0.70027  -0.69012  -0.66837  -0.62851  -0.61600
 Alpha  occ. eigenvalues --   -0.59368  -0.57786  -0.56104  -0.54429  -0.50349
 Alpha  occ. eigenvalues --   -0.49099  -0.48147  -0.47124  -0.46547  -0.45150
 Alpha  occ. eigenvalues --   -0.44703  -0.44244  -0.44056  -0.42653  -0.42391
 Alpha  occ. eigenvalues --   -0.41286  -0.40750  -0.40688  -0.40315  -0.39742
 Alpha  occ. eigenvalues --   -0.39370  -0.38559  -0.37798  -0.37623  -0.37539
 Alpha  occ. eigenvalues --   -0.36217  -0.35215  -0.35074  -0.33951  -0.33063
 Alpha  occ. eigenvalues --   -0.32257  -0.32114  -0.28671  -0.27269  -0.24886
 Alpha  occ. eigenvalues --   -0.23677  -0.23420  -0.23062  -0.21915
 Alpha virt. eigenvalues --    0.01077   0.01369   0.02155   0.05333   0.07364
 Alpha virt. eigenvalues --    0.09130   0.09565   0.10414   0.11073   0.11509
 Alpha virt. eigenvalues --    0.12715   0.13401   0.13983   0.14731   0.14881

 Mulliken charges:
               1
     1  C   -0.529991
     2  C    0.179530
     3  C   -0.177425
     4  C   -0.179142
     5  C    0.186828
     6  C   -0.357819
     7  C   -0.346596
     8  C    0.483431
     9  N   -0.342602
    10  N   -0.348615
    11  C    0.482619
    12  C   -0.229753
    13  N   -0.718885
    14  N   -0.518319
    15  C    0.197014
    16  C   -0.447850
    17  C   -0.457000
    18  C   -0.489009
    19  C   -0.159191
    20  C   -0.175839
    21  H    0.160179
    22  H    0.154358
    23  H    0.158101
    24  H    0.116394
    25  H    0.114353
    26  H    0.147532
    27  H    0.142498
    28  H    0.144737
    29  H    0.184346
    30  H    0.169523
    31  H    0.152953
    32  H    0.303139
    33  H    0.312376
    34  H    0.153650
    35  H    0.177131
    36  H    0.145836
    37  H    0.151311
    38  H    0.162257
    39  H    0.158555
    40  H    0.146441
    41  H    0.147878
    42  H    0.208530
    43  H    0.118069
    44  H    0.118468
 Sum of Mulliken charges =  -0.00000

 Dipole moment (field-independent basis, Debye):
    X=             -3.5314    Y=             -2.3499    Z=              1.1809  Tot=              4.4031
 Quadrupole moment (field-independent basis, Debye-Ang):
   XX=           -106.9615   YY=           -119.2465   ZZ=           -116.3679
   XY=             -4.7483   XZ=             -2.6192   YZ=              6.6151

 Normal termination of Gaussian 16 at Sat Nov  5 11:57:49 2022.
