 Gaussian 16, Revision B.01,
 Gaussian 16:  ES64L-G16RevB.01 20-Dec-2017

 -----------------------------
 #p b3lyp/6-31g(d) opt SCF=XQC
 -----------------------------

 ------------------------------
 Gaussian input prepared by ASE
 ------------------------------
 Symbolic Z-matrix:
 Charge =  0 Multiplicity = 1

 SCF Done:  E(RB3LYP) =  -843.137142760     A.U. after   14 cycles
 SCF Done:  E(RB3LYP) =  -843.143449237     A.U. after   14 cycles
 SCF Done:  E(RB3LYP) =  -843.140493995     A.U. after   12 cycles
 SCF Done:  E(RB3LYP) =  -843.145844261     A.U. after   13 cycles
 SCF Done:  E(RB3LYP) =  -843.146328088     A.U. after   12 cycles
 SCF Done:  E(RB3LYP) =  -843.146652665     A.U. after   11 cycles
 SCF Done:  E(RB3LYP) =  -843.146813527     A.U. after   11 cycles
 SCF Done:  E(RB3LYP) =  -843.146862687     A.U. after   10 cycles
 SCF Done:  E(RB3LYP) =  -843.146874639     A.U. after   10 cycles
 SCF Done:  E(RB3LYP) =  -843.146880947     A.U. after    9 cycles
 SCF Done:  E(RB3LYP) =  -843.146888976     A.U. after    6 cycles
 SCF Done:  E(RB3LYP) =  -843.146888987     A.U. after    6 cycles
 SCF Done:  E(RB3LYP) =  -843.146888998     A.U. after    6 cycles
 SCF Done:  E(RB3LYP) =  -843.146889012     A.U. after    6 cycles
 SCF Done:  E(RB3LYP) =  -843.146889029     A.U. after    6 cycles
 SCF Done:  E(RB3LYP) =  -843.146889053     A.U. after    6 cycles
 SCF Done:  E(RB3LYP) =  -843.146889085     A.U. after    7 cycles
 SCF Done:  E(RB3LYP) =  -843.146889120     A.U. after    7 cycles
 SCF Done:  E(RB3LYP) =  -843.146889146     A.U. after    6 cycles
 SCF Done:  E(RB3LYP) =  -843.146889159     A.U. after    6 cycles
 Optimization completed.
    -- Stationary point found.

                         Standard orientation:
 ---------------------------------------------------------------------
 Center     Atomic      Atomic             Coordinates (Angstroms)
 Number     Number       Type             X           Y           Z
 ---------------------------------------------------------------------
      1          6           0        5.944005    1.495000    0.314571
      2          6           0        4.702081    0.637998    0.230805
      3          6           0        4.609030   -0.414967   -0.687422
      4          6           0        3.473867   -1.222315   -0.742795
      5          6           0        2.387689   -1.003613    0.113267
      6          6           0        1.155817   -1.879425    0.035075
      7          6           0        0.100464   -1.421470   -1.015730
      8          6           0       -0.642815   -0.155435   -0.688768
      9          7           0       -0.137790    1.007661   -1.035746
     10          7           0       -1.011089    1.981456   -0.639235
     11          6           0       -2.040357    1.399413   -0.064070
     12          6           0       -3.190140    2.263504    0.370795
     13          7           0       -4.349330    2.108092   -0.529742
     14          7           0       -1.866778    0.018573   -0.042822
     15          6           0       -2.835954   -1.062135    0.366137
     16          6           0       -3.491006   -1.627440   -0.908831
     17          6           0       -2.109812   -2.162567    1.165377
     18          6           0       -3.940854   -0.511858    1.284026
     19          6           0        2.480058    0.049581    1.030443
     20          6           0        3.615401    0.855794    1.086830
     21          1           0        6.641029    1.118712    1.075901
     22          1           0        6.483254    1.512888   -0.638556
     23          1           0        5.699669    2.528657    0.583014
     24          1           0        5.437079   -0.607674   -1.366507
     25          1           0        3.431996   -2.035955   -1.464908
     26          1           0        0.688503   -1.946061    1.023028
     27          1           0        1.457906   -2.899201   -0.236703
     28          1           0       -0.587643   -2.246345   -1.218781
     29          1           0        0.626327   -1.215652   -1.953199
     30          1           0       -2.771724    3.279292    0.377494
     31          1           0       -3.517478    2.040694    1.389206
     32          1           0       -5.084166    2.753814   -0.241291
     33          1           0       -4.068953    2.397044   -1.466785
     34          1           0       -2.750948   -2.044128   -1.598728
     35          1           0       -4.041639   -0.835558   -1.425558
     36          1           0       -4.195590   -2.424685   -0.646374
     37          1           0       -2.856969   -2.859007    1.559439
     38          1           0       -1.409530   -2.746737    0.569657
     39          1           0       -1.571134   -1.731610    2.015836
     40          1           0       -4.571135   -1.353169    1.589895
     41          1           0       -3.523241   -0.067095    2.193645
     42          1           0       -4.571475    0.211245    0.764928
     43          1           0        1.650074    0.248155    1.704291
     44          1           0        3.655852    1.671520    1.805615
 ---------------------------------------------------------------------

 The electronic state is 1-A.
 Alpha  occ. eigenvalues --  -14.39018 -14.32623 -14.32033 -14.31709 -10.25564
 Alpha  occ. eigenvalues --  -10.23504 -10.23478 -10.22156 -10.19737 -10.19015
 Alpha  occ. eigenvalues --  -10.19005 -10.18567 -10.18275 -10.18184 -10.18096
 Alpha  occ. eigenvalues --  -10.17480 -10.17365 -10.17347 -10.17331 -10.17204
 Alpha  occ. eigenvalues --   -1.03816  -0.91046  -0.89084  -0.84495  -0.81513
 Alpha  occ. eigenvalues --   -0.80460  -0.77889  -0.74022  -0.72820  -0.70349
 Alpha  occ. eigenvalues --   -0.70027  -0.69012  -0.66837  -0.62851  -0.61600
 Alpha  occ. eigenvalues --   -0.59368  -0.57786  -0.56104  -0.54429  -0.50349
 Alpha  occ. eigenvalues --   -0.49099  -0.48147  -0.47124  -0.46547  -0.45150
 Alpha  occ. eigenvalues --   -0.44703  -0.44244  -0.44056  -0.42653  -0.42391
 Alpha  occ. eigenvalues --   -0.41286  -0.40750  -0.40688  -0.40315  -0.39742
 Alpha  occ. eigenvalues --   -0.39370  -0.38559  -0.37798  -0.37623  -0.37539
 Alpha  occ. eigenvalues --   -0.36217  -0.35215  -0.35074  -0.33951  -0.33063
 Alpha  occ. eigenvalues --   -0.32257  -0.32114  -0.28671  -0.27269  -0.24886
 Alpha  occ. eigenvalues --   -0.23677  -0.23420  -0.23062  -0.21915
 Alpha virt. eigenvalues --    0.01077   0.01369   0.02155   0.05333   0.07364
 Alpha virt. eigenvalues --    0.09130   0.09565   0.10413   0.11073   0.11509
 Alpha virt. eigenvalues --    0.12715   0.13401   0.13984   0.14731   0.14881

 Mulliken charges:
               1
     1  C   -0.529983
     2  C    0.179504
     3  C   -0.177424
     4  C   -0.179108
     5  C    0.186762
     6  C   -0.357813
     7  C   -0.346618
     8  C    0.483513
     9  N   -0.342643
    10  N   -0.348617
    11  C    0.482604
    12  C   -0.229733
    13  N   -0.718895
    14  N   -0.518317
    15  C    0.197019
    16  C   -0.447861
    17  C   -0.456998
    18  C   -0.489015
    19  C   -0.159179
    20  C   -0.175824
    21  H    0.160180
    22  H    0.154358
    23  H    0.158101
    24  H    0.116395
    25  H    0.114352
    26  H    0.147534
    27  H    0.142502
    28  H    0.144736
    29  H    0.184346
    30  H    0.169522
    31  H    0.152951
    32  H    0.303141
    33  H    0.312377
    34  H    0.153652
    35  H    0.177133
    36  H    0.145836
    37  H    0.151309
    38  H    0.162257
    39  H    0.158552
    40  H    0.146442
    41  H    0.147880
    42  H    0.208532
    43  H    0.118071
    44  H    0.118468
 Sum of Mulliken charges =  -0.00000

 Dipole moment (field-independent basis, Debye):
    X=             -3.3691    Y=             -2.2941    Z=              1.6653  Tot=              4.4031
 Quadrupole moment (field-independent basis, Debye-Ang):
   XX=           -104.8386   YY=           -116.0636   ZZ=           -119.3326
   XY=             -3.6808   XZ=             -2.4760   YZ=              5.4987

 1\1\GINC-NODE81\FOpt\RB3LYP\6-31G(d)\C16H24N4\WYKGROUP\04-Nov-2022\0\\
 #p b3lyp/6-31g(d) opt SCF=XQC\\Gaussian input prepared by ASE\\0,1\C,6
 .236270685,0.9973495882,0.2236143408\C,4.9150805055,0.3041464416,-0.01
 67411732\C,4.6959013057,-0.4572733867,-1.1711816391\C,3.4865065172,-1.
 1195465606,-1.3766846214\C,2.4496510791,-1.0406322132,-0.4390492855\C,
 1.1367785187,-1.7542493828,-0.6794305628\C,0.103726881,-0.9454759245,-
 1.5198907929\C,-0.5039813414,0.2492608769,-0.8376103326\N,0.1025187901
 ,1.4141820015,-0.8955072811\N,-0.6611529836,2.3211404491,-0.2155219747

 Normal termination of Gaussian 16 at Fri Nov  4 19:43:31 2022.
