 Gaussian 16, Revision B.01,
 Gaussian 16:  ES64L-G16RevB.01 20-Dec-2017

 -------------------------------------------------------------------
 #p b3lyp/6-31g(d) 6D 10F nosymm GFInput td=(50-50,nstate=2) SCF=XQC
 -------------------------------------------------------------------

 ------------------------------
 Gaussian input prepared by ASE
 ------------------------------
 Symbolic Z-matrix:
 Charge =  0 Multiplicity = 1

                          Input orientation:
 ---------------------------------------------------------------------
 Center     Atomic      Atomic             Coordinates (Angstroms)
 Number     Number       Type             X           Y           Z
 ---------------------------------------------------------------------
      1          6           0        7.978267    0.233687   -0.093962
      2          8           0        6.690870    0.770352    0.172073
      3          6           0        5.603901   -0.031121   -0.022306
      4          6           0        5.657606   -1.358052   -0.462350
      5          6           0        4.463736   -2.069841   -0.627092
      6          6           0        3.232876   -1.487407   -0.359215
      7          6           0        3.177042   -0.153477    0.086608
      8          6           0        1.869474    0.445095    0.368427
      9          7           0        0.704099   -0.112002    0.095855
     10          6           0       -0.238756    0.792690    0.531346
     11          6           0       -1.653457    0.717749    0.489160
     12          7           0       -2.205498   -0.416070   -0.067108
     13          6           0       -3.533364   -0.802558   -0.264514
     14          6           0       -3.755425   -2.046750   -0.885050
     15          6           0       -5.046974   -2.507213   -1.112593
     16          6           0       -6.149771   -1.743013   -0.731113
     17          6           0       -5.928325   -0.509084   -0.116317
     18          6           0       -7.104499    0.359070    0.243850
     19          9           0       -6.845724    1.161143    1.299772
     20          9           0       -7.462316    1.168477   -0.782839
     21          9           0       -8.197819   -0.376343    0.555151
     22          6           0       -4.639959   -0.028974    0.122527
     23          7           0       -2.397761    1.711870    0.972811
     24          6           0       -1.781741    2.793293    1.502924
     25          6           0       -0.410213    2.984004    1.598080
     26          6           0        0.362169    1.931597    1.085632
     27          7           0        1.712914    1.688465    0.966645
     28          6           0        4.365471    0.565161    0.247791
     29          1           0        8.197667   -0.626751    0.551605
     30          1           0        8.686072    1.035878    0.121657
     31          1           0        8.080025   -0.067318   -1.144782
     32          1           0        6.604770   -1.838474   -0.677842
     33          1           0        4.507293   -3.100086   -0.969653
     34          1           0        2.308287   -2.038702   -0.483795
     35          1           0       -1.504680   -1.072352   -0.390372
     36          1           0       -2.903605   -2.653209   -1.186149
     37          1           0       -5.193618   -3.472449   -1.589033
     38          1           0       -7.159761   -2.099508   -0.899550
     39          1           0       -4.478414    0.923512    0.606131
     40          1           0       -2.454643    3.561754    1.877250
     41          1           0        0.011134    3.881930    2.036600
     42          1           0        2.455055    2.281694    1.305486
     43          1           0        4.377595    1.603328    0.565847
 ---------------------------------------------------------------------

 SCF Done:  E(RB3LYP) =  -1364.94772529     A.U. after   14 cycles

 Excitation energies and oscillator strengths:

 Excited state symmetry could not be determined.
 Excited State   1:      Triplet-?Sym    2.6327 eV  470.94 nm  f=0.0000  <S**2>=2.000
      97 ->100        -0.13827
      98 ->100        -0.17212
      99 ->100         0.63407
 This state for optimization and/or second-order correction.
 Total Energy, E(TD-HF/TD-DFT) =  -1364.85097562
 Copying the excited state density for this state as the 1-particle RhoCI density.

 Excited state symmetry could not be determined.
 Excited State   2:      Triplet-?Sym    3.3022 eV  375.46 nm  f=0.0000  <S**2>=2.000
      94 ->101         0.14675
      97 ->100         0.14788
      97 ->103         0.10604
      98 ->100         0.37070
      99 ->101         0.39115
      99 ->102         0.10588
      99 ->103         0.22006

 Excited state symmetry could not be determined.
 Excited State   3:      Singlet-?Sym    3.4122 eV  363.36 nm  f=0.4791  <S**2>=0.000
      99 ->100         0.70410

 Excited state symmetry could not be determined.
 Excited State   4:      Singlet-?Sym    4.2703 eV  290.34 nm  f=0.1437  <S**2>=0.000
      98 ->100        -0.29516
      99 ->101         0.59718
      99 ->102        -0.15019

 Alpha  occ. eigenvalues --  -24.70801 -24.70774 -24.70182 -19.19142 -14.40339
 Alpha  occ. eigenvalues --  -14.37061 -14.33219 -14.31929 -10.41522 -10.27089
 Alpha  occ. eigenvalues --  -10.26618 -10.26303 -10.25289 -10.24071 -10.23771
 Alpha  occ. eigenvalues --  -10.22058 -10.21972 -10.21489 -10.20484 -10.20426
 Alpha  occ. eigenvalues --  -10.20218 -10.20125 -10.19497 -10.19483 -10.19357
 Alpha  occ. eigenvalues --  -10.19300 -10.18802 -10.18357  -1.28306  -1.19785
 Alpha  occ. eigenvalues --   -1.19283  -1.07743  -1.03164  -0.97527  -0.91532
 Alpha  occ. eigenvalues --   -0.89226  -0.86879  -0.85293  -0.80344  -0.77850
 Alpha  occ. eigenvalues --   -0.77025  -0.76589  -0.75475  -0.72486  -0.70836
 Alpha  occ. eigenvalues --   -0.68351  -0.66299  -0.65150  -0.63218  -0.61993
 Alpha  occ. eigenvalues --   -0.61137  -0.60900  -0.58972  -0.56909  -0.56197
 Alpha  occ. eigenvalues --   -0.56068  -0.55641  -0.53834  -0.51876  -0.50116
 Alpha  occ. eigenvalues --   -0.49751  -0.49367  -0.49046  -0.48082  -0.47733
 Alpha  occ. eigenvalues --   -0.46961  -0.46228  -0.44958  -0.44520  -0.44184
 Alpha  occ. eigenvalues --   -0.43866  -0.43291  -0.43240  -0.42366  -0.42333
 Alpha  occ. eigenvalues --   -0.41705  -0.40225  -0.39700  -0.39441  -0.39159
 Alpha  occ. eigenvalues --   -0.38906  -0.38021  -0.37879  -0.37678  -0.36971
 Alpha  occ. eigenvalues --   -0.36284  -0.34215  -0.34129  -0.34077  -0.32869
 Alpha  occ. eigenvalues --   -0.30686  -0.29287  -0.28349  -0.25582  -0.25558
 Alpha  occ. eigenvalues --   -0.25103  -0.24093  -0.22966  -0.19182
 Alpha virt. eigenvalues --   -0.05165  -0.01424  -0.00780  -0.00232   0.01018
 Alpha virt. eigenvalues --    0.03308   0.05295   0.06909   0.08741   0.09061
 Alpha virt. eigenvalues --    0.10171   0.11200   0.11781   0.12268   0.14092

 Mulliken charges:
               1
     1  C   -0.217993
     2  O   -0.510848
     3  C    0.383629
     4  C   -0.193428
     5  C   -0.141329
     6  C   -0.164138
     7  C    0.130182
     8  C    0.484484
     9  N   -0.604004
    10  C    0.153451
    11  C    0.555490
    12  N   -0.788166
    13  C    0.375352
    14  C   -0.195013
    15  C   -0.136343
    16  C   -0.167138
    17  C   -0.017302
    18  C    0.781651
    19  F   -0.269367
    20  F   -0.264291
    21  F   -0.275601
    22  C   -0.198153
    23  N   -0.550367
    24  C    0.031698
    25  C   -0.206617
    26  C    0.420352
    27  N   -0.786288
    28  C   -0.245240
    29  H    0.155470
    30  H    0.173781
    31  H    0.156033
    32  H    0.137600
    33  H    0.138859
    34  H    0.156994
    35  H    0.352999
    36  H    0.128462
    37  H    0.134790
    38  H    0.145167
    39  H    0.198994
    40  H    0.141893
    41  H    0.132185
    42  H    0.340560
    43  H    0.121547
 Sum of Mulliken charges =  -0.00000

 Dipole moment (field-independent basis, Debye):
    X=              8.9620    Y=             -0.8334    Z=             -0.1517  Tot=              9.0019
 Quadrupole moment (field-independent basis, Debye-Ang):
   XX=           -153.3141   YY=           -141.9099   ZZ=           -158.3616
   XY=              9.0479   XZ=              4.3912   YZ=              9.9717

 Normal termination of Gaussian 16 at Sat Nov  5 11:56:07 2022.
