 Gaussian 16, Revision B.01,
 Gaussian 16:  ES64L-G16RevB.01 20-Dec-2017

 -----------------------------
 #p b3lyp/6-31g(d) opt SCF=XQC
 -----------------------------

 ------------------------------
 Gaussian input prepared by ASE
 ------------------------------
 Symbolic Z-matrix:
 Charge =  0 Multiplicity = 1

 SCF Done:  E(RB3LYP) =  -1364.94277938     A.U. after   14 cycles
 SCF Done:  E(RB3LYP) =  -1364.94631149     A.U. after   12 cycles
 SCF Done:  E(RB3LYP) =  -1364.94758776     A.U. after   11 cycles
 SCF Done:  E(RB3LYP) =  -1364.94765410     A.U. after   11 cycles
 SCF Done:  E(RB3LYP) =  -1364.94766368     A.U. after    9 cycles
 SCF Done:  E(RB3LYP) =  -1364.94767233     A.U. after    9 cycles
 SCF Done:  E(RB3LYP) =  -1364.94768497     A.U. after   10 cycles
 SCF Done:  E(RB3LYP) =  -1364.94769642     A.U. after   10 cycles
 SCF Done:  E(RB3LYP) =  -1364.94771168     A.U. after   10 cycles
 SCF Done:  E(RB3LYP) =  -1364.94771420     A.U. after    9 cycles
 SCF Done:  E(RB3LYP) =  -1364.94772067     A.U. after   10 cycles
 SCF Done:  E(RB3LYP) =  -1364.94771214     A.U. after   10 cycles
 SCF Done:  E(RB3LYP) =  -1364.94771471     A.U. after   11 cycles
 SCF Done:  E(RB3LYP) =  -1364.94772161     A.U. after   10 cycles
 SCF Done:  E(RB3LYP) =  -1364.94772287     A.U. after    9 cycles
 SCF Done:  E(RB3LYP) =  -1364.94772227     A.U. after   10 cycles
 SCF Done:  E(RB3LYP) =  -1364.94772405     A.U. after   10 cycles
 SCF Done:  E(RB3LYP) =  -1364.94772453     A.U. after    9 cycles
 SCF Done:  E(RB3LYP) =  -1364.94772470     A.U. after    8 cycles
 SCF Done:  E(RB3LYP) =  -1364.94772474     A.U. after    7 cycles
 Optimization completed.
    -- Stationary point found.

                         Standard orientation:
 ---------------------------------------------------------------------
 Center     Atomic      Atomic             Coordinates (Angstroms)
 Number     Number       Type             X           Y           Z
 ---------------------------------------------------------------------
      1          6           0        8.807295    0.056068    0.248031
      2          8           0        7.521507   -0.546278    0.237744
      3          6           0        6.431753    0.259390    0.079702
      4          6           0        6.481067    1.648245   -0.081280
      5          6           0        5.284709    2.359803   -0.227984
      6          6           0        4.055637    1.715339   -0.220831
      7          6           0        4.004210    0.317693   -0.062129
      8          6           0        2.698467   -0.347497   -0.060539
      9          7           0        1.531439    0.269376   -0.044322
     10          6           0        0.591312   -0.737183   -0.054208
     11          6           0       -0.823588   -0.655337   -0.042599
     12          7           0       -1.379010    0.605794   -0.014612
     13          6           0       -2.708001    1.035826    0.005998
     14          6           0       -2.933756    2.425048    0.044534
     15          6           0       -4.226665    2.934964    0.061133
     16          6           0       -5.327181    2.078128    0.041514
     17          6           0       -5.102070    0.700629    0.003855
     18          6           0       -6.275506   -0.241668    0.047671
     19          9           0       -6.015680   -1.413610   -0.572248
     20          9           0       -6.628018   -0.543393    1.321233
     21          9           0       -7.372373    0.290763   -0.540963
     22          6           0       -3.812289    0.168125   -0.014692
     23          7           0       -1.564906   -1.762748   -0.059121
     24          6           0       -0.945662   -2.965163   -0.085723
     25          6           0        0.426420   -3.174437   -0.096368
     26          6           0        1.195642   -2.001956   -0.078423
     27          7           0        2.545646   -1.727602   -0.077856
     28          6           0        5.195162   -0.398588    0.090710
     29          1           0        9.021959    0.564458   -0.701024
     30          1           0        9.517849   -0.760255    0.388452
     31          1           0        8.909982    0.772554    1.073431
     32          1           0        7.426745    2.177340   -0.091896
     33          1           0        5.324858    3.438515   -0.352158
     34          1           0        3.129114    2.265183   -0.337191
     35          1           0       -0.680156    1.339119   -0.000836
     36          1           0       -2.083749    3.104266    0.058700
     37          1           0       -4.376184    4.010688    0.086435
     38          1           0       -6.338239    2.469621    0.047393
     39          1           0       -3.647934   -0.899021   -0.051919
     40          1           0       -1.616256   -3.821660   -0.098570
     41          1           0        0.850448   -4.172381   -0.116650
     42          1           0        3.289456   -2.406356   -0.137427
     43          1           0        5.210774   -1.473992    0.240248
 ---------------------------------------------------------------------

 The electronic state is 1-A.
 Alpha  occ. eigenvalues --  -24.70801 -24.70774 -24.70182 -19.19142 -14.40339
 Alpha  occ. eigenvalues --  -14.37061 -14.33219 -14.31929 -10.41522 -10.27089
 Alpha  occ. eigenvalues --  -10.26618 -10.26303 -10.25289 -10.24071 -10.23771
 Alpha  occ. eigenvalues --  -10.22058 -10.21972 -10.21489 -10.20484 -10.20426
 Alpha  occ. eigenvalues --  -10.20218 -10.20125 -10.19497 -10.19483 -10.19357
 Alpha  occ. eigenvalues --  -10.19300 -10.18802 -10.18357  -1.28306  -1.19785
 Alpha  occ. eigenvalues --   -1.19283  -1.07743  -1.03164  -0.97527  -0.91532
 Alpha  occ. eigenvalues --   -0.89226  -0.86879  -0.85293  -0.80344  -0.77850
 Alpha  occ. eigenvalues --   -0.77025  -0.76589  -0.75475  -0.72486  -0.70836
 Alpha  occ. eigenvalues --   -0.68351  -0.66299  -0.65150  -0.63218  -0.61993
 Alpha  occ. eigenvalues --   -0.61137  -0.60900  -0.58972  -0.56909  -0.56197
 Alpha  occ. eigenvalues --   -0.56068  -0.55641  -0.53834  -0.51876  -0.50116
 Alpha  occ. eigenvalues --   -0.49751  -0.49367  -0.49046  -0.48082  -0.47733
 Alpha  occ. eigenvalues --   -0.46961  -0.46228  -0.44958  -0.44520  -0.44184
 Alpha  occ. eigenvalues --   -0.43866  -0.43291  -0.43240  -0.42366  -0.42333
 Alpha  occ. eigenvalues --   -0.41705  -0.40225  -0.39700  -0.39441  -0.39159
 Alpha  occ. eigenvalues --   -0.38906  -0.38021  -0.37879  -0.37678  -0.36971
 Alpha  occ. eigenvalues --   -0.36284  -0.34215  -0.34129  -0.34077  -0.32869
 Alpha  occ. eigenvalues --   -0.30686  -0.29287  -0.28349  -0.25582  -0.25558
 Alpha  occ. eigenvalues --   -0.25103  -0.24093  -0.22966  -0.19182
 Alpha virt. eigenvalues --   -0.05165  -0.01424  -0.00780  -0.00232   0.01018
 Alpha virt. eigenvalues --    0.03308   0.05295   0.06909   0.08741   0.09061
 Alpha virt. eigenvalues --    0.10171   0.11200   0.11781   0.12268   0.14092

 Mulliken charges:
               1
     1  C   -0.217992
     2  O   -0.510849
     3  C    0.383632
     4  C   -0.193436
     5  C   -0.141329
     6  C   -0.164123
     7  C    0.130168
     8  C    0.484471
     9  N   -0.603997
    10  C    0.153446
    11  C    0.555506
    12  N   -0.788173
    13  C    0.375338
    14  C   -0.195005
    15  C   -0.136345
    16  C   -0.167141
    17  C   -0.017302
    18  C    0.781655
    19  F   -0.269366
    20  F   -0.264291
    21  F   -0.275601
    22  C   -0.198147
    23  N   -0.550375
    24  C    0.031704
    25  C   -0.206617
    26  C    0.420355
    27  N   -0.786293
    28  C   -0.245233
    29  H    0.155470
    30  H    0.173780
    31  H    0.156033
    32  H    0.137601
    33  H    0.138860
    34  H    0.156993
    35  H    0.353000
    36  H    0.128462
    37  H    0.134790
    38  H    0.145167
    39  H    0.198997
    40  H    0.141892
    41  H    0.132185
    42  H    0.340561
    43  H    0.121548
 Sum of Mulliken charges =  -0.00000

 Dipole moment (field-independent basis, Debye):
    X=              8.9588    Y=              0.8442    Z=             -0.2456  Tot=              9.0019
 Quadrupole moment (field-independent basis, Debye-Ang):
   XX=           -138.4241   YY=           -136.9169   ZZ=           -163.1058
   XY=             -7.5521   XZ=              0.4244   YZ=              0.1922

 Normal termination of Gaussian 16 at Fri Nov  4 19:55:57 2022.
