 Gaussian 16, Revision B.01,
 Gaussian 16:  ES64L-G16RevB.01 20-Dec-2017

 -------------------------------------------------------------------
 #p b3lyp/6-31g(d) 6D 10F nosymm GFInput td=(50-50,nstate=2) SCF=XQC
 -------------------------------------------------------------------

 ------------------------------
 Gaussian input prepared by ASE
 ------------------------------
 Symbolic Z-matrix:
 Charge =  0 Multiplicity = 1

                          Input orientation:
 ---------------------------------------------------------------------
 Center     Atomic      Atomic             Coordinates (Angstroms)
 Number     Number       Type             X           Y           Z
 ---------------------------------------------------------------------
      1          6           0        9.465894   -1.099815   -1.558038
      2          6           0        8.195435   -0.996874   -1.159407
      3          6           0        7.717628    0.223543   -0.473958
      4          8           0        8.372931    1.207878   -0.209548
      5          8           0        6.387455    0.091155   -0.165318
      6          6           0        5.780077    1.145657    0.479716
      7          6           0        4.489611    1.089753    0.812520
      8          8           0        3.729471   -0.031687    0.610014
      9          6           0        2.376160    0.118718    0.399970
     10          6           0        1.833048    1.273280   -0.216931
     11          6           0        0.476289    1.361867   -0.431749
     12          6           0       -0.385771    0.301925   -0.052525
     13          6           0       -1.786359    0.360969   -0.251294
     14          9           0       -2.300623    1.484217   -0.805289
     15          6           0       -2.622607   -0.677578    0.101476
     16          8           0       -3.989141   -0.651131   -0.037635
     17          6           0       -4.533169   -0.152921   -1.197399
     18          6           0       -5.817423    0.192501   -1.276942
     19          8           0       -6.631848    0.124398   -0.165598
     20          6           0       -7.942463    0.483697   -0.320328
     21          8           0       -8.419139    0.848340   -1.374202
     22          6           0       -8.704286    0.374940    0.942497
     23          6           0       -8.188854   -0.018782    2.110582
     24          6           0       -2.063477   -1.828513    0.710947
     25          6           0       -0.712171   -1.922846    0.937957
     26          6           0        0.166950   -0.870102    0.559516
     27          6           0        1.564364   -0.930511    0.776183
     28          1           0       10.166289   -0.287953   -1.384133
     29          1           0        9.833999   -1.987858   -2.062362
     30          1           0        7.468234   -1.787460   -1.316169
     31          1           0        6.408970    1.996529    0.704889
     32          1           0        4.013721    1.920042    1.326412
     33          1           0        2.493265    2.072253   -0.538156
     34          1           0        0.054784    2.241436   -0.905958
     35          1           0       -3.884776   -0.102621   -2.064476
     36          1           0       -6.280918    0.533028   -2.192533
     37          1           0       -9.749294    0.651605    0.839411
     38          1           0       -7.143195   -0.292733    2.206062
     39          1           0       -8.804699   -0.075863    3.003519
     40          1           0       -2.743593   -2.627358    0.988838
     41          1           0       -0.299316   -2.812190    1.405427
     42          1           0        2.008550   -1.803696    1.244014
 ---------------------------------------------------------------------

 SCF Done:  E(RB3LYP) =  -1322.24292155     A.U. after   15 cycles

 Excitation energies and oscillator strengths:

 Excited state symmetry could not be determined.
 Excited State   1:      Triplet-?Sym    2.5818 eV  480.23 nm  f=0.0000  <S**2>=2.000
      91 ->101        -0.10301
      93 ->100        -0.10126
      94 -> 99        -0.30353
      95 -> 99         0.13241
      96 -> 97        -0.18641
      96 -> 98         0.17015
      96 -> 99         0.52152
      96 ->100        -0.13278
 This state for optimization and/or second-order correction.
 Total Energy, E(TD-HF/TD-DFT) =  -1322.14804296
 Copying the excited state density for this state as the 1-particle RhoCI density.

 Excited state symmetry could not be determined.
 Excited State   2:      Triplet-?Sym    3.2201 eV  385.03 nm  f=0.0000  <S**2>=2.000
      88 -> 97        -0.20476
      93 -> 97        -0.13151
      94 -> 97         0.26763
      94 ->102         0.10491
      95 -> 97         0.29619
      95 ->102         0.11170
      96 -> 97         0.43125
      96 -> 99         0.13709

 Excited state symmetry could not be determined.
 Excited State   3:      Singlet-?Sym    3.6290 eV  341.65 nm  f=0.3023  <S**2>=0.000
      96 -> 97         0.65871
      96 -> 98        -0.20963

 Excited state symmetry could not be determined.
 Excited State   4:      Singlet-?Sym    3.7161 eV  333.64 nm  f=0.0415  <S**2>=0.000
      95 -> 98        -0.11408
      96 -> 97         0.21931
      96 -> 98         0.65827

 Alpha  occ. eigenvalues --  -24.72059 -19.21300 -19.20645 -19.20332 -19.20315
 Alpha  occ. eigenvalues --  -19.14529 -19.14120 -10.32635 -10.32197 -10.28150
 Alpha  occ. eigenvalues --  -10.26400 -10.26335 -10.25334 -10.24866 -10.24725
 Alpha  occ. eigenvalues --  -10.23935 -10.21576 -10.21461 -10.21405 -10.21259
 Alpha  occ. eigenvalues --  -10.21107 -10.20980 -10.20858 -10.20716 -10.20697
 Alpha  occ. eigenvalues --  -10.20403 -10.19984  -1.23020  -1.11911  -1.11402
 Alpha  occ. eigenvalues --   -1.09094  -1.08892  -1.02895  -1.02371  -0.88906
 Alpha  occ. eigenvalues --   -0.84071  -0.81056  -0.80689  -0.79084  -0.78365
 Alpha  occ. eigenvalues --   -0.76778  -0.74789  -0.73017  -0.68113  -0.67079
 Alpha  occ. eigenvalues --   -0.64886  -0.63929  -0.61654  -0.60761  -0.59672
 Alpha  occ. eigenvalues --   -0.58628  -0.57432  -0.54704  -0.53844  -0.52742
 Alpha  occ. eigenvalues --   -0.52280  -0.52002  -0.50990  -0.50477  -0.48587
 Alpha  occ. eigenvalues --   -0.48386  -0.48296  -0.47385  -0.46773  -0.46329
 Alpha  occ. eigenvalues --   -0.46303  -0.46108  -0.44810  -0.44434  -0.44149
 Alpha  occ. eigenvalues --   -0.43942  -0.42105  -0.41455  -0.41081  -0.39952
 Alpha  occ. eigenvalues --   -0.39670  -0.39546  -0.38679  -0.38529  -0.37190
 Alpha  occ. eigenvalues --   -0.36837  -0.36734  -0.36622  -0.35719  -0.34988
 Alpha  occ. eigenvalues --   -0.34366  -0.31971  -0.29059  -0.28906  -0.28767
 Alpha  occ. eigenvalues --   -0.28649  -0.28130  -0.25837  -0.23564  -0.22723
 Alpha  occ. eigenvalues --   -0.20543
 Alpha virt. eigenvalues --   -0.05834  -0.05299  -0.04898  -0.01820   0.02289
 Alpha virt. eigenvalues --    0.02878   0.03681   0.06910   0.08253   0.08898
 Alpha virt. eigenvalues --    0.09033   0.09463   0.10535   0.10698   0.11316

 Mulliken charges:
               1
     1  C   -0.300240
     2  C   -0.141810
     3  C    0.619157
     4  O   -0.480907
     5  O   -0.463725
     6  C    0.066978
     7  C    0.054066
     8  O   -0.504811
     9  C    0.370768
    10  C   -0.182181
    11  C   -0.190256
    12  C    0.051283
    13  C    0.263809
    14  F   -0.286457
    15  C    0.297311
    16  O   -0.512808
    17  C    0.072214
    18  C    0.053428
    19  O   -0.466896
    20  C    0.625792
    21  O   -0.477898
    22  C   -0.142323
    23  C   -0.308913
    24  C   -0.181498
    25  C   -0.194903
    26  C    0.153086
    27  C   -0.266272
    28  H    0.183392
    29  H    0.162323
    30  H    0.163068
    31  H    0.191113
    32  H    0.162781
    33  H    0.151955
    34  H    0.154403
    35  H    0.164168
    36  H    0.190873
    37  H    0.162008
    38  H    0.185925
    39  H    0.160617
    40  H    0.153629
    41  H    0.140745
    42  H    0.147005
 Sum of Mulliken charges =  -0.00000

 Dipole moment (field-independent basis, Debye):
    X=              1.5411    Y=             -1.9053    Z=              1.1849  Tot=              2.7220
 Quadrupole moment (field-independent basis, Debye-Ang):
   XX=           -163.4339   YY=           -144.8823   ZZ=           -145.9857
   XY=             -4.9105   XZ=            -23.9036   YZ=              1.6374

 Normal termination of Gaussian 16 at Sat Nov  5 11:56:10 2022.
