 Gaussian 16, Revision B.01,
 Gaussian 16:  ES64L-G16RevB.01 20-Dec-2017

 -----------------------------
 #p b3lyp/6-31g(d) opt SCF=XQC
 -----------------------------

 ------------------------------
 Gaussian input prepared by ASE
 ------------------------------
 Symbolic Z-matrix:
 Charge =  0 Multiplicity = 1

 SCF Done:  E(RB3LYP) =  -1322.23922895     A.U. after   15 cycles
 SCF Done:  E(RB3LYP) =  -1322.24216607     A.U. after   12 cycles
 SCF Done:  E(RB3LYP) =  -1322.24252357     A.U. after   12 cycles
 SCF Done:  E(RB3LYP) =  -1322.24273051     A.U. after   12 cycles
 SCF Done:  E(RB3LYP) =  -1322.24279452     A.U. after   11 cycles
 SCF Done:  E(RB3LYP) =  -1322.24285101     A.U. after   11 cycles
 SCF Done:  E(RB3LYP) =  -1322.24288895     A.U. after   11 cycles
 SCF Done:  E(RB3LYP) =  -1322.24290357     A.U. after   10 cycles
 SCF Done:  E(RB3LYP) =  -1322.24290925     A.U. after   10 cycles
 SCF Done:  E(RB3LYP) =  -1322.24291559     A.U. after    9 cycles
 SCF Done:  E(RB3LYP) =  -1322.24291832     A.U. after   10 cycles
 SCF Done:  E(RB3LYP) =  -1322.24291895     A.U. after    9 cycles
 SCF Done:  E(RB3LYP) =  -1322.24291907     A.U. after    8 cycles
 SCF Done:  E(RB3LYP) =  -1322.24291907     A.U. after    7 cycles
 SCF Done:  E(RB3LYP) =  -1322.24291905     A.U. after    7 cycles
 Optimization completed.
    -- Stationary point found.

                         Standard orientation:
 ---------------------------------------------------------------------
 Center     Atomic      Atomic             Coordinates (Angstroms)
 Number     Number       Type             X           Y           Z
 ---------------------------------------------------------------------
      1          6           0       -9.638797    0.328149   -1.663562
      2          6           0       -8.358578    0.431682   -1.297649
      3          6           0       -7.858487   -0.274865   -0.098375
      4          8           0       -8.502484   -0.982799    0.644825
      5          8           0       -6.521876   -0.014898    0.069062
      6          6           0       -5.894024   -0.600164    1.146196
      7          6           0       -4.596157   -0.393458    1.374235
      8          8           0       -3.846510    0.463151    0.612198
      9          6           0       -2.497981    0.215778    0.476311
     10          6           0       -1.964460   -1.096489    0.519427
     11          6           0       -0.612895   -1.293080    0.347930
     12          6           0        0.253024   -0.194612    0.115576
     13          6           0        1.648654   -0.357963   -0.058143
     14          9           0        2.154709   -1.611057    0.023884
     15          6           0        2.488230    0.708846   -0.301794
     16          8           0        3.851105    0.604167   -0.439930
     17          6           0        4.369258   -0.418774   -1.197783
     18          6           0        5.652843   -0.767199   -1.120594
     19          8           0        6.493611   -0.150403   -0.217441
     20          6           0        7.801796   -0.549208   -0.198539
     21          8           0        8.254543   -1.402754   -0.931556
     22          6           0        8.593453    0.180018    0.815581
     23          6           0        8.104588    1.116971    1.633041
     24          6           0        1.938534    2.014346   -0.349091
     25          6           0        0.592687    2.222037   -0.170144
     26          6           0       -0.290303    1.130306    0.059622
     27          6           0       -1.682332    1.303903    0.247980
     28          1           0      -10.330888   -0.276883   -1.084889
     29          1           0      -10.023247    0.839616   -2.540525
     30          1           0       -7.639173    1.026884   -1.851373
     31          1           0       -6.513206   -1.213321    1.787166
     32          1           0       -4.103999   -0.851209    2.227570
     33          1           0       -2.628439   -1.942393    0.664367
     34          1           0       -0.198802   -2.295012    0.376945
     35          1           0        3.700302   -0.897454   -1.903565
     36          1           0        6.095648   -1.529589   -1.746516
     37          1           0        9.636967   -0.119199    0.843125
     38          1           0        7.060251    1.409990    1.600342
     39          1           0        8.741599    1.614901    2.358397
     40          1           0        2.621357    2.837954   -0.531732
     41          1           0        0.187032    3.228891   -0.210131
     42          1           0       -2.119222    2.297281    0.217248
 ---------------------------------------------------------------------

 The electronic state is 1-A.
 Alpha  occ. eigenvalues --  -24.72059 -19.21300 -19.20645 -19.20332 -19.20315
 Alpha  occ. eigenvalues --  -19.14529 -19.14120 -10.32635 -10.32197 -10.28150
 Alpha  occ. eigenvalues --  -10.26400 -10.26335 -10.25334 -10.24866 -10.24725
 Alpha  occ. eigenvalues --  -10.23935 -10.21576 -10.21461 -10.21405 -10.21259
 Alpha  occ. eigenvalues --  -10.21107 -10.20980 -10.20858 -10.20716 -10.20697
 Alpha  occ. eigenvalues --  -10.20403 -10.19984  -1.23020  -1.11911  -1.11402
 Alpha  occ. eigenvalues --   -1.09094  -1.08892  -1.02895  -1.02371  -0.88906
 Alpha  occ. eigenvalues --   -0.84071  -0.81056  -0.80689  -0.79084  -0.78365
 Alpha  occ. eigenvalues --   -0.76778  -0.74789  -0.73016  -0.68113  -0.67079
 Alpha  occ. eigenvalues --   -0.64886  -0.63929  -0.61654  -0.60761  -0.59672
 Alpha  occ. eigenvalues --   -0.58628  -0.57432  -0.54704  -0.53844  -0.52742
 Alpha  occ. eigenvalues --   -0.52280  -0.52002  -0.50990  -0.50477  -0.48587
 Alpha  occ. eigenvalues --   -0.48386  -0.48296  -0.47385  -0.46773  -0.46329
 Alpha  occ. eigenvalues --   -0.46303  -0.46108  -0.44810  -0.44434  -0.44149
 Alpha  occ. eigenvalues --   -0.43942  -0.42105  -0.41455  -0.41081  -0.39952
 Alpha  occ. eigenvalues --   -0.39670  -0.39546  -0.38679  -0.38529  -0.37190
 Alpha  occ. eigenvalues --   -0.36837  -0.36734  -0.36622  -0.35719  -0.34988
 Alpha  occ. eigenvalues --   -0.34366  -0.31971  -0.29059  -0.28906  -0.28767
 Alpha  occ. eigenvalues --   -0.28649  -0.28130  -0.25837  -0.23564  -0.22723
 Alpha  occ. eigenvalues --   -0.20543
 Alpha virt. eigenvalues --   -0.05834  -0.05299  -0.04898  -0.01820   0.02289
 Alpha virt. eigenvalues --    0.02878   0.03681   0.06910   0.08253   0.08898
 Alpha virt. eigenvalues --    0.09033   0.09463   0.10535   0.10698   0.11316

 Mulliken charges:
               1
     1  C   -0.300242
     2  C   -0.141808
     3  C    0.619154
     4  O   -0.480906
     5  O   -0.463725
     6  C    0.066983
     7  C    0.054062
     8  O   -0.504809
     9  C    0.370762
    10  C   -0.182182
    11  C   -0.190251
    12  C    0.051283
    13  C    0.263812
    14  F   -0.286455
    15  C    0.297315
    16  O   -0.512806
    17  C    0.072208
    18  C    0.053424
    19  O   -0.466895
    20  C    0.625797
    21  O   -0.477903
    22  C   -0.142321
    23  C   -0.308922
    24  C   -0.181505
    25  C   -0.194900
    26  C    0.153073
    27  C   -0.266261
    28  H    0.183392
    29  H    0.162323
    30  H    0.163068
    31  H    0.191112
    32  H    0.162781
    33  H    0.151956
    34  H    0.154402
    35  H    0.164173
    36  H    0.190873
    37  H    0.162009
    38  H    0.185933
    39  H    0.160618
    40  H    0.153630
    41  H    0.140745
    42  H    0.147005
 Sum of Mulliken charges =  -0.00000

 Dipole moment (field-independent basis, Debye):
    X=             -1.5210    Y=              2.2557    Z=              0.0875  Tot=              2.7220
 Quadrupole moment (field-independent basis, Debye-Ang):
   XX=           -161.8144   YY=           -146.3019   ZZ=           -145.3488
   XY=              7.5764   XZ=             23.4523   YZ=             -1.6057

 Normal termination of Gaussian 16 at Fri Nov  4 19:35:27 2022.
