 Gaussian 16, Revision B.01,
 Gaussian 16:  ES64L-G16RevB.01 20-Dec-2017

 -------------------------------------------------------------------
 #p b3lyp/6-31g(d) 6D 10F nosymm GFInput td=(50-50,nstate=2) SCF=XQC
 -------------------------------------------------------------------

 ------------------------------
 Gaussian input prepared by ASE
 ------------------------------
 Symbolic Z-matrix:
 Charge =  0 Multiplicity = 1

                          Input orientation:
 ---------------------------------------------------------------------
 Center     Atomic      Atomic             Coordinates (Angstroms)
 Number     Number       Type             X           Y           Z
 ---------------------------------------------------------------------
      1          6           0        6.979219    0.685904   -2.433785
      2          8           0        6.648072    0.760525   -1.053215
      3          6           0        5.461076    0.245256   -0.653230
      4          6           0        4.512212   -0.368910   -1.477178
      5          6           0        3.319280   -0.856417   -0.936873
      6          6           0        3.047816   -0.742523    0.429646
      7          6           0        1.797398   -1.246670    1.082011
      8          8           0        1.740419   -1.464376    2.291114
      9          7           0        0.722818   -1.459234    0.251815
     10          6           0       -0.562359   -1.914845    0.771433
     11          6           0       -1.526962   -0.786339    1.090659
     12          6           0       -1.260376    0.117589    2.125819
     13          6           0       -2.186838    1.128001    2.375120
     14          7           0       -3.315040    1.296573    1.679354
     15          6           0       -3.577170    0.439650    0.676846
     16          6           0       -4.845046    0.667289   -0.070087
     17          6           0       -5.117700    0.073354   -1.310664
     18          6           0       -6.333252    0.336245   -1.940650
     19          7           0       -7.281900    1.134354   -1.436803
     20          6           0       -7.013444    1.705793   -0.254228
     21          6           0       -5.832274    1.512154    0.457253
     22          6           0       -2.705767   -0.617054    0.364880
     23          6           0        4.007827   -0.144405    1.263539
     24          6           0        5.179378    0.340143    0.724164
     25          9           0        6.095650    0.923537    1.517277
     26          1           0        6.250988    1.228633   -3.049914
     27          1           0        7.041606   -0.355359   -2.774803
     28          1           0        7.958105    1.157817   -2.528441
     29          1           0        4.701135   -0.480357   -2.538519
     30          1           0        2.622969   -1.362881   -1.598852
     31          1           0        0.727548   -1.016233   -0.656190
     32          1           0       -0.339090   -2.484579    1.676779
     33          1           0       -1.011783   -2.595985    0.040311
     34          1           0       -0.359672    0.020689    2.723751
     35          1           0       -2.015385    1.840649    3.180302
     36          1           0       -4.396782   -0.571750   -1.802814
     37          1           0       -6.553392   -0.118142   -2.905684
     38          1           0       -7.789344    2.355867    0.147149
     39          1           0       -5.663748    2.003248    1.408443
     40          1           0       -2.952852   -1.318882   -0.426075
     41          1           0        3.826660   -0.068333    2.329615
 ---------------------------------------------------------------------

 SCF Done:  E(RB3LYP) =  -1148.19915949     A.U. after   15 cycles

 Excitation energies and oscillator strengths:

 Excited state symmetry could not be determined.
 Excited State   1:      Triplet-?Sym    3.1883 eV  388.87 nm  f=0.0000  <S**2>=2.000
      79 -> 94        -0.14213
      80 -> 91        -0.11257
      84 -> 93        -0.15730
      87 -> 89         0.62454
 This state for optimization and/or second-order correction.
 Total Energy, E(TD-HF/TD-DFT) =  -1148.08199226
 Copying the excited state density for this state as the 1-particle RhoCI density.

 Excited state symmetry could not be determined.
 Excited State   2:      Triplet-?Sym    3.4002 eV  364.64 nm  f=0.0000  <S**2>=2.000
      82 -> 92         0.15196
      83 -> 92         0.16354
      88 -> 90         0.61128
      88 -> 91        -0.14975
      88 -> 95         0.11895

 Excited state symmetry could not be determined.
 Excited State   3:      Singlet-?Sym    4.2967 eV  288.56 nm  f=0.0015  <S**2>=0.000
      86 -> 89         0.67780
      86 -> 94         0.11713

 Excited state symmetry could not be determined.
 Excited State   4:      Singlet-?Sym    4.3701 eV  283.71 nm  f=0.0033  <S**2>=0.000
      81 -> 89        -0.20342
      82 -> 89        -0.14902
      83 -> 89         0.37389
      85 -> 89         0.51047
      86 -> 89        -0.11609
      88 -> 89        -0.10302

 Alpha  occ. eigenvalues --  -24.70975 -19.20006 -19.12243 -14.37345 -14.33587
 Alpha  occ. eigenvalues --  -14.32616 -10.29914 -10.27978 -10.27255 -10.25768
 Alpha  occ. eigenvalues --  -10.24146 -10.24088 -10.22903 -10.22240 -10.22052
 Alpha  occ. eigenvalues --  -10.21783 -10.21534 -10.21487 -10.21276 -10.21223
 Alpha  occ. eigenvalues --  -10.20868 -10.20578 -10.20123 -10.19990 -10.19162
 Alpha  occ. eigenvalues --   -1.22251  -1.08681  -1.04138  -0.95200  -0.93550
 Alpha  occ. eigenvalues --   -0.93320  -0.87447  -0.82546  -0.81945  -0.78318
 Alpha  occ. eigenvalues --   -0.76680  -0.75793  -0.75738  -0.73487  -0.70877
 Alpha  occ. eigenvalues --   -0.65813  -0.64365  -0.63465  -0.63001  -0.61593
 Alpha  occ. eigenvalues --   -0.59544  -0.59143  -0.56735  -0.54297  -0.53241
 Alpha  occ. eigenvalues --   -0.51942  -0.51126  -0.49949  -0.49656  -0.49074
 Alpha  occ. eigenvalues --   -0.47869  -0.46756  -0.46461  -0.46085  -0.45923
 Alpha  occ. eigenvalues --   -0.45660  -0.45060  -0.44152  -0.43112  -0.42331
 Alpha  occ. eigenvalues --   -0.41822  -0.41479  -0.41065  -0.40710  -0.39764
 Alpha  occ. eigenvalues --   -0.39100  -0.38587  -0.37811  -0.36883  -0.36504
 Alpha  occ. eigenvalues --   -0.35770  -0.34989  -0.33469  -0.30801  -0.29254
 Alpha  occ. eigenvalues --   -0.27079  -0.26754  -0.26317  -0.25882  -0.25508
 Alpha  occ. eigenvalues --   -0.25199  -0.24718  -0.23560
 Alpha virt. eigenvalues --   -0.05806  -0.04154  -0.02851  -0.01494  -0.00406
 Alpha virt. eigenvalues --    0.01746   0.05538   0.06615   0.08209   0.08891
 Alpha virt. eigenvalues --    0.09318   0.11643   0.11912   0.12297   0.13265

 Mulliken charges:
               1
     1  C   -0.221064
     2  O   -0.492130
     3  C    0.327588
     4  C   -0.202116
     5  C   -0.191612
     6  C    0.072383
     7  C    0.573164
     8  O   -0.532143
     9  N   -0.603677
    10  C   -0.227920
    11  C    0.181884
    12  C   -0.194152
    13  C    0.044815
    14  N   -0.481556
    15  C    0.259701
    16  C    0.121601
    17  C   -0.189951
    18  C    0.032494
    19  N   -0.406586
    20  C    0.034839
    21  C   -0.169295
    22  C   -0.226588
    23  C   -0.241399
    24  C    0.338706
    25  F   -0.281752
    26  H    0.157781
    27  H    0.158659
    28  H    0.181518
    29  H    0.144687
    30  H    0.132608
    31  H    0.326872
    32  H    0.205167
    33  H    0.155462
    34  H    0.176513
    35  H    0.147042
    36  H    0.129171
    37  H    0.138488
    38  H    0.141956
    39  H    0.164428
    40  H    0.135779
    41  H    0.178633
 Sum of Mulliken charges =  -0.00000

 Dipole moment (field-independent basis, Debye):
    X=              3.5442    Y=             -1.4485    Z=             -4.5112  Tot=              5.9170
 Quadrupole moment (field-independent basis, Debye-Ang):
   XX=           -164.8465   YY=           -143.5322   ZZ=           -136.4157
   XY=              8.3388   XZ=            -27.6224   YZ=              7.5470

 Normal termination of Gaussian 16 at Sat Nov  5 11:56:12 2022.
