 Gaussian 16, Revision B.01,
 Gaussian 16:  ES64L-G16RevB.01 20-Dec-2017

 -----------------------------
 #p b3lyp/6-31g(d) opt SCF=XQC
 -----------------------------

 ------------------------------
 Gaussian input prepared by ASE
 ------------------------------
 Symbolic Z-matrix:
 Charge =  0 Multiplicity = 1

 SCF Done:  E(RB3LYP) =  -1148.19374551     A.U. after   15 cycles
 SCF Done:  E(RB3LYP) =  -1148.19799742     A.U. after   12 cycles
 SCF Done:  E(RB3LYP) =  -1148.19823847     A.U. after   12 cycles
 SCF Done:  E(RB3LYP) =  -1148.19843775     A.U. after   12 cycles
 SCF Done:  E(RB3LYP) =  -1148.19855549     A.U. after   11 cycles
 SCF Done:  E(RB3LYP) =  -1148.19885753     A.U. after   13 cycles
 SCF Done:  E(RB3LYP) =  -1148.19881780     A.U. after   13 cycles
 SCF Done:  E(RB3LYP) =  -1148.19902314     A.U. after   12 cycles
 SCF Done:  E(RB3LYP) =  -1148.19901419     A.U. after   11 cycles
 SCF Done:  E(RB3LYP) =  -1148.19908980     A.U. after   13 cycles
 SCF Done:  E(RB3LYP) =  -1148.19909812     A.U. after   13 cycles
 SCF Done:  E(RB3LYP) =  -1148.19910364     A.U. after    9 cycles
 SCF Done:  E(RB3LYP) =  -1148.19912947     A.U. after   11 cycles
 SCF Done:  E(RB3LYP) =  -1148.19915205     A.U. after   12 cycles
 SCF Done:  E(RB3LYP) =  -1148.19915729     A.U. after   10 cycles
 SCF Done:  E(RB3LYP) =  -1148.19915777     A.U. after   10 cycles
 SCF Done:  E(RB3LYP) =  -1148.19915982     A.U. after   10 cycles
 SCF Done:  E(RB3LYP) =  -1148.19916009     A.U. after    8 cycles
 SCF Done:  E(RB3LYP) =  -1148.19916012     A.U. after    7 cycles
 SCF Done:  E(RB3LYP) =  -1148.19916013     A.U. after    7 cycles
 Optimization completed.
    -- Stationary point found.

                         Standard orientation:
 ---------------------------------------------------------------------
 Center     Atomic      Atomic             Coordinates (Angstroms)
 Number     Number       Type             X           Y           Z
 ---------------------------------------------------------------------
      1          6           0       -6.876408    2.678637   -0.597977
      2          8           0       -6.524773    1.329966   -0.878407
      3          6           0       -5.365682    0.853050   -0.365076
      4          6           0       -4.464930    1.566507    0.432457
      5          6           0       -3.296574    0.955779    0.895743
      6          6           0       -3.002352   -0.372686    0.575348
      7          6           0       -1.776249   -1.096560    1.040069
      8          8           0       -1.717686   -2.324885    1.059056
      9          7           0       -0.726270   -0.310468    1.450843
     10          6           0        0.535805   -0.895337    1.891707
     11          6           0        1.569422   -1.022101    0.786512
     12          6           0        1.369433   -1.894655   -0.289760
     13          6           0        2.357131   -1.972001   -1.269498
     14          7           0        3.484861   -1.255555   -1.252825
     15          6           0        3.683584   -0.407467   -0.228469
     16          6           0        4.953617    0.369481   -0.253089
     17          6           0        5.175567    1.495756    0.552127
     18          6           0        6.396875    2.163056    0.470408
     19          7           0        7.397202    1.799697   -0.340820
     20          6           0        7.177407    0.726931   -1.114098
     21          6           0        5.995509   -0.009260   -1.111878
     22          6           0        2.747342   -0.275828    0.810478
     23          6           0       -3.915062   -1.098621   -0.208694
     24          6           0       -5.062241   -0.489253   -0.667926
     25          9           0       -5.932657   -1.177301   -1.428122
     26          1           0       -6.124764    3.377359   -0.986961
     27          1           0       -7.004552    2.843205    0.479478
     28          1           0       -7.826655    2.847700   -1.106237
     29          1           0       -4.672932    2.594549    0.705258
     30          1           0       -2.639569    1.526699    1.545334
     31          1           0       -0.715682    0.658130    1.163701
     32          1           0        0.290088   -1.882691    2.290269
     33          1           0        0.935181   -0.285543    2.709707
     34          1           0        0.471853   -2.502304   -0.347151
     35          1           0        2.237979   -2.649053   -2.113882
     36          1           0        4.411770    1.873287    1.224568
     37          1           0        6.578011    3.040450    1.089753
     38          1           0        7.995284    0.439868   -1.773181
     39          1           0        5.867903   -0.866839   -1.761965
     40          1           0        2.942801    0.389137    1.646446
     41          1           0       -3.716843   -2.137182   -0.447915
 ---------------------------------------------------------------------

 The electronic state is 1-A.
 Alpha  occ. eigenvalues --  -24.70975 -19.20006 -19.12243 -14.37345 -14.33587
 Alpha  occ. eigenvalues --  -14.32616 -10.29914 -10.27978 -10.27255 -10.25768
 Alpha  occ. eigenvalues --  -10.24146 -10.24088 -10.22903 -10.22240 -10.22052
 Alpha  occ. eigenvalues --  -10.21783 -10.21534 -10.21487 -10.21276 -10.21223
 Alpha  occ. eigenvalues --  -10.20868 -10.20578 -10.20123 -10.19990 -10.19162
 Alpha  occ. eigenvalues --   -1.22251  -1.08681  -1.04138  -0.95200  -0.93550
 Alpha  occ. eigenvalues --   -0.93320  -0.87447  -0.82546  -0.81945  -0.78318
 Alpha  occ. eigenvalues --   -0.76680  -0.75793  -0.75738  -0.73487  -0.70877
 Alpha  occ. eigenvalues --   -0.65813  -0.64365  -0.63465  -0.63001  -0.61593
 Alpha  occ. eigenvalues --   -0.59544  -0.59143  -0.56735  -0.54297  -0.53241
 Alpha  occ. eigenvalues --   -0.51942  -0.51126  -0.49949  -0.49656  -0.49074
 Alpha  occ. eigenvalues --   -0.47869  -0.46756  -0.46461  -0.46085  -0.45923
 Alpha  occ. eigenvalues --   -0.45660  -0.45060  -0.44152  -0.43112  -0.42331
 Alpha  occ. eigenvalues --   -0.41822  -0.41479  -0.41065  -0.40710  -0.39764
 Alpha  occ. eigenvalues --   -0.39100  -0.38587  -0.37811  -0.36883  -0.36504
 Alpha  occ. eigenvalues --   -0.35770  -0.34989  -0.33469  -0.30801  -0.29254
 Alpha  occ. eigenvalues --   -0.27079  -0.26754  -0.26317  -0.25882  -0.25508
 Alpha  occ. eigenvalues --   -0.25199  -0.24718  -0.23560
 Alpha virt. eigenvalues --   -0.05806  -0.04154  -0.02851  -0.01494  -0.00406
 Alpha virt. eigenvalues --    0.01746   0.05538   0.06615   0.08209   0.08891
 Alpha virt. eigenvalues --    0.09318   0.11643   0.11912   0.12297   0.13265

 Mulliken charges:
               1
     1  C   -0.221058
     2  O   -0.492135
     3  C    0.327596
     4  C   -0.202120
     5  C   -0.191608
     6  C    0.072375
     7  C    0.573173
     8  O   -0.532147
     9  N   -0.603680
    10  C   -0.227916
    11  C    0.181888
    12  C   -0.194155
    13  C    0.044806
    14  N   -0.481547
    15  C    0.259718
    16  C    0.121585
    17  C   -0.189936
    18  C    0.032478
    19  N   -0.406578
    20  C    0.034831
    21  C   -0.169286
    22  C   -0.226594
    23  C   -0.241402
    24  C    0.338704
    25  F   -0.281751
    26  H    0.157781
    27  H    0.158658
    28  H    0.181517
    29  H    0.144688
    30  H    0.132607
    31  H    0.326872
    32  H    0.205168
    33  H    0.155462
    34  H    0.176511
    35  H    0.147042
    36  H    0.129171
    37  H    0.138490
    38  H    0.141956
    39  H    0.164427
    40  H    0.135778
    41  H    0.178633
 Sum of Mulliken charges =  -0.00000

 Dipole moment (field-independent basis, Debye):
    X=             -3.6781    Y=              4.2031    Z=              1.9535  Tot=              5.9170
 Quadrupole moment (field-independent basis, Debye-Ang):
   XX=           -165.6567   YY=           -137.6726   ZZ=           -140.1428
   XY=            -29.4545   XZ=              1.9761   YZ=              7.3211

 Normal termination of Gaussian 16 at Fri Nov  4 19:43:04 2022.
