 Gaussian 16, Revision B.01,
 Gaussian 16:  ES64L-G16RevB.01 20-Dec-2017

 -----------------------------
 #p b3lyp/6-31g(d) opt SCF=XQC
 -----------------------------

 ------------------------------
 Gaussian input prepared by ASE
 ------------------------------
 Symbolic Z-matrix:
 Charge =  0 Multiplicity = 1

 SCF Done:  E(RB3LYP) =  -2051.69863593     A.U. after   14 cycles
 SCF Done:  E(RB3LYP) =  -2051.70598746     A.U. after   12 cycles
 SCF Done:  E(RB3LYP) =  -2051.70674804     A.U. after   11 cycles
 SCF Done:  E(RB3LYP) =  -2051.70703164     A.U. after   11 cycles
 SCF Done:  E(RB3LYP) =  -2051.70714368     A.U. after   10 cycles
 SCF Done:  E(RB3LYP) =  -2051.70723001     A.U. after   11 cycles
 SCF Done:  E(RB3LYP) =  -2051.70725232     A.U. after   10 cycles
 SCF Done:  E(RB3LYP) =  -2051.70726925     A.U. after    9 cycles
 SCF Done:  E(RB3LYP) =  -2051.70728110     A.U. after   10 cycles
 SCF Done:  E(RB3LYP) =  -2051.70728349     A.U. after    9 cycles
 SCF Done:  E(RB3LYP) =  -2051.70728515     A.U. after    9 cycles
 SCF Done:  E(RB3LYP) =  -2051.70728744     A.U. after    9 cycles
 SCF Done:  E(RB3LYP) =  -2051.70728893     A.U. after    9 cycles
 SCF Done:  E(RB3LYP) =  -2051.70728929     A.U. after    8 cycles
 SCF Done:  E(RB3LYP) =  -2051.70728927     A.U. after    7 cycles
 Optimization completed.
    -- Stationary point found.

                         Standard orientation:
 ---------------------------------------------------------------------
 Center     Atomic      Atomic             Coordinates (Angstroms)
 Number     Number       Type             X           Y           Z
 ---------------------------------------------------------------------
      1          6           0      -11.041163    4.915513    0.969981
      2          6           0      -11.698031    3.982640   -0.051728
      3          6           0      -11.173312    2.553271    0.005517
      4          8           0       -9.787788    2.577923   -0.330850
      5          6           0       -9.088635    1.403904   -0.325309
      6          6           0       -7.728212    1.500584   -0.654701
      7          6           0       -6.930632    0.364309   -0.677562
      8          6           0       -7.451666   -0.908124   -0.379227
      9          6           0       -6.587356   -2.158630   -0.397202
     10          6           0       -5.518107   -2.142703    0.726815
     11          6           0       -4.478680   -3.248732    0.503395
     12          6           0       -3.629633   -3.007483   -0.773376
     13          6           0       -2.261922   -2.394393   -0.556536
     14          6           0       -1.757762   -1.881673    0.569783
     15          6           0       -0.397070   -1.248098    0.753096
     16          6           0        0.453537   -1.151550   -0.522798
     17          6           0        1.812451   -0.484982   -0.261427
     18          6           0        2.593943   -1.218603    0.844614
     19          6           0        3.937258   -0.557840    1.119055
     20          9           0        4.602390   -1.207440    2.125667
     21          9           0        3.774113    0.730572    1.558028
     22          8           0        4.709269   -0.569681   -0.030230
     23          6           0        5.977062   -0.030790   -0.068598
     24          6           0        6.599302   -0.128305   -1.316794
     25          6           0        7.875936    0.382106   -1.459204
     26          9           0        8.469000    0.286349   -2.659414
     27          6           0        8.582898    0.994570   -0.415398
     28          6           0        9.971417    1.518074   -0.679170
     29          9           0       10.791391    0.526397   -1.093185
     30          9           0        9.958317    2.452536   -1.655817
     31          9           0       10.534552    2.078051    0.404232
     32          6           0        7.914197    1.065160    0.809671
     33          9           0        8.509138    1.633578    1.868262
     34          6           0        6.629972    0.567849    1.008755
     35          6           0        1.756999   -1.322146    2.133764
     36          6           0        0.397786   -1.980240    1.859339
     37          6           0       -4.415746   -2.137482   -1.798766
     38          6           0       -5.919398   -2.444475   -1.784368
     39          6           0       -8.808346   -0.980929   -0.055150
     40          6           0       -9.630126    0.151042   -0.023405
     41          1           0       -9.959597    4.964186    0.812709
     42          1           0      -11.216556    4.565147    1.994760
     43          1           0      -11.444258    5.930980    0.890295
     44          1           0      -12.783263    3.944976    0.112279
     45          1           0      -11.545596    4.368356   -1.067558
     46          1           0      -11.717286    1.911458   -0.702865
     47          1           0      -11.305230    2.132438    1.014049
     48          1           0       -7.320221    2.479566   -0.887731
     49          1           0       -5.879634    0.472199   -0.934056
     50          1           0       -7.254584   -3.003862   -0.182648
     51          1           0       -5.019585   -1.165277    0.756592
     52          1           0       -6.012949   -2.262335    1.698136
     53          1           0       -5.008439   -4.205351    0.400847
     54          1           0       -3.833300   -3.362422    1.380646
     55          1           0       -3.462789   -3.985173   -1.251168
     56          1           0       -1.661241   -2.348383   -1.466247
     57          1           0       -2.354042   -1.911014    1.482664
     58          1           0       -0.564327   -0.218327    1.115199
     59          1           0       -0.084768   -0.588240   -1.294569
     60          1           0        0.616284   -2.160987   -0.927505
     61          1           0        1.660042    0.557988    0.046358
     62          1           0        2.402479   -0.460628   -1.183678
     63          1           0        2.833041   -2.232767    0.496269
     64          1           0        6.095079   -0.592847   -2.155025
     65          1           0        6.182944    0.661055    1.987002
     66          1           0        1.603909   -0.313064    2.538985
     67          1           0        2.306513   -1.889327    2.892457
     68          1           0        0.545938   -3.026062    1.553855
     69          1           0       -0.189001   -2.008064    2.786219
     70          1           0       -4.006211   -2.293085   -2.804810
     71          1           0       -4.253086   -1.077253   -1.567003
     72          1           0       -6.061659   -3.503138   -2.040039
     73          1           0       -6.427346   -1.870498   -2.567197
     74          1           0       -9.247304   -1.948467    0.180140
     75          1           0      -10.677672    0.040820    0.232938
 ---------------------------------------------------------------------

 The electronic state is 1-A.
 Alpha  occ. eigenvalues --  -24.72891 -24.72652 -24.72545 -24.72407 -24.72328
 Alpha  occ. eigenvalues --  -24.71945 -24.71945 -19.22146 -19.17158 -10.44063
 Alpha  occ. eigenvalues --  -10.41485 -10.30780 -10.30589 -10.29303 -10.24125
 Alpha  occ. eigenvalues --  -10.24004 -10.23001 -10.21529 -10.21486 -10.21478
 Alpha  occ. eigenvalues --  -10.19725 -10.19555 -10.19529 -10.19182 -10.19090
 Alpha  occ. eigenvalues --  -10.18976 -10.18928 -10.18859 -10.18435 -10.18403
 Alpha  occ. eigenvalues --  -10.18286 -10.18285 -10.18245 -10.18184 -10.18141
 Alpha  occ. eigenvalues --  -10.18014 -10.17934 -10.17888 -10.17804 -10.17505
 Alpha  occ. eigenvalues --   -1.30173  -1.27646  -1.24285  -1.24140  -1.21435
 Alpha  occ. eigenvalues --   -1.20995  -1.20896  -1.10617  -1.05791  -0.89594
 Alpha  occ. eigenvalues --   -0.85641  -0.85228  -0.83204  -0.81628  -0.79773
 Alpha  occ. eigenvalues --   -0.78995  -0.77851  -0.77040  -0.75375  -0.74246
 Alpha  occ. eigenvalues --   -0.74027  -0.73633  -0.72287  -0.70291  -0.68576
 Alpha  occ. eigenvalues --   -0.67806  -0.65557  -0.64643  -0.63538  -0.62452
 Alpha  occ. eigenvalues --   -0.61991  -0.61624  -0.60660  -0.59953  -0.59097
 Alpha  occ. eigenvalues --   -0.58539  -0.58292  -0.57921  -0.57838  -0.57037
 Alpha  occ. eigenvalues --   -0.56395  -0.55075  -0.53985  -0.53546  -0.53215
 Alpha  occ. eigenvalues --   -0.52610  -0.51708  -0.50514  -0.49354  -0.49176
 Alpha  occ. eigenvalues --   -0.48587  -0.48347  -0.47905  -0.47622  -0.47490
 Alpha  occ. eigenvalues --   -0.46981  -0.46827  -0.45749  -0.45547  -0.45354
 Alpha  occ. eigenvalues --   -0.45198  -0.44773  -0.44431  -0.43840  -0.43419
 Alpha  occ. eigenvalues --   -0.43304  -0.42903  -0.42410  -0.42236  -0.41674
 Alpha  occ. eigenvalues --   -0.41562  -0.41382  -0.41037  -0.40758  -0.40574
 Alpha  occ. eigenvalues --   -0.40417  -0.39506  -0.39448  -0.39385  -0.38969
 Alpha  occ. eigenvalues --   -0.38806  -0.38465  -0.37882  -0.37561  -0.37471
 Alpha  occ. eigenvalues --   -0.37147  -0.36735  -0.36595  -0.36029  -0.35856
 Alpha  occ. eigenvalues --   -0.35505  -0.35291  -0.34932  -0.34739  -0.34446
 Alpha  occ. eigenvalues --   -0.34233  -0.33619  -0.33265  -0.32058  -0.31674
 Alpha  occ. eigenvalues --   -0.31147  -0.30722  -0.30188  -0.29794  -0.29454
 Alpha  occ. eigenvalues --   -0.26602  -0.26316  -0.24535  -0.24171  -0.20908
 Alpha virt. eigenvalues --   -0.03305  -0.01902   0.00304   0.01768   0.02577
 Alpha virt. eigenvalues --    0.06325   0.07564   0.08384   0.08981   0.09280
 Alpha virt. eigenvalues --    0.09366   0.10317   0.10538   0.11050   0.11404

 Mulliken charges:
               1
     1  C   -0.443088
     2  C   -0.271205
     3  C   -0.027603
     4  O   -0.523219
     5  C    0.379279
     6  C   -0.177931
     7  C   -0.189696
     8  C    0.171648
     9  C   -0.162719
    10  C   -0.268192
    11  C   -0.282014
    12  C   -0.109782
    13  C   -0.121320
    14  C   -0.115788
    15  C   -0.114956
    16  C   -0.275405
    17  C   -0.282023
    18  C   -0.193044
    19  C    0.866534
    20  F   -0.304088
    21  F   -0.302103
    22  O   -0.559873
    23  C    0.386624
    24  C   -0.262511
    25  C    0.376832
    26  F   -0.272999
    27  C   -0.200589
    28  C    0.835829
    29  F   -0.263302
    30  F   -0.263278
    31  F   -0.260122
    32  C    0.362116
    33  F   -0.271722
    34  C   -0.252543
    35  C   -0.280474
    36  C   -0.269734
    37  C   -0.277668
    38  C   -0.276943
    39  C   -0.208423
    40  C   -0.191998
    41  H    0.166846
    42  H    0.140376
    43  H    0.144549
    44  H    0.136876
    45  H    0.150934
    46  H    0.137496
    47  H    0.135046
    48  H    0.133238
    49  H    0.127250
    50  H    0.122656
    51  H    0.140737
    52  H    0.134652
    53  H    0.130615
    54  H    0.138281
    55  H    0.128327
    56  H    0.118651
    57  H    0.119312
    58  H    0.129250
    59  H    0.143701
    60  H    0.135303
    61  H    0.146725
    62  H    0.152659
    63  H    0.153241
    64  H    0.169461
    65  H    0.183607
    66  H    0.147101
    67  H    0.152456
    68  H    0.137524
    69  H    0.137732
    70  H    0.131187
    71  H    0.143099
    72  H    0.131605
    73  H    0.145482
    74  H    0.121483
    75  H    0.130034
 Sum of Mulliken charges =  -0.00000

 Dipole moment (field-independent basis, Debye):
    X=             -6.0511    Y=             -2.0282    Z=              0.3712  Tot=              6.3928
 Quadrupole moment (field-independent basis, Debye-Ang):
   XX=           -260.3942   YY=           -228.6604   ZZ=           -232.7192
   XY=            -12.1656   XZ=             -0.8438   YZ=              1.3652

 Normal termination of Gaussian 16 at Fri Nov  4 19:54:39 2022.
