 Gaussian 16, Revision B.01,
 Gaussian 16:  ES64L-G16RevB.01 20-Dec-2017

 -------------------------------------------------------------------
 #p b3lyp/6-31g(d) 6D 10F nosymm GFInput td=(50-50,nstate=2) SCF=XQC
 -------------------------------------------------------------------

 ------------------------------
 Gaussian input prepared by ASE
 ------------------------------
 Symbolic Z-matrix:
 Charge =  0 Multiplicity = 1

                          Input orientation:
 ---------------------------------------------------------------------
 Center     Atomic      Atomic             Coordinates (Angstroms)
 Number     Number       Type             X           Y           Z
 ---------------------------------------------------------------------
      1          6           0        9.417541   -0.512949   -4.502062
      2          6           0        9.986911    0.475785   -3.480376
      3          6           0        9.368729    0.340359   -2.094298
      4          8           0        7.980736    0.650486   -2.197839
      5          6           0        7.204552    0.575457   -1.075752
      6          6           0        5.846596    0.882536   -1.249686
      7          6           0        4.974128    0.835752   -0.170618
      8          6           0        5.415074    0.487380    1.119254
      9          6           0        4.468475    0.428979    2.307388
     10          6           0        3.428443   -0.713603    2.166681
     11          6           0        2.312229   -0.563362    3.208371
     12          6           0        1.452625    0.706678    2.968986
     13          6           0        0.134480    0.492690    2.254677
     14          6           0       -0.308440   -0.617545    1.657304
     15          6           0       -1.618966   -0.796940    0.924607
     16          6           0       -2.489833    0.465306    0.829283
     17          6           0       -3.794599    0.209562    0.060223
     18          6           0       -4.598389   -0.945149    0.686975
     19          6           0       -5.887691   -1.213919   -0.075841
     20          9           0       -6.572018   -2.263068    0.479704
     21          9           0       -5.628410   -1.587802   -1.369016
     22          8           0       -6.684579   -0.081745   -0.063629
     23          6           0       -7.913823   -0.042451   -0.685391
     24          6           0       -8.569316    1.187340   -0.573012
     25          6           0       -9.811650    1.329010   -1.162190
     26          9           0      -10.436835    2.511531   -1.051790
     27          6           0      -10.452025    0.301981   -1.868992
     28          6           0      -11.807831    0.563298   -2.473245
     29          9           0      -12.701775    0.913598   -1.521750
     30          9           0      -11.754065    1.583392   -3.358541
     31          9           0      -12.307373   -0.502974   -3.119757
     32          6           0       -9.752522   -0.905091   -1.950299
     33          9           0      -10.283784   -1.946802   -2.606246
     34          6           0       -8.500452   -1.102589   -1.376276
     35          6           0       -3.741321   -2.221232    0.787725
     36          6           0       -2.435983   -1.952042    1.548964
     37          6           0        2.272018    1.787428    2.202908
     38          6           0        3.751573    1.787702    2.610754
     39          6           0        6.770780    0.186673    1.269384
     40          6           0        7.667300    0.224851    0.195846
     41          1           0        8.338410   -0.374620   -4.617078
     42          1           0        9.592148   -1.549637   -4.188243
     43          1           0        9.886075   -0.377183   -5.482904
     44          1           0       11.070592    0.331325   -3.376392
     45          1           0        9.837784    1.505665   -3.828273
     46          1           0        9.852150    1.027839   -1.384852
     47          1           0        9.494865   -0.684304   -1.712467
     48          1           0        5.500161    1.153920   -2.242409
     49          1           0        3.927221    1.076585   -0.337985
     50          1           0        5.082065    0.187461    3.185351
     51          1           0        2.997553   -0.706515    1.157199
     52          1           0        3.935992   -1.679703    2.274808
     53          1           0        2.774028   -0.496177    4.202609
     54          1           0        1.680697   -1.457425    3.237147
     55          1           0        1.209662    1.134049    3.954036
     56          1           0       -0.482196    1.391695    2.209859
     57          1           0        0.305038   -1.519008    1.685063
     58          1           0       -1.374710   -1.106287   -0.106977
     59          1           0       -1.932494    1.273349    0.340242
     60          1           0       -2.729187    0.818257    1.842877
     61          1           0       -3.565496   -0.045200   -0.983020
     62          1           0       -4.402388    1.120268    0.038292
     63          1           0       -4.912945   -0.650197    1.697469
     64          1           0       -8.116571    2.012162   -0.036951
     65          1           0       -8.026133   -2.066404   -1.483845
     66          1           0       -3.511611   -2.574901   -0.226197
     67          1           0       -4.310396   -3.016617    1.280464
     68          1           0       -2.660978   -1.699631    2.595232
     69          1           0       -1.831555   -2.867599    1.573917
     70          1           0        1.830274    2.776761    2.376503
     71          1           0        2.186284    1.603276    1.124485
     72          1           0        3.816523    1.995407    3.687329
     73          1           0        4.279097    2.606705    2.109522
     74          1           0        7.148924   -0.085820    2.252710
     75          1           0        8.710603   -0.016010    0.365307
 ---------------------------------------------------------------------

 SCF Done:  E(RB3LYP) =  -2051.70728199     A.U. after   14 cycles

 Excitation energies and oscillator strengths:

 Excited state symmetry could not be determined.
 Excited State   1:      Triplet-?Sym    3.7053 eV  334.61 nm  f=0.0000  <S**2>=2.000
     148 ->153        -0.42302
     150 ->154         0.55336
 This state for optimization and/or second-order correction.
 Total Energy, E(TD-HF/TD-DFT) =  -2051.57111340
 Copying the excited state density for this state as the 1-particle RhoCI density.

 Excited state symmetry could not be determined.
 Excited State   2:      Triplet-?Sym    4.1032 eV  302.17 nm  f=0.0000  <S**2>=2.000
     150 ->153         0.69283

 Excited state symmetry could not be determined.
 Excited State   3:      Singlet-?Sym    4.6065 eV  269.15 nm  f=0.0000  <S**2>=0.000
     150 ->151         0.70709

 Excited state symmetry could not be determined.
 Excited State   4:      Singlet-?Sym    4.9904 eV  248.45 nm  f=0.0000  <S**2>=0.000
     150 ->152         0.70711

 Alpha  occ. eigenvalues --  -24.72891 -24.72652 -24.72544 -24.72407 -24.72328
 Alpha  occ. eigenvalues --  -24.71945 -24.71945 -19.22146 -19.17158 -10.44062
 Alpha  occ. eigenvalues --  -10.41485 -10.30780 -10.30589 -10.29303 -10.24125
 Alpha  occ. eigenvalues --  -10.24004 -10.23001 -10.21530 -10.21486 -10.21478
 Alpha  occ. eigenvalues --  -10.19725 -10.19555 -10.19529 -10.19182 -10.19090
 Alpha  occ. eigenvalues --  -10.18976 -10.18928 -10.18859 -10.18435 -10.18403
 Alpha  occ. eigenvalues --  -10.18286 -10.18286 -10.18245 -10.18183 -10.18141
 Alpha  occ. eigenvalues --  -10.18014 -10.17934 -10.17888 -10.17804 -10.17505
 Alpha  occ. eigenvalues --   -1.30173  -1.27646  -1.24285  -1.24140  -1.21434
 Alpha  occ. eigenvalues --   -1.20995  -1.20896  -1.10617  -1.05791  -0.89594
 Alpha  occ. eigenvalues --   -0.85641  -0.85228  -0.83204  -0.81628  -0.79773
 Alpha  occ. eigenvalues --   -0.78995  -0.77851  -0.77040  -0.75375  -0.74246
 Alpha  occ. eigenvalues --   -0.74027  -0.73633  -0.72287  -0.70290  -0.68576
 Alpha  occ. eigenvalues --   -0.67806  -0.65557  -0.64643  -0.63538  -0.62452
 Alpha  occ. eigenvalues --   -0.61991  -0.61624  -0.60660  -0.59953  -0.59097
 Alpha  occ. eigenvalues --   -0.58539  -0.58292  -0.57920  -0.57838  -0.57037
 Alpha  occ. eigenvalues --   -0.56395  -0.55075  -0.53985  -0.53546  -0.53215
 Alpha  occ. eigenvalues --   -0.52610  -0.51708  -0.50514  -0.49354  -0.49176
 Alpha  occ. eigenvalues --   -0.48587  -0.48347  -0.47905  -0.47622  -0.47490
 Alpha  occ. eigenvalues --   -0.46981  -0.46827  -0.45749  -0.45547  -0.45354
 Alpha  occ. eigenvalues --   -0.45198  -0.44773  -0.44431  -0.43840  -0.43419
 Alpha  occ. eigenvalues --   -0.43304  -0.42903  -0.42410  -0.42236  -0.41674
 Alpha  occ. eigenvalues --   -0.41562  -0.41382  -0.41037  -0.40758  -0.40574
 Alpha  occ. eigenvalues --   -0.40417  -0.39506  -0.39448  -0.39385  -0.38969
 Alpha  occ. eigenvalues --   -0.38806  -0.38465  -0.37882  -0.37561  -0.37471
 Alpha  occ. eigenvalues --   -0.37147  -0.36735  -0.36595  -0.36029  -0.35856
 Alpha  occ. eigenvalues --   -0.35505  -0.35291  -0.34932  -0.34739  -0.34446
 Alpha  occ. eigenvalues --   -0.34234  -0.33619  -0.33265  -0.32058  -0.31674
 Alpha  occ. eigenvalues --   -0.31147  -0.30722  -0.30188  -0.29794  -0.29454
 Alpha  occ. eigenvalues --   -0.26602  -0.26316  -0.24535  -0.24171  -0.20908
 Alpha virt. eigenvalues --   -0.03305  -0.01902   0.00304   0.01768   0.02577
 Alpha virt. eigenvalues --    0.06325   0.07564   0.08384   0.08981   0.09280
 Alpha virt. eigenvalues --    0.09366   0.10317   0.10538   0.11050   0.11404

 Mulliken charges:
               1
     1  C   -0.443083
     2  C   -0.271211
     3  C   -0.027605
     4  O   -0.523213
     5  C    0.379277
     6  C   -0.177932
     7  C   -0.189702
     8  C    0.171648
     9  C   -0.162726
    10  C   -0.268170
    11  C   -0.282033
    12  C   -0.109790
    13  C   -0.121311
    14  C   -0.115797
    15  C   -0.114933
    16  C   -0.275435
    17  C   -0.282002
    18  C   -0.193028
    19  C    0.866488
    20  F   -0.304088
    21  F   -0.302092
    22  O   -0.559853
    23  C    0.386616
    24  C   -0.262514
    25  C    0.376835
    26  F   -0.273001
    27  C   -0.200579
    28  C    0.835816
    29  F   -0.263295
    30  F   -0.263276
    31  F   -0.260116
    32  C    0.362098
    33  F   -0.271719
    34  C   -0.252534
    35  C   -0.280489
    36  C   -0.269717
    37  C   -0.277651
    38  C   -0.276937
    39  C   -0.208427
    40  C   -0.191996
    41  H    0.166844
    42  H    0.140376
    43  H    0.144549
    44  H    0.136877
    45  H    0.150935
    46  H    0.137496
    47  H    0.135047
    48  H    0.133240
    49  H    0.127251
    50  H    0.122660
    51  H    0.140732
    52  H    0.134649
    53  H    0.130615
    54  H    0.138285
    55  H    0.128328
    56  H    0.118651
    57  H    0.119312
    58  H    0.129248
    59  H    0.143701
    60  H    0.135303
    61  H    0.146725
    62  H    0.152655
    63  H    0.153243
    64  H    0.169464
    65  H    0.183603
    66  H    0.147100
    67  H    0.152457
    68  H    0.137521
    69  H    0.137728
    70  H    0.131183
    71  H    0.143097
    72  H    0.131603
    73  H    0.145481
    74  H    0.121484
    75  H    0.130034
 Sum of Mulliken charges =  -0.00000

 Dipole moment (field-independent basis, Debye):
    X=              5.9080    Y=             -0.3495    Z=              2.4169  Tot=              6.3928
 Quadrupole moment (field-independent basis, Debye-Ang):
   XX=           -281.5819   YY=           -232.8654   ZZ=           -231.8561
   XY=             -0.1399   XZ=            -20.8147   YZ=              0.9971

 Normal termination of Gaussian 16 at Sat Nov  5 11:57:57 2022.
