 Gaussian 16, Revision B.01,
 Gaussian 16:  ES64L-G16RevB.01 20-Dec-2017

 -------------------------------------------------------------------
 #p b3lyp/6-31g(d) 6D 10F nosymm GFInput td=(50-50,nstate=2) SCF=XQC
 -------------------------------------------------------------------

 ------------------------------
 Gaussian input prepared by ASE
 ------------------------------
 Symbolic Z-matrix:
 Charge =  0 Multiplicity = 1

                          Input orientation:
 ---------------------------------------------------------------------
 Center     Atomic      Atomic             Coordinates (Angstroms)
 Number     Number       Type             X           Y           Z
 ---------------------------------------------------------------------
      1          6           0        4.738146    1.064262   -0.188503
      2          8           0        4.092109    0.482825   -1.303368
      3          6           0        3.380024   -0.708740   -0.983708
      4          6           0        2.152968   -0.486529   -0.140048
      5          6           0        1.752529   -1.219795    1.016642
      6          6           0        0.560757   -0.688563    1.459257
      7          7           0        0.219429    0.352088    0.624631
      8          6           0       -0.982188    1.166511    0.737019
      9          6           0       -2.271909    0.432262    0.404353
     10          6           0       -3.439070    0.717672    1.120703
     11          6           0       -4.644337    0.091202    0.797891
     12          6           0       -4.691663   -0.836024   -0.243435
     13          6           0       -3.528521   -1.131525   -0.958514
     14          6           0       -2.326669   -0.500912   -0.638092
     15          6           0        1.181627    0.474259   -0.352130
     16          1           0        4.025658    1.358535    0.595082
     17          1           0        5.476602    0.375143    0.254165
     18          1           0        5.259644    1.954158   -0.552118
     19          1           0        4.046252   -1.429111   -0.479273
     20          1           0        3.117521   -1.137442   -1.958188
     21          1           0        2.286387   -2.045968    1.469098
     22          1           0       -0.075173   -0.959685    2.290056
     23          1           0       -1.042594    1.576839    1.752085
     24          1           0       -0.847874    2.020341    0.062614
     25          1           0       -3.405812    1.434220    1.939079
     26          1           0       -5.541889    0.321847    1.365689
     27          1           0       -5.626911   -1.329631   -0.493496
     28          1           0       -3.556588   -1.856824   -1.767451
     29          1           0       -1.421898   -0.739438   -1.190659
     30          1           0        1.113447    1.248023   -1.104040
 ---------------------------------------------------------------------

 SCF Done:  E(RB3LYP) =  -634.358834823     A.U. after   14 cycles

 Excitation energies and oscillator strengths:

 Excited state symmetry could not be determined.
 Excited State   1:      Triplet-?Sym    3.7282 eV  332.56 nm  f=0.0000  <S**2>=2.000
      50 -> 55        -0.12262
      50 -> 56        -0.44559
      51 -> 55         0.46463
      51 -> 56        -0.10733
      52 -> 55        -0.13510
      53 -> 55        -0.13985
      54 -> 55         0.14866
 This state for optimization and/or second-order correction.
 Total Energy, E(TD-HF/TD-DFT) =  -634.221826250
 Copying the excited state density for this state as the 1-particle RhoCI density.

 Excited state symmetry could not be determined.
 Excited State   2:      Triplet-?Sym    3.9942 eV  310.41 nm  f=0.0000  <S**2>=2.000
      53 -> 58         0.12774
      54 -> 55        -0.10942
      54 -> 57         0.67300

 Excited state symmetry could not be determined.
 Excited State   3:      Singlet-?Sym    4.6413 eV  267.13 nm  f=0.0044  <S**2>=0.000
      54 -> 55         0.70519

 Excited state symmetry could not be determined.
 Excited State   4:      Singlet-?Sym    4.7758 eV  259.61 nm  f=0.0156  <S**2>=0.000
      54 -> 56         0.70353

 Alpha  occ. eigenvalues --  -19.13450 -14.37934 -10.23850 -10.22256 -10.21245
 Alpha  occ. eigenvalues --  -10.20280 -10.19642 -10.19622 -10.19468 -10.19404
 Alpha  occ. eigenvalues --  -10.19320 -10.19252 -10.19101 -10.16587 -10.16400
 Alpha  occ. eigenvalues --   -1.01525  -0.97840  -0.85959  -0.80845  -0.75707
 Alpha  occ. eigenvalues --   -0.74685  -0.72738  -0.70269  -0.67811  -0.62741
 Alpha  occ. eigenvalues --   -0.60908  -0.59358  -0.55624  -0.54288  -0.52407
 Alpha  occ. eigenvalues --   -0.50996  -0.47026  -0.46545  -0.46206  -0.45765
 Alpha  occ. eigenvalues --   -0.44340  -0.43199  -0.42446  -0.41992  -0.40473
 Alpha  occ. eigenvalues --   -0.40120  -0.38433  -0.37693  -0.36948  -0.36104
 Alpha  occ. eigenvalues --   -0.35801  -0.34429  -0.34330  -0.30004  -0.25333
 Alpha  occ. eigenvalues --   -0.25058  -0.24443  -0.22674  -0.20187
 Alpha virt. eigenvalues --   -0.00744  -0.00438   0.03693   0.07584   0.09392
 Alpha virt. eigenvalues --    0.10364   0.11473   0.12234   0.13458   0.14732
 Alpha virt. eigenvalues --    0.14835   0.15665   0.15796   0.15999   0.16717

 Mulliken charges:
               1
     1  C   -0.197557
     2  O   -0.455960
     3  C   -0.100245
     4  C    0.061082
     5  C   -0.227011
     6  C    0.025256
     7  N   -0.372865
     8  C   -0.233684
     9  C    0.158849
    10  C   -0.187841
    11  C   -0.127479
    12  C   -0.128244
    13  C   -0.130365
    14  C   -0.170277
    15  C   -0.015443
    16  H    0.141336
    17  H    0.122728
    18  H    0.150012
    19  H    0.119863
    20  H    0.148189
    21  H    0.118968
    22  H    0.144184
    23  H    0.164366
    24  H    0.174342
    25  H    0.124072
    26  H    0.131685
    27  H    0.131607
    28  H    0.133882
    29  H    0.148845
    30  H    0.147706
 Sum of Mulliken charges =  -0.00000

 Dipole moment (field-independent basis, Debye):
    X=             -2.0689    Y=              0.5201    Z=              1.2776  Tot=              2.4866
 Quadrupole moment (field-independent basis, Debye-Ang):
   XX=            -85.2371   YY=            -85.1109   ZZ=            -87.7477
   XY=             -0.8979   XZ=              2.8129   YZ=              3.3814

 Normal termination of Gaussian 16 at Sat Nov  5 11:54:52 2022.
