 Gaussian 16, Revision B.01,
 Gaussian 16:  ES64L-G16RevB.01 20-Dec-2017

 -----------------------------
 #p b3lyp/6-31g(d) opt SCF=XQC
 -----------------------------

 ------------------------------
 Gaussian input prepared by ASE
 ------------------------------
 Symbolic Z-matrix:
 Charge =  0 Multiplicity = 1

 SCF Done:  E(RB3LYP) =  -634.355253756     A.U. after   14 cycles
 SCF Done:  E(RB3LYP) =  -634.358561910     A.U. after   12 cycles
 SCF Done:  E(RB3LYP) =  -634.358707314     A.U. after   10 cycles
 SCF Done:  E(RB3LYP) =  -634.358728178     A.U. after   10 cycles
 SCF Done:  E(RB3LYP) =  -634.358737894     A.U. after    9 cycles
 SCF Done:  E(RB3LYP) =  -634.358748651     A.U. after   10 cycles
 SCF Done:  E(RB3LYP) =  -634.358755586     A.U. after   10 cycles
 SCF Done:  E(RB3LYP) =  -634.358762045     A.U. after   10 cycles
 SCF Done:  E(RB3LYP) =  -634.358776942     A.U. after   11 cycles
 SCF Done:  E(RB3LYP) =  -634.358782950     A.U. after   11 cycles
 SCF Done:  E(RB3LYP) =  -634.358828905     A.U. after   11 cycles
 SCF Done:  E(RB3LYP) =  -634.358829608     A.U. after    9 cycles
 SCF Done:  E(RB3LYP) =  -634.358831040     A.U. after   10 cycles
 SCF Done:  E(RB3LYP) =  -634.358831260     A.U. after    8 cycles
 SCF Done:  E(RB3LYP) =  -634.358831516     A.U. after    8 cycles
 SCF Done:  E(RB3LYP) =  -634.358831724     A.U. after    8 cycles
 SCF Done:  E(RB3LYP) =  -634.358832028     A.U. after    9 cycles
 SCF Done:  E(RB3LYP) =  -634.358832415     A.U. after    9 cycles
 SCF Done:  E(RB3LYP) =  -634.358832736     A.U. after    8 cycles
 SCF Done:  E(RB3LYP) =  -634.358832850     A.U. after    7 cycles
 Optimization completed.
    -- Stationary point found.

                         Standard orientation:
 ---------------------------------------------------------------------
 Center     Atomic      Atomic             Coordinates (Angstroms)
 Number     Number       Type             X           Y           Z
 ---------------------------------------------------------------------
      1          6           0       -4.887954   -0.679360   -0.542711
      2          8           0       -4.311982    0.560165   -0.903528
      3          6           0       -3.519439    1.135549    0.130824
      4          6           0       -2.237148    0.397054    0.408604
      5          6           0       -1.705507    0.032905    1.681678
      6          6           0       -0.507089   -0.612408    1.467667
      7          7           0       -0.287764   -0.669249    0.109459
      8          6           0        0.878939   -1.255675   -0.534517
      9          6           0        2.169227   -0.478319   -0.324657
     10          6           0        3.378090   -1.165612   -0.172480
     11          6           0        4.580033   -0.469896   -0.028769
     12          6           0        4.582836    0.925217   -0.028061
     13          6           0        3.378561    1.618392   -0.172241
     14          6           0        2.179615    0.921818   -0.320932
     15          6           0       -1.334142   -0.051592   -0.537384
     16          1           0       -4.126318   -1.437295   -0.311009
     17          1           0       -5.552529   -0.575926    0.331245
     18          1           0       -5.480193   -1.015468   -1.398501
     19          1           0       -4.105397    1.215914    1.062191
     20          1           0       -3.320526    2.156518   -0.216106
     21          1           0       -2.159103    0.226594    2.645534
     22          1           0        0.209264   -1.032548    2.159376
     23          1           0        1.005722   -2.284432   -0.176799
     24          1           0        0.647373   -1.323318   -1.603952
     25          1           0        3.380383   -2.253828   -0.164329
     26          1           0        5.510560   -1.018481    0.091085
     27          1           0        5.515898    1.469720    0.089324
     28          1           0        3.372319    2.705203   -0.167160
     29          1           0        1.243572    1.464030   -0.424199
     30          1           0       -1.366947   -0.001694   -1.616810
 ---------------------------------------------------------------------

 The electronic state is 1-A.
 Alpha  occ. eigenvalues --  -19.13450 -14.37934 -10.23850 -10.22256 -10.21245
 Alpha  occ. eigenvalues --  -10.20280 -10.19642 -10.19622 -10.19468 -10.19404
 Alpha  occ. eigenvalues --  -10.19320 -10.19252 -10.19101 -10.16587 -10.16400
 Alpha  occ. eigenvalues --   -1.01525  -0.97840  -0.85959  -0.80845  -0.75707
 Alpha  occ. eigenvalues --   -0.74685  -0.72738  -0.70269  -0.67811  -0.62741
 Alpha  occ. eigenvalues --   -0.60908  -0.59358  -0.55624  -0.54288  -0.52407
 Alpha  occ. eigenvalues --   -0.50996  -0.47026  -0.46545  -0.46206  -0.45765
 Alpha  occ. eigenvalues --   -0.44340  -0.43199  -0.42446  -0.41992  -0.40473
 Alpha  occ. eigenvalues --   -0.40120  -0.38433  -0.37693  -0.36948  -0.36104
 Alpha  occ. eigenvalues --   -0.35801  -0.34429  -0.34330  -0.30004  -0.25334
 Alpha  occ. eigenvalues --   -0.25058  -0.24443  -0.22674  -0.20187
 Alpha virt. eigenvalues --   -0.00744  -0.00438   0.03693   0.07584   0.09392
 Alpha virt. eigenvalues --    0.10364   0.11473   0.12234   0.13458   0.14732
 Alpha virt. eigenvalues --    0.14835   0.15665   0.15796   0.15999   0.16717

 Mulliken charges:
               1
     1  C   -0.197553
     2  O   -0.455959
     3  C   -0.100248
     4  C    0.061097
     5  C   -0.227019
     6  C    0.025271
     7  N   -0.372866
     8  C   -0.233704
     9  C    0.158854
    10  C   -0.187834
    11  C   -0.127483
    12  C   -0.128244
    13  C   -0.130361
    14  C   -0.170281
    15  C   -0.015450
    16  H    0.141334
    17  H    0.122726
    18  H    0.150012
    19  H    0.119863
    20  H    0.148189
    21  H    0.118968
    22  H    0.144180
    23  H    0.164368
    24  H    0.174345
    25  H    0.124071
    26  H    0.131686
    27  H    0.131607
    28  H    0.133881
    29  H    0.148845
    30  H    0.147704
 Sum of Mulliken charges =  -0.00000

 Dipole moment (field-independent basis, Debye):
    X=              2.1428    Y=             -1.2335    Z=              0.2644  Tot=              2.4866
 Quadrupole moment (field-independent basis, Debye-Ang):
   XX=            -86.2955   YY=            -83.2252   ZZ=            -89.1536
   XY=              1.7934   XZ=             -3.0999   YZ=              1.5675

 Normal termination of Gaussian 16 at Fri Nov  4 19:34:07 2022.
