 Gaussian 16, Revision B.01,
 Gaussian 16:  ES64L-G16RevB.01 20-Dec-2017

 -----------------------------
 #p b3lyp/6-31g(d) opt SCF=XQC
 -----------------------------

 ------------------------------
 Gaussian input prepared by ASE
 ------------------------------
 Symbolic Z-matrix:
 Charge =  0 Multiplicity = 1

 SCF Done:  E(RB3LYP) =  -1523.32694930     A.U. after   16 cycles
 SCF Done:  E(RB3LYP) =  -1523.33436411     A.U. after   12 cycles
 SCF Done:  E(RB3LYP) =  -1523.33502633     A.U. after   12 cycles
 SCF Done:  E(RB3LYP) =  -1523.33518075     A.U. after   11 cycles
 SCF Done:  E(RB3LYP) =  -1523.33527516     A.U. after   10 cycles
 SCF Done:  E(RB3LYP) =  -1523.33534918     A.U. after   10 cycles
 SCF Done:  E(RB3LYP) =  -1523.33540725     A.U. after   11 cycles
 SCF Done:  E(RB3LYP) =  -1523.33546748     A.U. after   11 cycles
 SCF Done:  E(RB3LYP) =  -1523.33205980     A.U. after   13 cycles
 SCF Done:  E(RB3LYP) =  -1523.33617083     A.U. after   12 cycles
 SCF Done:  E(RB3LYP) =  -1523.34326020     A.U. after   10 cycles
 SCF Done:  E(RB3LYP) =  -1523.34326370     A.U. after    9 cycles
 SCF Done:  E(RB3LYP) =  -1523.34326121     A.U. after    9 cycles
 SCF Done:  E(RB3LYP) =  -1523.34326451     A.U. after   10 cycles
 SCF Done:  E(RB3LYP) =  -1523.34326518     A.U. after    9 cycles
 SCF Done:  E(RB3LYP) =  -1523.34326603     A.U. after    9 cycles
 SCF Done:  E(RB3LYP) =  -1523.34326657     A.U. after    9 cycles
 SCF Done:  E(RB3LYP) =  -1523.34326710     A.U. after    9 cycles
 SCF Done:  E(RB3LYP) =  -1523.34326750     A.U. after    9 cycles
 SCF Done:  E(RB3LYP) =  -1523.34326758     A.U. after    7 cycles
 Optimization completed.
    -- Stationary point found.

                         Standard orientation:
 ---------------------------------------------------------------------
 Center     Atomic      Atomic             Coordinates (Angstroms)
 Number     Number       Type             X           Y           Z
 ---------------------------------------------------------------------
      1          6           0        1.147232    1.633848   -2.087865
      2          7           0        0.343164    0.854162   -1.138527
      3          6           0        0.817476   -0.409594   -0.778691
      4          6           0        2.277094   -0.451299   -0.437367
      5          6           0        2.844156    0.528846    0.394111
      6          6           0        4.185987    0.469513    0.755509
      7          6           0        4.993141   -0.567595    0.277887
      8          6           0        6.431191   -0.658915    0.708678
      9          9           0        6.565758   -1.353962    1.862992
     10          9           0        6.969821    0.562920    0.925143
     11          9           0        7.196708   -1.282044   -0.214732
     12          6           0        4.447122   -1.542633   -0.559565
     13          6           0        3.101433   -1.481621   -0.914615
     14          6           0        0.131373   -1.579356   -0.644197
     15          6           0       -1.254318   -1.956268   -0.989157
     16          8           0       -1.517706   -3.112187   -1.322991
     17          7           0       -2.218200   -0.975110   -0.921319
     18          6           0       -3.588049   -1.338765   -1.212576
     19          6           0       -4.418683   -1.748515   -0.004699
     20          7           0       -3.852723   -1.720415    1.206790
     21          6           0       -4.620880   -2.114956    2.230465
     22          6           0       -5.937682   -2.530020    2.061531
     23          6           0       -6.427922   -2.498896    0.756052
     24          7           0       -5.682782   -2.108795   -0.280353
     25          6           0       -1.930862    0.292455   -0.265270
     26          6           0       -1.082033    1.231756   -1.130523
     27          6           0       -1.258289    2.724105   -0.706285
     28          6           0       -2.692115    3.166950   -0.912061
     29          6           0       -3.350034    3.984145   -0.082892
     30          6           0       -2.732628    4.590635    1.152917
     31          6           0       -1.202903    4.444283    1.154595
     32          6           0       -0.783061    3.031153    0.726456
     33          1           0        2.086803    1.124742   -2.297264
     34          1           0        0.605071    1.747080   -3.038480
     35          1           0        1.383546    2.633611   -1.706833
     36          1           0        2.217900    1.332872    0.767641
     37          1           0        4.610131    1.228743    1.404707
     38          1           0        5.075939   -2.338378   -0.945071
     39          1           0        2.683679   -2.230493   -1.580280
     40          1           0        0.698184   -2.433498   -0.293019
     41          1           0       -4.097380   -0.507625   -1.717142
     42          1           0       -3.568809   -2.181157   -1.908025
     43          1           0       -4.158028   -2.093916    3.216112
     44          1           0       -6.549892   -2.853018    2.896849
     45          1           0       -7.451821   -2.795387    0.531759
     46          1           0       -2.883372    0.787165   -0.064745
     47          1           0       -1.457472    0.116104    0.705151
     48          1           0       -1.471188    1.153412   -2.161034
     49          1           0       -0.644151    3.320491   -1.397603
     50          1           0       -3.195009    2.793416   -1.805195
     51          1           0       -4.384259    4.246857   -0.302439
     52          1           0       -3.160502    4.112941    2.048677
     53          1           0       -3.013537    5.650280    1.224844
     54          1           0       -0.800712    4.677690    2.147731
     55          1           0       -0.769951    5.176266    0.458653
     56          1           0        0.305256    2.917143    0.790152
     57          1           0       -1.216046    2.305485    1.427409
 ---------------------------------------------------------------------

 The electronic state is 1-A.
 Alpha  occ. eigenvalues --  -24.72285 -24.72251 -24.71635 -19.09192 -14.36326
 Alpha  occ. eigenvalues --  -14.35013 -14.34119 -14.34006 -10.43071 -10.26880
 Alpha  occ. eigenvalues --  -10.26372 -10.24504 -10.24485 -10.24355 -10.23346
 Alpha  occ. eigenvalues --  -10.22281 -10.22082 -10.21908 -10.21770 -10.21589
 Alpha  occ. eigenvalues --  -10.21052 -10.21014 -10.20980 -10.20616 -10.20487
 Alpha  occ. eigenvalues --  -10.20279 -10.19310 -10.19181 -10.19019 -10.19019
 Alpha  occ. eigenvalues --  -10.18992 -10.17577  -1.29793  -1.21286  -1.20765
 Alpha  occ. eigenvalues --   -1.01453  -0.98977  -0.95730  -0.92230  -0.89083
 Alpha  occ. eigenvalues --   -0.87759  -0.84593  -0.81019  -0.80566  -0.77880
 Alpha  occ. eigenvalues --   -0.76627  -0.76085  -0.74834  -0.73417  -0.71600
 Alpha  occ. eigenvalues --   -0.69758  -0.67774  -0.66707  -0.66129  -0.64029
 Alpha  occ. eigenvalues --   -0.62900  -0.62298  -0.61146  -0.60236  -0.57612
 Alpha  occ. eigenvalues --   -0.57457  -0.56568  -0.56275  -0.54997  -0.52951
 Alpha  occ. eigenvalues --   -0.52305  -0.51619  -0.51001  -0.50849  -0.49568
 Alpha  occ. eigenvalues --   -0.48042  -0.47533  -0.46568  -0.46470  -0.45795
 Alpha  occ. eigenvalues --   -0.45197  -0.45003  -0.44926  -0.44487  -0.44447
 Alpha  occ. eigenvalues --   -0.43895  -0.43186  -0.42552  -0.42002  -0.41872
 Alpha  occ. eigenvalues --   -0.41766  -0.41395  -0.41029  -0.40929  -0.40126
 Alpha  occ. eigenvalues --   -0.39954  -0.39449  -0.39395  -0.38992  -0.38411
 Alpha  occ. eigenvalues --   -0.37556  -0.37291  -0.36835  -0.36775  -0.36062
 Alpha  occ. eigenvalues --   -0.35484  -0.35261  -0.33425  -0.32488  -0.31786
 Alpha  occ. eigenvalues --   -0.31546  -0.30794  -0.30532  -0.27932  -0.26804
 Alpha  occ. eigenvalues --   -0.26555  -0.25318  -0.25066  -0.23736  -0.22597
 Alpha  occ. eigenvalues --   -0.20493
 Alpha virt. eigenvalues --   -0.04572  -0.04149  -0.02586  -0.01827   0.00581
 Alpha virt. eigenvalues --    0.01370   0.06417   0.08317   0.09143   0.09475
 Alpha virt. eigenvalues --    0.09993   0.10047   0.11372   0.11762   0.12031

 Mulliken charges:
               1
     1  C   -0.326989
     2  N   -0.473109
     3  C    0.292145
     4  C    0.056535
     5  C   -0.167230
     6  C   -0.165664
     7  C   -0.004872
     8  C    0.783304
     9  F   -0.260740
    10  F   -0.271723
    11  F   -0.270180
    12  C   -0.164931
    13  C   -0.174383
    14  C   -0.299907
    15  C    0.605718
    16  O   -0.542155
    17  N   -0.425808
    18  C   -0.219191
    19  C    0.438066
    20  N   -0.428061
    21  C    0.058965
    22  C   -0.152184
    23  C    0.059768
    24  N   -0.432706
    25  C   -0.183711
    26  C    0.054688
    27  C   -0.131792
    28  C   -0.116181
    29  C   -0.116479
    30  C   -0.296453
    31  C   -0.269888
    32  C   -0.284960
    33  H    0.180057
    34  H    0.154022
    35  H    0.159338
    36  H    0.153112
    37  H    0.154581
    38  H    0.158080
    39  H    0.158795
    40  H    0.154493
    41  H    0.163177
    42  H    0.214346
    43  H    0.153376
    44  H    0.148943
    45  H    0.154125
    46  H    0.167654
    47  H    0.180270
    48  H    0.130339
    49  H    0.141999
    50  H    0.121985
    51  H    0.126165
    52  H    0.148048
    53  H    0.144978
    54  H    0.135355
    55  H    0.137463
    56  H    0.144923
    57  H    0.144479
 Sum of Mulliken charges =  -0.00000

 Dipole moment (field-independent basis, Debye):
    X=             -3.3135    Y=              4.6942    Z=              1.5353  Tot=              5.9474
 Quadrupole moment (field-independent basis, Debye-Ang):
   XX=           -185.2258   YY=           -187.0800   ZZ=           -177.2027
   XY=              0.2242   XZ=            -18.5410   YZ=             -7.8505

 Normal termination of Gaussian 16 at Fri Nov  4 21:06:17 2022.
