 Gaussian 16, Revision B.01,
 Gaussian 16:  ES64L-G16RevB.01 20-Dec-2017

 -------------------------------------------------------------------
 #p b3lyp/6-31g(d) 6D 10F nosymm GFInput td=(50-50,nstate=2) SCF=XQC
 -------------------------------------------------------------------

 ------------------------------
 Gaussian input prepared by ASE
 ------------------------------
 Symbolic Z-matrix:
 Charge =  0 Multiplicity = 1

                          Input orientation:
 ---------------------------------------------------------------------
 Center     Atomic      Atomic             Coordinates (Angstroms)
 Number     Number       Type             X           Y           Z
 ---------------------------------------------------------------------
      1          6           0       -2.013430   -0.207363   -2.107281
      2          7           0       -0.991426    0.102889   -1.099844
      3          6           0       -1.008025    1.381932   -0.538323
      4          6           0       -2.366396    1.858315   -0.118070
      5          6           0       -3.231788    1.010569    0.593280
      6          6           0       -4.473367    1.460761    1.029686
      7          6           0       -4.880826    2.768512    0.748654
      8          6           0       -6.201973    3.270135    1.263292
      9          9           0       -6.091361    3.785335    2.510678
     10          9           0       -7.123310    2.281980    1.330733
     11          9           0       -6.711297    4.247074    0.480239
     12          6           0       -4.036965    3.619482    0.031778
     13          6           0       -2.792322    3.165466   -0.398798
     14          6           0        0.034686    2.218671   -0.274141
     15          6           0        1.465682    2.156798   -0.634170
     16          8           0        2.105634    3.193917   -0.812531
     17          7           0        2.039149    0.910985   -0.758383
     18          6           0        3.450796    0.833910   -1.066400
     19          6           0        4.372413    0.751916    0.142200
     20          7           0        3.831746    0.730871    1.365327
     21          6           0        4.689252    0.683795    2.392998
     22          6           0        6.068584    0.653649    2.216027
     23          6           0        6.517825    0.659378    0.895524
     24          7           0        5.683463    0.704802   -0.145305
     25          6           0        1.339074   -0.271036   -0.276296
     26          6           0        0.220848   -0.727478   -1.221119
     27          6           0       -0.119749   -2.238630   -1.024746
     28          6           0        1.078271   -3.099941   -1.367095
     29          6           0        1.420394   -4.206815   -0.699286
     30          6           0        0.634943   -4.751990    0.467803
     31          6           0       -0.754168   -4.102999    0.571058
     32          6           0       -0.669587   -2.583176    0.372334
     33          1           0       -2.724479    0.613060   -2.191823
     34          1           0       -1.542885   -0.349510   -3.091563
     35          1           0       -2.574841   -1.115599   -1.861350
     36          1           0       -2.915427   -0.003940    0.814337
     37          1           0       -5.129494    0.798237    1.584976
     38          1           0       -4.358560    4.628978   -0.202165
     39          1           0       -2.145740    3.823016   -0.971506
     40          1           0       -0.208026    3.149284    0.225069
     41          1           0        3.647103   -0.032638   -1.710880
     42          1           0        3.718084    1.729545   -1.632120
     43          1           0        4.247739    0.669170    3.388502
     44          1           0        6.754928    0.621114    3.055526
     45          1           0        7.581340    0.625712    0.662313
     46          1           0        2.067173   -1.081063   -0.199146
     47          1           0        0.954669   -0.096305    0.732969
     48          1           0        0.612460   -0.628015   -2.248874
     49          1           0       -0.900606   -2.481558   -1.760960
     50          1           0        1.677244   -2.785177   -2.222824
     51          1           0        2.303721   -4.764511   -1.008392
     52          1           0        1.200500   -4.588095    1.398897
     53          1           0        0.539375   -5.842264    0.372404
     54          1           0       -1.210737   -4.336536    1.540368
     55          1           0       -1.410660   -4.532059   -0.198686
     56          1           0       -1.654444   -2.121795    0.508981
     57          1           0       -0.015204   -2.160762    1.146125
 ---------------------------------------------------------------------

 SCF Done:  E(RB3LYP) =  -1523.34327620     A.U. after   16 cycles

 Excitation energies and oscillator strengths:

 Excited state symmetry could not be determined.
 Excited State   1:      Triplet-?Sym    2.7533 eV  450.32 nm  f=0.0000  <S**2>=2.000
     111 ->117        -0.11158
     116 ->117         0.64370
     116 ->121         0.21401
 This state for optimization and/or second-order correction.
 Total Energy, E(TD-HF/TD-DFT) =  -1523.24209554
 Copying the excited state density for this state as the 1-particle RhoCI density.

 Excited state symmetry could not be determined.
 Excited State   2:      Triplet-?Sym    3.6612 eV  338.64 nm  f=0.0000  <S**2>=2.000
     110 ->120         0.34907
     111 ->117        -0.42099
     111 ->121         0.14073
     114 ->117        -0.21272
     115 ->117         0.24015
     116 ->121        -0.20227

 Excited state symmetry could not be determined.
 Excited State   3:      Singlet-?Sym    3.7954 eV  326.67 nm  f=0.1385  <S**2>=0.000
     115 ->117        -0.10833
     116 ->117         0.68958

 Excited state symmetry could not be determined.
 Excited State   4:      Singlet-?Sym    3.9720 eV  312.14 nm  f=0.0005  <S**2>=0.000
     116 ->118         0.70329

 Alpha  occ. eigenvalues --  -24.72285 -24.72251 -24.71635 -19.09192 -14.36326
 Alpha  occ. eigenvalues --  -14.35013 -14.34119 -14.34006 -10.43071 -10.26880
 Alpha  occ. eigenvalues --  -10.26372 -10.24504 -10.24485 -10.24355 -10.23346
 Alpha  occ. eigenvalues --  -10.22281 -10.22082 -10.21908 -10.21770 -10.21589
 Alpha  occ. eigenvalues --  -10.21052 -10.21013 -10.20980 -10.20616 -10.20487
 Alpha  occ. eigenvalues --  -10.20279 -10.19310 -10.19181 -10.19019 -10.19019
 Alpha  occ. eigenvalues --  -10.18992 -10.17577  -1.29793  -1.21286  -1.20765
 Alpha  occ. eigenvalues --   -1.01453  -0.98977  -0.95729  -0.92230  -0.89083
 Alpha  occ. eigenvalues --   -0.87759  -0.84593  -0.81019  -0.80566  -0.77880
 Alpha  occ. eigenvalues --   -0.76627  -0.76085  -0.74834  -0.73417  -0.71600
 Alpha  occ. eigenvalues --   -0.69758  -0.67774  -0.66707  -0.66129  -0.64029
 Alpha  occ. eigenvalues --   -0.62900  -0.62298  -0.61146  -0.60236  -0.57612
 Alpha  occ. eigenvalues --   -0.57457  -0.56568  -0.56275  -0.54997  -0.52951
 Alpha  occ. eigenvalues --   -0.52305  -0.51619  -0.51001  -0.50849  -0.49568
 Alpha  occ. eigenvalues --   -0.48042  -0.47533  -0.46568  -0.46470  -0.45795
 Alpha  occ. eigenvalues --   -0.45197  -0.45003  -0.44927  -0.44487  -0.44447
 Alpha  occ. eigenvalues --   -0.43895  -0.43186  -0.42552  -0.42002  -0.41872
 Alpha  occ. eigenvalues --   -0.41766  -0.41395  -0.41029  -0.40929  -0.40126
 Alpha  occ. eigenvalues --   -0.39954  -0.39449  -0.39395  -0.38992  -0.38411
 Alpha  occ. eigenvalues --   -0.37556  -0.37291  -0.36835  -0.36775  -0.36062
 Alpha  occ. eigenvalues --   -0.35484  -0.35261  -0.33425  -0.32488  -0.31786
 Alpha  occ. eigenvalues --   -0.31546  -0.30794  -0.30532  -0.27932  -0.26804
 Alpha  occ. eigenvalues --   -0.26555  -0.25318  -0.25066  -0.23736  -0.22597
 Alpha  occ. eigenvalues --   -0.20493
 Alpha virt. eigenvalues --   -0.04572  -0.04149  -0.02586  -0.01827   0.00581
 Alpha virt. eigenvalues --    0.01370   0.06417   0.08317   0.09143   0.09475
 Alpha virt. eigenvalues --    0.09993   0.10047   0.11372   0.11762   0.12031

 Mulliken charges:
               1
     1  C   -0.326992
     2  N   -0.473069
     3  C    0.292113
     4  C    0.056535
     5  C   -0.167230
     6  C   -0.165669
     7  C   -0.004868
     8  C    0.783275
     9  F   -0.260735
    10  F   -0.271719
    11  F   -0.270175
    12  C   -0.164916
    13  C   -0.174388
    14  C   -0.299894
    15  C    0.605702
    16  O   -0.542147
    17  N   -0.425801
    18  C   -0.219175
    19  C    0.438055
    20  N   -0.428055
    21  C    0.058960
    22  C   -0.152177
    23  C    0.059771
    24  N   -0.432708
    25  C   -0.183690
    26  C    0.054635
    27  C   -0.131795
    28  C   -0.116166
    29  C   -0.116492
    30  C   -0.296453
    31  C   -0.269903
    32  C   -0.284948
    33  H    0.180057
    34  H    0.154023
    35  H    0.159337
    36  H    0.153112
    37  H    0.154584
    38  H    0.158080
    39  H    0.158796
    40  H    0.154492
    41  H    0.163173
    42  H    0.214346
    43  H    0.153375
    44  H    0.148941
    45  H    0.154124
    46  H    0.167653
    47  H    0.180272
    48  H    0.130347
    49  H    0.141999
    50  H    0.121986
    51  H    0.126167
    52  H    0.148048
    53  H    0.144980
    54  H    0.135358
    55  H    0.137466
    56  H    0.144921
    57  H    0.144479
 Sum of Mulliken charges =  -0.00000

 Dipole moment (field-independent basis, Debye):
    X=              1.5239    Y=             -5.7096    Z=              0.6707  Tot=              5.9474
 Quadrupole moment (field-independent basis, Debye-Ang):
   XX=           -186.4068   YY=           -194.0543   ZZ=           -176.9681
   XY=             -0.3998   XZ=             19.7581   YZ=             -0.7668

 Normal termination of Gaussian 16 at Sat Nov  5 12:26:14 2022.
