 Gaussian 16, Revision B.01,
 Gaussian 16:  ES64L-G16RevB.01 20-Dec-2017

 -------------------------------------------------------------------
 #p b3lyp/6-31g(d) 6D 10F nosymm GFInput td=(50-50,nstate=2) SCF=XQC
 -------------------------------------------------------------------

 ------------------------------
 Gaussian input prepared by ASE
 ------------------------------
 Symbolic Z-matrix:
 Charge =  0 Multiplicity = 1

                          Input orientation:
 ---------------------------------------------------------------------
 Center     Atomic      Atomic             Coordinates (Angstroms)
 Number     Number       Type             X           Y           Z
 ---------------------------------------------------------------------
      1          6           0       -5.782772    2.938825    0.016908
      2          8           0       -5.127715    2.045203    0.905288
      3          6           0       -4.049383    1.338537    0.456664
      4          6           0       -3.523011    1.471783   -0.830184
      5          6           0       -2.415050    0.729315   -1.257760
      6          6           0       -1.930743    0.911076   -2.678842
      7          6           0       -1.815691   -0.150481   -0.333743
      8          6           0       -0.684662   -1.025912   -0.741011
      9          7           0       -0.783053   -1.724703   -1.830630
     10          6           0        0.248371   -2.558919   -2.202019
     11          6           0        0.131679   -3.295479   -3.399216
     12          6           0        1.142909   -4.159072   -3.783289
     13          6           0        2.295557   -4.319019   -2.988414
     14          6           0        2.427197   -3.607835   -1.808572
     15          6           0        1.407908   -2.722608   -1.409831
     16          6           0        1.533844   -1.952723   -0.184912
     17          8           0        2.476952   -2.029159    0.613072
     18          7           0        0.478192   -1.056808    0.050276
     19          7           0        0.483522   -0.366292    1.295864
     20          6           0        1.394312    0.522629    1.453217
     21          6           0        2.388376    1.083085    0.514618
     22          6           0        2.035552    1.473254   -0.781321
     23          6           0        2.979821    2.102639   -1.585549
     24          7           0        2.592282    2.518805   -2.940680
     25          8           0        3.439174    3.088323   -3.626287
     26          8           0        1.442698    2.273623   -3.310467
     27          6           0        4.277060    2.362229   -1.141993
     28          6           0        4.632689    1.980360    0.145954
     29          6           0        3.697175    1.352229    0.973952
     30          8           0        4.068736    1.039350    2.254541
     31          6           0        4.337268   -0.352713    2.516906
     32          6           0        5.484534   -0.870037    1.624510
     33          8           0        6.579514   -0.358856    1.646861
     34          8           0        5.200283   -1.914510    0.833869
     35          6           0       -2.364243   -0.278514    0.956915
     36          6           0       -3.475997    0.438414    1.382499
     37          6           0       -4.061165    0.307878    2.783651
     38          6           0       -3.772582   -1.044988    3.450772
     39          6           0       -3.588315    1.469480    3.683370
     40          1           0       -5.112956    3.743976   -0.311037
     41          1           0       -6.611182    3.366934    0.584026
     42          1           0       -6.176502    2.414476   -0.863016
     43          1           0       -3.975151    2.162656   -1.532575
     44          1           0       -2.171444    0.034347   -3.287947
     45          1           0       -0.846933    1.049732   -2.743485
     46          1           0       -2.403355    1.787726   -3.132448
     47          1           0       -0.765177   -3.163273   -3.995539
     48          1           0        1.047446   -4.721543   -4.708027
     49          1           0        3.080691   -4.999753   -3.303345
     50          1           0        3.308053   -3.712111   -1.184018
     51          1           0        1.412874    0.939731    2.461130
     52          1           0        1.030942    1.329716   -1.155492
     53          1           0        4.981820    2.848410   -1.805089
     54          1           0        5.633367    2.141062    0.530272
     55          1           0        4.674474   -0.380206    3.554919
     56          1           0        3.426062   -0.944626    2.406353
     57          1           0        4.231073   -2.092075    0.797480
     58          1           0       -1.901265   -0.974953    1.644022
     59          1           0       -5.149153    0.402085    2.681402
     60          1           0       -4.323185   -1.118501    4.395329
     61          1           0       -2.708781   -1.167638    3.687131
     62          1           0       -4.077819   -1.883779    2.815228
     63          1           0       -3.846626    2.438149    3.245263
     64          1           0       -2.500806    1.434205    3.821790
     65          1           0       -4.057688    1.406845    4.672683
 ---------------------------------------------------------------------

 SCF Done:  E(RB3LYP) =  -1828.09892307     A.U. after   16 cycles

 Excitation energies and oscillator strengths:

 Excited state symmetry could not be determined.
 Excited State   1:      Triplet-?Sym    2.8171 eV  440.12 nm  f=0.0000  <S**2>=2.000
     124 ->140        -0.43500
     124 ->141        -0.10970
     125 ->140         0.42765
     125 ->141         0.11073
     126 ->140         0.11615
     131 ->140        -0.15156
     139 ->140         0.19160
     124 <-140        -0.10343
     125 <-140         0.10162
 This state for optimization and/or second-order correction.
 Total Energy, E(TD-HF/TD-DFT) =  -1827.99539802
 Copying the excited state density for this state as the 1-particle RhoCI density.

 Excited state symmetry could not be determined.
 Excited State   2:      Triplet-?Sym    2.8428 eV  436.14 nm  f=0.0000  <S**2>=2.000
     124 ->140         0.12804
     125 ->140        -0.13741
     139 ->140         0.61192
     139 ->141        -0.15256
     139 ->142        -0.11043
     139 ->143        -0.13546

 Excited state symmetry could not be determined.
 Excited State   3:      Singlet-?Sym    2.8699 eV  432.02 nm  f=0.0018  <S**2>=0.000
     139 ->140         0.70584

 Excited state symmetry could not be determined.
 Excited State   4:      Singlet-?Sym    3.2034 eV  387.04 nm  f=0.0149  <S**2>=0.000
     139 ->141         0.70436

 Alpha  occ. eigenvalues --  -19.19788 -19.19049 -19.19027 -19.18991 -19.18109
 Alpha  occ. eigenvalues --  -19.15335 -19.12974 -14.58201 -14.44279 -14.40154
 Alpha  occ. eigenvalues --  -14.34305 -10.32559 -10.31630 -10.29559 -10.28808
 Alpha  occ. eigenvalues --  -10.27694 -10.26601 -10.26186 -10.25577 -10.25045
 Alpha  occ. eigenvalues --  -10.24727 -10.24355 -10.24098 -10.23581 -10.22379
 Alpha  occ. eigenvalues --  -10.21992 -10.21470 -10.21392 -10.21079 -10.20976
 Alpha  occ. eigenvalues --  -10.20643 -10.20475 -10.19588 -10.19486 -10.19461
 Alpha  occ. eigenvalues --  -10.19152 -10.17972 -10.17597 -10.17391  -1.23359
 Alpha  occ. eigenvalues --   -1.09719  -1.08560  -1.07937  -1.07496  -1.06053
 Alpha  occ. eigenvalues --   -1.02754  -1.00959  -0.96843  -0.90780  -0.88265
 Alpha  occ. eigenvalues --   -0.87196  -0.86091  -0.82183  -0.81191  -0.79903
 Alpha  occ. eigenvalues --   -0.78913  -0.77437  -0.76039  -0.75279  -0.75213
 Alpha  occ. eigenvalues --   -0.71637  -0.70767  -0.69508  -0.69039  -0.68254
 Alpha  occ. eigenvalues --   -0.66980  -0.66150  -0.62952  -0.62318  -0.61505
 Alpha  occ. eigenvalues --   -0.61265  -0.60493  -0.59623  -0.57829  -0.57337
 Alpha  occ. eigenvalues --   -0.56975  -0.55724  -0.54419  -0.54094  -0.53029
 Alpha  occ. eigenvalues --   -0.52504  -0.52130  -0.51541  -0.50955  -0.50483
 Alpha  occ. eigenvalues --   -0.49892  -0.49452  -0.48587  -0.48197  -0.47870
 Alpha  occ. eigenvalues --   -0.47289  -0.46651  -0.46096  -0.45628  -0.45212
 Alpha  occ. eigenvalues --   -0.45059  -0.44748  -0.44173  -0.43190  -0.43141
 Alpha  occ. eigenvalues --   -0.42666  -0.42138  -0.41924  -0.40989  -0.40759
 Alpha  occ. eigenvalues --   -0.40455  -0.39968  -0.39448  -0.39201  -0.38934
 Alpha  occ. eigenvalues --   -0.38622  -0.38477  -0.37923  -0.37665  -0.37161
 Alpha  occ. eigenvalues --   -0.36625  -0.36159  -0.35478  -0.35352  -0.34422
 Alpha  occ. eigenvalues --   -0.33954  -0.32984  -0.31981  -0.31942  -0.31858
 Alpha  occ. eigenvalues --   -0.31729  -0.31584  -0.30554  -0.30068  -0.29912
 Alpha  occ. eigenvalues --   -0.29119  -0.28522  -0.27981  -0.27872  -0.27290
 Alpha  occ. eigenvalues --   -0.26179  -0.24725  -0.24370  -0.22043
 Alpha virt. eigenvalues --   -0.09882  -0.08173  -0.05827  -0.05492  -0.02173
 Alpha virt. eigenvalues --   -0.00511  -0.00353  -0.00062   0.00388   0.01924
 Alpha virt. eigenvalues --    0.06052   0.07373   0.08606   0.08939   0.09265

 Mulliken charges:
               1
     1  C   -0.217312
     2  O   -0.510995
     3  C    0.347259
     4  C   -0.273554
     5  C    0.163108
     6  C   -0.543301
     7  C    0.029132
     8  C    0.408589
     9  N   -0.543597
    10  C    0.254765
    11  C   -0.157382
    12  C   -0.124727
    13  C   -0.136523
    14  C   -0.172614
    15  C    0.066655
    16  C    0.612901
    17  O   -0.581819
    18  N   -0.459795
    19  N   -0.207378
    20  C    0.025867
    21  C    0.084469
    22  C   -0.204597
    23  C    0.278860
    24  N    0.386584
    25  O   -0.387681
    26  O   -0.405763
    27  C   -0.151429
    28  C   -0.161222
    29  C    0.320019
    30  O   -0.518531
    31  C   -0.150575
    32  C    0.557843
    33  O   -0.444008
    34  O   -0.595934
    35  C   -0.217042
    36  C    0.112667
    37  C   -0.136549
    38  C   -0.456310
    39  C   -0.438529
    40  H    0.156851
    41  H    0.173150
    42  H    0.157853
    43  H    0.131052
    44  H    0.184860
    45  H    0.184655
    46  H    0.149015
    47  H    0.152839
    48  H    0.146504
    49  H    0.147089
    50  H    0.163985
    51  H    0.194094
    52  H    0.203914
    53  H    0.196325
    54  H    0.189695
    55  H    0.189954
    56  H    0.185289
    57  H    0.462683
    58  H    0.154833
    59  H    0.147610
    60  H    0.144192
    61  H    0.147688
    62  H    0.149517
    63  H    0.155560
    64  H    0.139328
    65  H    0.139917
 Sum of Mulliken charges =  -0.00000

 Dipole moment (field-independent basis, Debye):
    X=             -5.4560    Y=             -0.0242    Z=              0.5986  Tot=              5.4888
 Quadrupole moment (field-independent basis, Debye-Ang):
   XX=           -243.2525   YY=           -212.1017   ZZ=           -223.7226
   XY=            -10.5973   XZ=              0.8269   YZ=             13.8631

 Normal termination of Gaussian 16 at Sat Nov  5 12:05:10 2022.
