 Gaussian 16, Revision B.01,
 Gaussian 16:  ES64L-G16RevB.01 20-Dec-2017

 -----------------------------
 #p b3lyp/6-31g(d) opt SCF=XQC
 -----------------------------

 ------------------------------
 Gaussian input prepared by ASE
 ------------------------------
 Symbolic Z-matrix:
 Charge =  0 Multiplicity = 1

 SCF Done:  E(RB3LYP) =  -1828.07415057     A.U. after   16 cycles
 SCF Done:  E(RB3LYP) =  -1828.08088930     A.U. after   17 cycles
 SCF Done:  E(RB3LYP) =  -1828.08241755     A.U. after   17 cycles
 SCF Done:  E(RB3LYP) =  -1828.08645731     A.U. after   15 cycles
 SCF Done:  E(RB3LYP) =  -1828.08573536     A.U. after   14 cycles
 SCF Done:  E(RB3LYP) =  -1828.08617673     A.U. after   15 cycles
 SCF Done:  E(RB3LYP) =  -1828.08740880     A.U. after   11 cycles
 SCF Done:  E(RB3LYP) =  -1828.08748367     A.U. after   13 cycles
 SCF Done:  E(RB3LYP) =  -1828.08744244     A.U. after   14 cycles
 SCF Done:  E(RB3LYP) =  -1828.08783044     A.U. after   13 cycles
 SCF Done:  E(RB3LYP) =  -1828.09857960     A.U. after   12 cycles
 SCF Done:  E(RB3LYP) =  -1828.09880241     A.U. after   12 cycles
 SCF Done:  E(RB3LYP) =  -1828.09886497     A.U. after   12 cycles
 SCF Done:  E(RB3LYP) =  -1828.09887855     A.U. after   10 cycles
 SCF Done:  E(RB3LYP) =  -1828.09888766     A.U. after   10 cycles
 SCF Done:  E(RB3LYP) =  -1828.09890643     A.U. after   11 cycles
 SCF Done:  E(RB3LYP) =  -1828.09891596     A.U. after   11 cycles
 SCF Done:  E(RB3LYP) =  -1828.09891825     A.U. after    9 cycles
 SCF Done:  E(RB3LYP) =  -1828.09891970     A.U. after    9 cycles
 SCF Done:  E(RB3LYP) =  -1828.09891986     A.U. after    7 cycles
 Optimization completed.
    -- Stationary point found.

                         Standard orientation:
 ---------------------------------------------------------------------
 Center     Atomic      Atomic             Coordinates (Angstroms)
 Number     Number       Type             X           Y           Z
 ---------------------------------------------------------------------
      1          6           0       -6.713568   -0.429783    1.959586
      2          8           0       -6.055598   -0.794609    0.755070
      3          6           0       -4.821372   -0.274199    0.491820
      4          6           0       -4.142943    0.578089    1.365970
      5          6           0       -2.876940    1.094893    1.062973
      6          6           0       -2.228068    2.037771    2.051412
      7          6           0       -2.280771    0.705617   -0.153632
      8          6           0       -0.973167    1.274320   -0.575791
      9          7           0       -0.794773    2.559322   -0.528828
     10          6           0        0.403627    3.097690   -0.943169
     11          6           0        0.586079    4.494204   -0.866488
     12          6           0        1.771500    5.063303   -1.298685
     13          6           0        2.806699    4.263449   -1.822710
     14          6           0        2.645560    2.891713   -1.909409
     15          6           0        1.446557    2.300591   -1.468346
     16          6           0        1.263562    0.861381   -1.533141
     17          8           0        2.080078    0.057859   -2.001893
     18          7           0        0.051103    0.404112   -0.991639
     19          7           0       -0.239368   -0.982266   -1.139683
     20          6           0        0.478651   -1.793585   -0.453618
     21          6           0        1.491746   -1.557591    0.595757
     22          6           0        1.271341   -0.651352    1.638028
     23          6           0        2.204894   -0.551076    2.664174
     24          7           0        1.954924    0.396032    3.759739
     25          8           0        2.786180    0.454400    4.663752
     26          8           0        0.928102    1.075349    3.709099
     27          6           0        3.362617   -1.329436    2.692298
     28          6           0        3.585543   -2.234397    1.661545
     29          6           0        2.656865   -2.356415    0.623285
     30          8           0        2.884956   -3.296839   -0.345960
     31          6           0        3.339635   -2.799400   -1.620561
     32          6           0        4.674220   -2.039952   -1.471106
     33          8           0        5.654182   -2.573743   -1.006855
     34          8           0        4.685198   -0.766055   -1.888121
     35          6           0       -2.982253   -0.147871   -1.026892
     36          6           0       -4.247430   -0.648193   -0.743851
     37          6           0       -5.000277   -1.581619   -1.684394
     38          6           0       -4.591400   -1.436627   -3.157614
     39          6           0       -4.862593   -3.048373   -1.223878
     40          1           0       -6.146122   -0.751864    2.842047
     41          1           0       -7.675052   -0.945873    1.940542
     42          1           0       -6.882666    0.653153    2.013306
     43          1           0       -4.596409    0.861089    2.309034
     44          1           0       -2.228836    3.063508    1.670017
     45          1           0       -1.184556    1.781701    2.260123
     46          1           0       -2.768495    2.022118    3.002901
     47          1           0       -0.223900    5.094411   -0.465096
     48          1           0        1.906161    6.139578   -1.234455
     49          1           0        3.731207    4.724437   -2.157060
     50          1           0        3.431195    2.256771   -2.304977
     51          1           0        0.281002   -2.840467   -0.688530
     52          1           0        0.369698   -0.055486    1.680844
     53          1           0        4.065792   -1.212931    3.507606
     54          1           0        4.479028   -2.847060    1.626748
     55          1           0        3.522153   -3.693910   -2.219288
     56          1           0        2.565138   -2.189305   -2.090472
     57          1           0        3.774609   -0.431560   -2.064652
     58          1           0       -2.515071   -0.417793   -1.965175
     59          1           0       -6.062223   -1.318232   -1.607270
     60          1           0       -5.253598   -2.040451   -3.788205
     61          1           0       -3.567830   -1.787381   -3.336099
     62          1           0       -4.657563   -0.396642   -3.496304
     63          1           0       -5.211515   -3.173051   -0.194465
     64          1           0       -3.816150   -3.373293   -1.273529
     65          1           0       -5.453874   -3.711677   -1.866831
 ---------------------------------------------------------------------

 The electronic state is 1-A.
 Alpha  occ. eigenvalues --  -19.19788 -19.19049 -19.19027 -19.18991 -19.18109
 Alpha  occ. eigenvalues --  -19.15335 -19.12974 -14.58201 -14.44279 -14.40155
 Alpha  occ. eigenvalues --  -14.34305 -10.32559 -10.31630 -10.29559 -10.28808
 Alpha  occ. eigenvalues --  -10.27694 -10.26601 -10.26186 -10.25577 -10.25045
 Alpha  occ. eigenvalues --  -10.24727 -10.24355 -10.24098 -10.23581 -10.22379
 Alpha  occ. eigenvalues --  -10.21992 -10.21469 -10.21392 -10.21079 -10.20976
 Alpha  occ. eigenvalues --  -10.20643 -10.20475 -10.19588 -10.19486 -10.19461
 Alpha  occ. eigenvalues --  -10.19152 -10.17972 -10.17597 -10.17391  -1.23359
 Alpha  occ. eigenvalues --   -1.09719  -1.08560  -1.07938  -1.07496  -1.06053
 Alpha  occ. eigenvalues --   -1.02754  -1.00959  -0.96843  -0.90780  -0.88265
 Alpha  occ. eigenvalues --   -0.87196  -0.86091  -0.82183  -0.81191  -0.79903
 Alpha  occ. eigenvalues --   -0.78913  -0.77437  -0.76039  -0.75279  -0.75213
 Alpha  occ. eigenvalues --   -0.71637  -0.70767  -0.69508  -0.69039  -0.68254
 Alpha  occ. eigenvalues --   -0.66980  -0.66150  -0.62952  -0.62318  -0.61505
 Alpha  occ. eigenvalues --   -0.61265  -0.60493  -0.59623  -0.57829  -0.57337
 Alpha  occ. eigenvalues --   -0.56975  -0.55724  -0.54419  -0.54094  -0.53029
 Alpha  occ. eigenvalues --   -0.52504  -0.52130  -0.51541  -0.50955  -0.50483
 Alpha  occ. eigenvalues --   -0.49892  -0.49452  -0.48587  -0.48197  -0.47870
 Alpha  occ. eigenvalues --   -0.47289  -0.46651  -0.46096  -0.45628  -0.45212
 Alpha  occ. eigenvalues --   -0.45059  -0.44748  -0.44173  -0.43190  -0.43142
 Alpha  occ. eigenvalues --   -0.42666  -0.42138  -0.41924  -0.40989  -0.40759
 Alpha  occ. eigenvalues --   -0.40455  -0.39968  -0.39448  -0.39201  -0.38934
 Alpha  occ. eigenvalues --   -0.38622  -0.38477  -0.37923  -0.37665  -0.37161
 Alpha  occ. eigenvalues --   -0.36625  -0.36159  -0.35478  -0.35352  -0.34422
 Alpha  occ. eigenvalues --   -0.33953  -0.32984  -0.31981  -0.31942  -0.31858
 Alpha  occ. eigenvalues --   -0.31729  -0.31584  -0.30554  -0.30068  -0.29912
 Alpha  occ. eigenvalues --   -0.29119  -0.28522  -0.27981  -0.27872  -0.27290
 Alpha  occ. eigenvalues --   -0.26179  -0.24725  -0.24370  -0.22043
 Alpha virt. eigenvalues --   -0.09882  -0.08173  -0.05827  -0.05492  -0.02173
 Alpha virt. eigenvalues --   -0.00511  -0.00353  -0.00062   0.00388   0.01924
 Alpha virt. eigenvalues --    0.06052   0.07372   0.08606   0.08939   0.09265

 Mulliken charges:
               1
     1  C   -0.217312
     2  O   -0.510995
     3  C    0.347265
     4  C   -0.273563
     5  C    0.163111
     6  C   -0.543310
     7  C    0.029131
     8  C    0.408630
     9  N   -0.543645
    10  C    0.254785
    11  C   -0.157384
    12  C   -0.124731
    13  C   -0.136513
    14  C   -0.172614
    15  C    0.066645
    16  C    0.612915
    17  O   -0.581824
    18  N   -0.459801
    19  N   -0.207363
    20  C    0.025848
    21  C    0.084446
    22  C   -0.204581
    23  C    0.278839
    24  N    0.386589
    25  O   -0.387679
    26  O   -0.405767
    27  C   -0.151422
    28  C   -0.161242
    29  C    0.320074
    30  O   -0.518531
    31  C   -0.150566
    32  C    0.557827
    33  O   -0.443993
    34  O   -0.595941
    35  C   -0.217046
    36  C    0.112670
    37  C   -0.136548
    38  C   -0.456312
    39  C   -0.438528
    40  H    0.156850
    41  H    0.173149
    42  H    0.157853
    43  H    0.131051
    44  H    0.184863
    45  H    0.184659
    46  H    0.149015
    47  H    0.152837
    48  H    0.146503
    49  H    0.147087
    50  H    0.163982
    51  H    0.194093
    52  H    0.203908
    53  H    0.196328
    54  H    0.189690
    55  H    0.189954
    56  H    0.185289
    57  H    0.462686
    58  H    0.154830
    59  H    0.147610
    60  H    0.144191
    61  H    0.147689
    62  H    0.149518
    63  H    0.155559
    64  H    0.139326
    65  H    0.139918
 Sum of Mulliken charges =  -0.00000

 Dipole moment (field-independent basis, Debye):
    X=             -5.4046    Y=              0.6976    Z=             -0.6559  Tot=              5.4887
 Quadrupole moment (field-independent basis, Debye-Ang):
   XX=           -231.8136   YY=           -211.0340   ZZ=           -229.8101
   XY=             12.5753   XZ=            -10.7102   YZ=             -7.6191

 Normal termination of Gaussian 16 at Fri Nov  4 23:01:55 2022.
