 Gaussian 16, Revision B.01,
 Gaussian 16:  ES64L-G16RevB.01 20-Dec-2017

 -----------------------------
 #p b3lyp/6-31g(d) opt SCF=XQC
 -----------------------------

 ------------------------------
 Gaussian input prepared by ASE
 ------------------------------
 Symbolic Z-matrix:
 Charge =  0 Multiplicity = 1

 SCF Done:  E(RB3LYP) =  -1601.01831148     A.U. after   16 cycles
 SCF Done:  E(RB3LYP) =  -1601.02675455     A.U. after   13 cycles
 SCF Done:  E(RB3LYP) =  -1601.02773718     A.U. after   12 cycles
 SCF Done:  E(RB3LYP) =  -1601.02814787     A.U. after   12 cycles
 SCF Done:  E(RB3LYP) =  -1601.02823993     A.U. after   11 cycles
 SCF Done:  E(RB3LYP) =  -1601.02833381     A.U. after   11 cycles
 SCF Done:  E(RB3LYP) =  -1601.02838292     A.U. after   11 cycles
 SCF Done:  E(RB3LYP) =  -1601.02840948     A.U. after   11 cycles
 SCF Done:  E(RB3LYP) =  -1601.02843312     A.U. after   11 cycles
 SCF Done:  E(RB3LYP) =  -1601.02846467     A.U. after   11 cycles
 SCF Done:  E(RB3LYP) =  -1601.02847131     A.U. after   11 cycles
 SCF Done:  E(RB3LYP) =  -1601.02847276     A.U. after    9 cycles
 SCF Done:  E(RB3LYP) =  -1601.02847357     A.U. after    9 cycles
 SCF Done:  E(RB3LYP) =  -1601.02847382     A.U. after    7 cycles
 SCF Done:  E(RB3LYP) =  -1601.02847411     A.U. after    9 cycles
 SCF Done:  E(RB3LYP) =  -1601.02847416     A.U. after    6 cycles
 SCF Done:  E(RB3LYP) =  -1601.02847418     A.U. after    6 cycles
 SCF Done:  E(RB3LYP) =  -1601.02847418     A.U. after    6 cycles
 Optimization completed.
    -- Stationary point found.

                         Standard orientation:
 ---------------------------------------------------------------------
 Center     Atomic      Atomic             Coordinates (Angstroms)
 Number     Number       Type             X           Y           Z
 ---------------------------------------------------------------------
      1          6           0        1.966372    1.983441    1.614526
      2          8           0        3.260857    1.662737    1.082252
      3          6           0        3.335040    0.595893    0.260110
      4          7           0        2.237081   -0.076234   -0.026128
      5          6           0        2.305191   -1.136995   -0.850258
      6          6           0        1.019743   -1.849142   -1.128183
      7          7           0       -0.085995   -1.210831   -1.162122
      8          6           0       -1.317125   -1.967411   -1.462063
      9          6           0       -2.151068   -2.139447   -0.215613
     10          6           0       -2.112525   -3.180836    0.680145
     11          7           0       -3.024277   -2.979564    1.700319
     12          6           0       -3.274890   -3.874621    2.809818
     13          6           0       -3.669455   -1.777689    1.475869
     14          6           0       -4.669568   -1.135152    2.210895
     15          6           0       -5.131656    0.087340    1.735699
     16          6           0       -4.626721    0.680977    0.555280
     17          6           0       -5.165451    2.029909    0.104476
     18          6           0       -4.093089    3.139122    0.084042
     19          6           0       -4.756780    4.507538   -0.192746
     20          8           0       -6.002962    4.390238   -0.875852
     21          6           0       -5.954881    3.398438   -1.892526
     22          6           0       -5.853148    1.981025   -1.285429
     23          6           0       -3.629550    0.020719   -0.164353
     24          6           0       -3.139913   -1.216243    0.282067
     25          6           0       -0.992898   -3.288525   -2.169303
     26          8           0        0.008105   -3.990059   -1.425416
     27          7           0        1.207078   -3.210916   -1.462443
     28          6           0        3.508915   -1.550772   -1.420698
     29          6           0        4.670934   -0.837154   -1.114122
     30          6           0        4.616664    0.252936   -0.253397
     31          7           0        5.787501    0.956260    0.105244
     32          6           0        5.951533    2.315173    0.280795
     33          7           0        7.198299    2.638481    0.515619
     34          6           0        7.907308    1.447363    0.501899
     35          6           0        9.380888    1.414680    0.758639
     36          6           0        7.059971    0.403337    0.242377
     37          1           0        1.576900    1.154948    2.212094
     38          1           0        1.257272    2.198678    0.811204
     39          1           0        2.129105    2.864398    2.236756
     40          1           0       -1.891214   -1.343820   -2.161792
     41          1           0       -1.491983   -4.066119    0.673186
     42          1           0       -3.092749   -3.373185    3.767962
     43          1           0       -4.309186   -4.239882    2.798510
     44          1           0       -2.602763   -4.732115    2.733748
     45          1           0       -5.075998   -1.567453    3.121166
     46          1           0       -5.909007    0.607769    2.290285
     47          1           0       -5.927334    2.339907    0.830518
     48          1           0       -3.552687    3.171872    1.036857
     49          1           0       -3.346963    2.908343   -0.687225
     50          1           0       -4.993563    5.020534    0.745463
     51          1           0       -4.074479    5.156144   -0.767812
     52          1           0       -5.104708    3.594372   -2.567855
     53          1           0       -6.870779    3.518378   -2.478812
     54          1           0       -6.847236    1.531757   -1.177988
     55          1           0       -5.286774    1.333178   -1.966012
     56          1           0       -3.219033    0.467777   -1.066757
     57          1           0       -1.849359   -3.965685   -2.202172
     58          1           0       -0.626190   -3.108164   -3.189125
     59          1           0        1.839403   -3.696009   -0.831073
     60          1           0        3.536849   -2.381449   -2.116703
     61          1           0        5.619749   -1.114435   -1.562141
     62          1           0        5.117153    2.996203    0.220159
     63          1           0        9.919378    2.028785    0.027020
     64          1           0        9.771016    0.393383    0.702225
     65          1           0        9.615953    1.817323    1.751049
     66          1           0        7.220386   -0.662541    0.188292
 ---------------------------------------------------------------------

 The electronic state is 1-A.
 Alpha  occ. eigenvalues --  -19.19775 -19.19258 -19.13391 -14.40569 -14.39901
 Alpha  occ. eigenvalues --  -14.37952 -14.33917 -14.31458 -14.30474 -10.29530
 Alpha  occ. eigenvalues --  -10.26239 -10.25521 -10.24511 -10.24046 -10.23748
 Alpha  occ. eigenvalues --  -10.23435 -10.23325 -10.22194 -10.22172 -10.22117
 Alpha  occ. eigenvalues --  -10.22075 -10.21200 -10.20883 -10.20823 -10.20720
 Alpha  occ. eigenvalues --  -10.20159 -10.18560 -10.18382 -10.17952 -10.17760
 Alpha  occ. eigenvalues --  -10.17702 -10.17683 -10.17667 -10.17629 -10.17587
 Alpha  occ. eigenvalues --  -10.17458  -1.09456  -1.08726  -1.01893  -1.01525
 Alpha  occ. eigenvalues --   -0.98297  -0.95826  -0.92119  -0.89215  -0.87128
 Alpha  occ. eigenvalues --   -0.84280  -0.81031  -0.80481  -0.78776  -0.77921
 Alpha  occ. eigenvalues --   -0.75998  -0.74886  -0.74130  -0.72962  -0.71994
 Alpha  occ. eigenvalues --   -0.71462  -0.70006  -0.68497  -0.67271  -0.64637
 Alpha  occ. eigenvalues --   -0.63524  -0.62890  -0.62730  -0.60603  -0.59369
 Alpha  occ. eigenvalues --   -0.57818  -0.57058  -0.56645  -0.55919  -0.54487
 Alpha  occ. eigenvalues --   -0.54079  -0.53188  -0.53038  -0.51551  -0.50555
 Alpha  occ. eigenvalues --   -0.49420  -0.49063  -0.48760  -0.47896  -0.47640
 Alpha  occ. eigenvalues --   -0.47120  -0.46661  -0.46107  -0.46006  -0.45146
 Alpha  occ. eigenvalues --   -0.44208  -0.43870  -0.43696  -0.43528  -0.43076
 Alpha  occ. eigenvalues --   -0.42169  -0.42090  -0.42014  -0.41329  -0.40870
 Alpha  occ. eigenvalues --   -0.40642  -0.40453  -0.40227  -0.39334  -0.38934
 Alpha  occ. eigenvalues --   -0.38696  -0.38567  -0.38488  -0.37485  -0.37355
 Alpha  occ. eigenvalues --   -0.37160  -0.36169  -0.35652  -0.35253  -0.34344
 Alpha  occ. eigenvalues --   -0.33952  -0.33446  -0.32907  -0.31966  -0.31559
 Alpha  occ. eigenvalues --   -0.30518  -0.29087  -0.28663  -0.27934  -0.27112
 Alpha  occ. eigenvalues --   -0.26568  -0.26226  -0.25632  -0.23772  -0.23378
 Alpha  occ. eigenvalues --   -0.22486  -0.21494  -0.21088  -0.19153
 Alpha virt. eigenvalues --   -0.05099  -0.01886  -0.00654   0.02243   0.02913
 Alpha virt. eigenvalues --    0.04823   0.06529   0.06854   0.07944   0.08668
 Alpha virt. eigenvalues --    0.08769   0.08908   0.10210   0.10615   0.10892

 Mulliken charges:
               1
     1  C   -0.210173
     2  O   -0.500727
     3  C    0.548006
     4  N   -0.547239
     5  C    0.240912
     6  C    0.426066
     7  N   -0.422846
     8  C   -0.092993
     9  C    0.075807
    10  C   -0.015781
    11  N   -0.506903
    12  C   -0.321320
    13  C    0.307044
    14  C   -0.166572
    15  C   -0.221883
    16  C    0.179892
    17  C   -0.166062
    18  C   -0.313037
    19  C   -0.016462
    20  O   -0.474507
    21  C   -0.034625
    22  C   -0.283612
    23  C   -0.278017
    24  C    0.078490
    25  C   -0.061235
    26  O   -0.390646
    27  N   -0.370361
    28  C   -0.195474
    29  C   -0.136969
    30  C    0.269471
    31  N   -0.515970
    32  C    0.218136
    33  N   -0.477466
    34  C    0.225624
    35  C   -0.514060
    36  C   -0.023885
    37  H    0.171654
    38  H    0.180065
    39  H    0.164343
    40  H    0.138448
    41  H    0.157782
    42  H    0.171168
    43  H    0.170486
    44  H    0.169055
    45  H    0.121942
    46  H    0.117850
    47  H    0.137959
    48  H    0.145675
    49  H    0.141717
    50  H    0.141535
    51  H    0.121131
    52  H    0.118305
    53  H    0.144421
    54  H    0.141869
    55  H    0.134975
    56  H    0.126786
    57  H    0.163589
    58  H    0.152317
    59  H    0.338846
    60  H    0.158439
    61  H    0.159158
    62  H    0.171855
    63  H    0.166284
    64  H    0.144619
    65  H    0.166722
    66  H    0.150384
 Sum of Mulliken charges =  -0.00000

 Dipole moment (field-independent basis, Debye):
    X=             -0.2404    Y=             -5.8351    Z=              0.8836  Tot=              5.9066
 Quadrupole moment (field-independent basis, Debye-Ang):
   XX=           -227.2392   YY=           -206.0414   ZZ=           -196.9855
   XY=             -7.9809   XZ=             -9.4258   YZ=             -5.3401

 Normal termination of Gaussian 16 at Fri Nov  4 20:01:25 2022.
