 Gaussian 16, Revision B.01,
 Gaussian 16:  ES64L-G16RevB.01 20-Dec-2017

 -------------------------------------------------------------------
 #p b3lyp/6-31g(d) 6D 10F nosymm GFInput td=(50-50,nstate=2) SCF=XQC
 -------------------------------------------------------------------

 ------------------------------
 Gaussian input prepared by ASE
 ------------------------------
 Symbolic Z-matrix:
 Charge =  0 Multiplicity = 1

                          Input orientation:
 ---------------------------------------------------------------------
 Center     Atomic      Atomic             Coordinates (Angstroms)
 Number     Number       Type             X           Y           Z
 ---------------------------------------------------------------------
      1          6           0       -2.217422    1.280821   -2.094333
      2          8           0       -3.479170    1.330136   -1.410653
      3          6           0       -3.552467    0.701198   -0.219586
      4          7           0       -2.481005    0.100541    0.260397
      5          6           0       -2.547687   -0.522647    1.450453
      6          6           0       -1.293256   -1.181134    1.929589
      7          7           0       -0.148691   -0.693851    1.640153
      8          6           0        1.050704   -1.378552    2.160438
      9          6           0        1.759711   -2.121051    1.053778
     10          6           0        1.574070   -3.427273    0.669483
     11          7           0        2.404981   -3.746174   -0.389028
     12          6           0        2.497908   -5.034001   -1.043083
     13          6           0        3.145891   -2.624958   -0.713158
     14          6           0        4.118845   -2.435628   -1.698479
     15          6           0        4.700958   -1.176283   -1.793428
     16          6           0        4.341326   -0.109113   -0.937527
     17          6           0        5.005923    1.247866   -1.110708
     18          6           0        4.015713    2.367742   -1.492931
     19          6           0        4.790676    3.659775   -1.838965
     20          8           0        6.080969    3.710119   -1.234009
     21          6           0        6.055543    3.225796    0.101801
     22          6           0        5.807150    1.701017    0.138228
     23          6           0        3.368776   -0.321078    0.040931
     24          6           0        2.760819   -1.579243    0.169452
     25          6           0        0.701928   -2.261097    3.364649
     26          8           0       -0.404516   -3.103982    3.028717
     27          7           0       -1.541126   -2.265163    2.804058
     28          6           0       -3.722102   -0.551195    2.202449
     29          6           0       -4.856242    0.085100    1.690216
     30          6           0       -4.804546    0.721433    0.455510
     31          7           0       -5.952667    1.328098   -0.099398
     32          6           0       -6.040431    2.507805   -0.810002
     33          7           0       -7.278574    2.826633   -1.091865
     34          6           0       -8.061491    1.817978   -0.552141
     35          6           0       -9.550711    1.826232   -0.695592
     36          6           0       -7.266249    0.892637    0.069674
     37          1           0       -1.937496    0.247800   -2.317237
     38          1           0       -1.428356    1.733980   -1.488941
     39          1           0       -2.374607    1.844765   -3.014658
     40          1           0        1.723770   -0.583249    2.510498
     41          1           0        0.898878   -4.169230    1.072549
     42          1           0        2.266914   -4.949416   -2.111793
     43          1           0        3.502617   -5.461152   -0.936258
     44          1           0        1.779306   -5.717687   -0.585891
     45          1           0        4.414821   -3.237056   -2.369877
     46          1           0        5.460055   -1.003245   -2.552716
     47          1           0        5.720704    1.161573   -1.938562
     48          1           0        3.397848    2.063055   -2.345205
     49          1           0        3.325807    2.542865   -0.657360
     50          1           0        4.978588    3.722551   -2.916098
     51          1           0        4.205740    4.548411   -1.547241
     52          1           0        5.282305    3.759868    0.679835
     53          1           0        7.024927    3.484338    0.538191
     54          1           0        6.755963    1.153212    0.173686
     55          1           0        5.260231    1.442940    1.053627
     56          1           0        3.069036    0.490965    0.699308
     57          1           0        1.510966   -2.945833    3.628744
     58          1           0        0.438178   -1.648041    4.237369
     59          1           0       -2.256900   -2.901233    2.462211
     60          1           0       -3.744666   -1.021119    3.179122
     61          1           0       -5.778839    0.106359    2.261371
     62          1           0       -5.160419    3.070918   -1.078612
     63          1           0       -9.981380    2.733156   -0.254710
     64          1           0      -10.001637    0.958494   -0.203529
     65          1           0       -9.843874    1.812227   -1.752054
     66          1           0       -7.492020   -0.038720    0.566016
 ---------------------------------------------------------------------

 SCF Done:  E(RB3LYP) =  -1601.02847840     A.U. after   16 cycles

 Excitation energies and oscillator strengths:

 Excited state symmetry could not be determined.
 Excited State   1:      Triplet-?Sym    2.9282 eV  423.41 nm  f=0.0000  <S**2>=2.000
     125 ->130         0.26385
     126 ->130         0.20430
     127 ->130        -0.32952
     129 ->130         0.45066
     129 ->132         0.11554
 This state for optimization and/or second-order correction.
 Total Energy, E(TD-HF/TD-DFT) =  -1600.92086909
 Copying the excited state density for this state as the 1-particle RhoCI density.

 Excited state symmetry could not be determined.
 Excited State   2:      Triplet-?Sym    3.1200 eV  397.39 nm  f=0.0000  <S**2>=2.000
     125 ->130        -0.15383
     126 ->132        -0.12184
     127 ->130         0.27144
     128 ->134        -0.13507
     129 ->130         0.13634
     129 ->132         0.55798

 Excited state symmetry could not be determined.
 Excited State   3:      Singlet-?Sym    3.3211 eV  373.32 nm  f=0.0553  <S**2>=0.000
     129 ->130         0.69912

 Excited state symmetry could not be determined.
 Excited State   4:      Singlet-?Sym    3.9088 eV  317.19 nm  f=0.1209  <S**2>=0.000
     126 ->130         0.18554
     127 ->130         0.51623
     128 ->130        -0.42872

 Alpha  occ. eigenvalues --  -19.19775 -19.19258 -19.13391 -14.40568 -14.39901
 Alpha  occ. eigenvalues --  -14.37952 -14.33917 -14.31458 -14.30474 -10.29530
 Alpha  occ. eigenvalues --  -10.26239 -10.25521 -10.24511 -10.24046 -10.23748
 Alpha  occ. eigenvalues --  -10.23435 -10.23325 -10.22194 -10.22172 -10.22117
 Alpha  occ. eigenvalues --  -10.22075 -10.21200 -10.20883 -10.20823 -10.20720
 Alpha  occ. eigenvalues --  -10.20159 -10.18561 -10.18382 -10.17952 -10.17760
 Alpha  occ. eigenvalues --  -10.17702 -10.17683 -10.17667 -10.17629 -10.17588
 Alpha  occ. eigenvalues --  -10.17458  -1.09456  -1.08726  -1.01893  -1.01525
 Alpha  occ. eigenvalues --   -0.98297  -0.95826  -0.92119  -0.89215  -0.87128
 Alpha  occ. eigenvalues --   -0.84280  -0.81031  -0.80481  -0.78776  -0.77921
 Alpha  occ. eigenvalues --   -0.75998  -0.74886  -0.74130  -0.72962  -0.71994
 Alpha  occ. eigenvalues --   -0.71462  -0.70006  -0.68497  -0.67271  -0.64637
 Alpha  occ. eigenvalues --   -0.63524  -0.62890  -0.62730  -0.60603  -0.59369
 Alpha  occ. eigenvalues --   -0.57818  -0.57058  -0.56645  -0.55919  -0.54487
 Alpha  occ. eigenvalues --   -0.54079  -0.53188  -0.53038  -0.51551  -0.50555
 Alpha  occ. eigenvalues --   -0.49420  -0.49063  -0.48760  -0.47896  -0.47640
 Alpha  occ. eigenvalues --   -0.47120  -0.46661  -0.46107  -0.46006  -0.45146
 Alpha  occ. eigenvalues --   -0.44208  -0.43870  -0.43696  -0.43528  -0.43076
 Alpha  occ. eigenvalues --   -0.42169  -0.42090  -0.42014  -0.41329  -0.40870
 Alpha  occ. eigenvalues --   -0.40642  -0.40453  -0.40227  -0.39334  -0.38934
 Alpha  occ. eigenvalues --   -0.38696  -0.38567  -0.38488  -0.37485  -0.37355
 Alpha  occ. eigenvalues --   -0.37160  -0.36169  -0.35652  -0.35253  -0.34344
 Alpha  occ. eigenvalues --   -0.33952  -0.33446  -0.32907  -0.31966  -0.31559
 Alpha  occ. eigenvalues --   -0.30518  -0.29087  -0.28663  -0.27934  -0.27112
 Alpha  occ. eigenvalues --   -0.26568  -0.26226  -0.25632  -0.23772  -0.23378
 Alpha  occ. eigenvalues --   -0.22486  -0.21494  -0.21088  -0.19153
 Alpha virt. eigenvalues --   -0.05099  -0.01886  -0.00654   0.02243   0.02913
 Alpha virt. eigenvalues --    0.04824   0.06529   0.06854   0.07944   0.08668
 Alpha virt. eigenvalues --    0.08769   0.08908   0.10210   0.10615   0.10892

 Mulliken charges:
               1
     1  C   -0.210174
     2  O   -0.500727
     3  C    0.548024
     4  N   -0.547264
     5  C    0.240934
     6  C    0.426114
     7  N   -0.422863
     8  C   -0.093002
     9  C    0.075801
    10  C   -0.015786
    11  N   -0.506898
    12  C   -0.321325
    13  C    0.307063
    14  C   -0.166597
    15  C   -0.221874
    16  C    0.179872
    17  C   -0.166053
    18  C   -0.313029
    19  C   -0.016479
    20  O   -0.474503
    21  C   -0.034604
    22  C   -0.283626
    23  C   -0.278011
    24  C    0.078489
    25  C   -0.061230
    26  O   -0.390643
    27  N   -0.370385
    28  C   -0.195492
    29  C   -0.136962
    30  C    0.269466
    31  N   -0.515964
    32  C    0.218137
    33  N   -0.477466
    34  C    0.225629
    35  C   -0.514064
    36  C   -0.023887
    37  H    0.171653
    38  H    0.180068
    39  H    0.164344
    40  H    0.138448
    41  H    0.157783
    42  H    0.171169
    43  H    0.170488
    44  H    0.169056
    45  H    0.121943
    46  H    0.117851
    47  H    0.137959
    48  H    0.145673
    49  H    0.141714
    50  H    0.141537
    51  H    0.121132
    52  H    0.118302
    53  H    0.144418
    54  H    0.141868
    55  H    0.134976
    56  H    0.126788
    57  H    0.163589
    58  H    0.152317
    59  H    0.338846
    60  H    0.158439
    61  H    0.159159
    62  H    0.171850
    63  H    0.166285
    64  H    0.144620
    65  H    0.166722
    66  H    0.150382
 Sum of Mulliken charges =  -0.00000

 Dipole moment (field-independent basis, Debye):
    X=             -0.2267    Y=             -5.6853    Z=              1.5856  Tot=              5.9066
 Quadrupole moment (field-independent basis, Debye-Ang):
   XX=           -227.3117   YY=           -200.8284   ZZ=           -201.0861
   XY=              7.8153   XZ=            -10.2532   YZ=              7.1316

 Normal termination of Gaussian 16 at Sat Nov  5 12:04:20 2022.
