 Gaussian 16, Revision B.01,
 Gaussian 16:  ES64L-G16RevB.01 20-Dec-2017

 -------------------------------------------------------------------
 #p b3lyp/6-31g(d) 6D 10F nosymm GFInput td=(50-50,nstate=2) SCF=XQC
 -------------------------------------------------------------------

 ------------------------------
 Gaussian input prepared by ASE
 ------------------------------
 Symbolic Z-matrix:
 Charge =  0 Multiplicity = 1

                          Input orientation:
 ---------------------------------------------------------------------
 Center     Atomic      Atomic             Coordinates (Angstroms)
 Number     Number       Type             X           Y           Z
 ---------------------------------------------------------------------
      1          6           0       -6.951280    0.563306    0.069578
      2          6           0       -5.598373    0.391871    0.708988
      3          6           0       -4.453211    0.193796   -0.049276
      4          6           0       -3.224703    0.041313    0.636756
      5          7           0       -2.021074   -0.148716   -0.010170
      6          6           0       -1.976448   -0.139809   -1.449502
      7          6           0       -0.916355    0.653409   -2.178581
      8          6           0       -2.343877    1.119227   -2.204676
      9          6           0       -0.864821   -0.631619    0.782008
     10          6           0       -0.011475   -1.674295    0.041733
     11          6           0        1.134574   -2.150286    0.950985
     12          7           0        1.952485   -1.034453    1.442480
     13          6           0        2.982642   -0.624560    0.622116
     14          7           0        3.321939   -1.192153   -0.515733
     15          6           0        4.463825   -0.514643   -0.930103
     16          6           0        5.253101   -0.700098   -2.068233
     17          6           0        6.356785    0.134811   -2.249366
     18          6           0        6.674549    1.140610   -1.321931
     19          6           0        5.892216    1.347998   -0.182198
     20          6           0        4.797401    0.507816   -0.010410
     21          7           0        3.809529    0.433827    0.970479
     22          6           0        1.159362   -0.035897    2.171315
     23          6           0        0.008175    0.520511    1.316983
     24          7           0       -3.198635    0.074194    1.986026
     25          6           0       -4.365514    0.263362    2.603613
     26          7           0       -5.567852    0.434412    2.060782
     27          1           0       -7.639561   -0.208797    0.431389
     28          1           0       -6.899222    0.508150   -1.021745
     29          1           0       -7.381474    1.530139    0.354754
     30          1           0       -4.510560    0.144163   -1.128186
     31          1           0       -2.267596   -1.077932   -1.926321
     32          1           0       -0.489655    0.207383   -3.072380
     33          1           0       -0.212361    1.231625   -1.590764
     34          1           0       -2.596880    1.993654   -1.613003
     35          1           0       -2.917781    1.011908   -3.121154
     36          1           0       -1.300596   -1.120838    1.658880
     37          1           0       -0.630009   -2.534743   -0.243804
     38          1           0        0.426524   -1.262377   -0.871820
     39          1           0        0.731258   -2.667488    1.831925
     40          1           0        1.788487   -2.838069    0.414421
     41          1           0        5.006991   -1.479329   -2.783295
     42          1           0        6.985595    0.004726   -3.126077
     43          1           0        7.542796    1.771250   -1.491514
     44          1           0        6.135896    2.128858    0.533359
     45          1           0        3.861613    0.859122    1.883280
     46          1           0        0.756606   -0.526859    3.066626
     47          1           0        1.805246    0.773850    2.521256
     48          1           0       -0.613737    1.190628    1.920047
     49          1           0        0.427597    1.103194    0.487971
     50          1           0       -4.322145    0.283845    3.692495
 ---------------------------------------------------------------------

 SCF Done:  E(RB3LYP) =  -1105.08387149     A.U. after   14 cycles

 Excitation energies and oscillator strengths:

 Excited state symmetry could not be determined.
 Excited State   1:      Triplet-?Sym    3.5305 eV  351.18 nm  f=0.0000  <S**2>=2.000
      91 -> 96        -0.21668
      92 -> 96         0.23627
      92 -> 97        -0.11331
      93 -> 96         0.54819
      93 -> 97         0.21216
 This state for optimization and/or second-order correction.
 Total Energy, E(TD-HF/TD-DFT) =  -1104.95412946
 Copying the excited state density for this state as the 1-particle RhoCI density.

 Excited state symmetry could not be determined.
 Excited State   2:      Triplet-?Sym    3.9252 eV  315.87 nm  f=0.0000  <S**2>=2.000
      84 -> 95         0.11434
      87 -> 94         0.22831
      87 -> 95         0.10036
      91 -> 94        -0.13130
      91 -> 95         0.46135
      92 -> 94        -0.11655
      92 -> 95         0.40662

 Excited state symmetry could not be determined.
 Excited State   3:      Singlet-?Sym    4.4615 eV  277.90 nm  f=0.0006  <S**2>=0.000
      93 -> 94         0.70170

 Excited state symmetry could not be determined.
 Excited State   4:      Singlet-?Sym    4.7586 eV  260.55 nm  f=0.0004  <S**2>=0.000
      93 -> 95         0.69438

 Alpha  occ. eigenvalues --  -14.38051 -14.36445 -14.36003 -14.31981 -14.31187
 Alpha  occ. eigenvalues --  -14.30007 -10.28119 -10.26585 -10.24175 -10.23604
 Alpha  occ. eigenvalues --  -10.23262 -10.23223 -10.22563 -10.21843 -10.21472
 Alpha  occ. eigenvalues --  -10.20062 -10.20030 -10.19850 -10.18895 -10.18677
 Alpha  occ. eigenvalues --  -10.18663 -10.18481 -10.18235 -10.17687 -10.17432
 Alpha  occ. eigenvalues --  -10.17377  -1.01886  -0.98658  -0.94850  -0.94170
 Alpha  occ. eigenvalues --   -0.87672  -0.87116  -0.84800  -0.82987  -0.80128
 Alpha  occ. eigenvalues --   -0.77397  -0.76698  -0.73140  -0.72592  -0.71194
 Alpha  occ. eigenvalues --   -0.67109  -0.66220  -0.64174  -0.62225  -0.61819
 Alpha  occ. eigenvalues --   -0.61286  -0.60885  -0.58787  -0.57293  -0.56270
 Alpha  occ. eigenvalues --   -0.54104  -0.52703  -0.51884  -0.50461  -0.50059
 Alpha  occ. eigenvalues --   -0.49438  -0.47466  -0.46622  -0.46032  -0.45351
 Alpha  occ. eigenvalues --   -0.44686  -0.44017  -0.43795  -0.43212  -0.42527
 Alpha  occ. eigenvalues --   -0.42296  -0.42250  -0.41543  -0.41028  -0.39872
 Alpha  occ. eigenvalues --   -0.39159  -0.38706  -0.38307  -0.37905  -0.37720
 Alpha  occ. eigenvalues --   -0.36246  -0.35497  -0.35051  -0.34624  -0.33831
 Alpha  occ. eigenvalues --   -0.33339  -0.32321  -0.30548  -0.30136  -0.29776
 Alpha  occ. eigenvalues --   -0.28175  -0.27137  -0.26596  -0.26197  -0.24173
 Alpha  occ. eigenvalues --   -0.21824  -0.21790  -0.19101
 Alpha virt. eigenvalues --   -0.01360  -0.00199   0.00420   0.03031   0.05829
 Alpha virt. eigenvalues --    0.07073   0.08297   0.08683   0.09509   0.10680
 Alpha virt. eigenvalues --    0.10688   0.12015   0.12358   0.13262   0.13504

 Mulliken charges:
               1
     1  C   -0.507627
     2  C    0.307827
     3  C   -0.217659
     4  C    0.524641
     5  N   -0.503402
     6  C    0.014672
     7  C   -0.321351
     8  C   -0.319651
     9  C    0.051030
    10  C   -0.292784
    11  C   -0.156576
    12  N   -0.477346
    13  C    0.737024
    14  N   -0.599857
    15  C    0.254150
    16  C   -0.195103
    17  C   -0.141978
    18  C   -0.152963
    19  C   -0.183120
    20  C    0.346545
    21  N   -0.764711
    22  C   -0.175025
    23  C   -0.270172
    24  N   -0.500022
    25  C    0.165996
    26  N   -0.461891
    27  H    0.174653
    28  H    0.147830
    29  H    0.174294
    30  H    0.139744
    31  H    0.152550
    32  H    0.166052
    33  H    0.173088
    34  H    0.172891
    35  H    0.158216
    36  H    0.163888
    37  H    0.139395
    38  H    0.178460
    39  H    0.142108
    40  H    0.190817
    41  H    0.129505
    42  H    0.119788
    43  H    0.120592
    44  H    0.120343
    45  H    0.331131
    46  H    0.159823
    47  H    0.137574
    48  H    0.163258
    49  H    0.143998
    50  H    0.139356
 Sum of Mulliken charges =  -0.00000

 Dipole moment (field-independent basis, Debye):
    X=             -0.2121    Y=              1.1233    Z=             -0.2857  Tot=              1.1783
 Quadrupole moment (field-independent basis, Debye-Ang):
   XX=           -166.5572   YY=           -151.0738   ZZ=           -146.9524
   XY=              9.6565   XZ=             21.7883   YZ=              2.1616

 Normal termination of Gaussian 16 at Sat Nov  5 11:58:27 2022.
