 Gaussian 16, Revision B.01,
 Gaussian 16:  ES64L-G16RevB.01 20-Dec-2017

 -----------------------------
 #p b3lyp/6-31g(d) opt SCF=XQC
 -----------------------------

 ------------------------------
 Gaussian input prepared by ASE
 ------------------------------
 Symbolic Z-matrix:
 Charge =  0 Multiplicity = 1

 SCF Done:  E(RB3LYP) =  -1105.07651096     A.U. after   14 cycles
 SCF Done:  E(RB3LYP) =  -1105.08237165     A.U. after   12 cycles
 SCF Done:  E(RB3LYP) =  -1105.08283242     A.U. after   12 cycles
 SCF Done:  E(RB3LYP) =  -1105.08308074     A.U. after   11 cycles
 SCF Done:  E(RB3LYP) =  -1105.08317324     A.U. after   10 cycles
 SCF Done:  E(RB3LYP) =  -1105.08324197     A.U. after   11 cycles
 SCF Done:  E(RB3LYP) =  -1105.08327665     A.U. after   10 cycles
 SCF Done:  E(RB3LYP) =  -1105.08336108     A.U. after   10 cycles
 SCF Done:  E(RB3LYP) =  -1105.08346746     A.U. after   11 cycles
 SCF Done:  E(RB3LYP) =  -1105.08359348     A.U. after   11 cycles
 SCF Done:  E(RB3LYP) =  -1105.08375798     A.U. after   10 cycles
 SCF Done:  E(RB3LYP) =  -1105.08383243     A.U. after   10 cycles
 SCF Done:  E(RB3LYP) =  -1105.08385312     A.U. after   10 cycles
 SCF Done:  E(RB3LYP) =  -1105.08387367     A.U. after   10 cycles
 SCF Done:  E(RB3LYP) =  -1105.08387802     A.U. after    9 cycles
 SCF Done:  E(RB3LYP) =  -1105.08387879     A.U. after    9 cycles
 SCF Done:  E(RB3LYP) =  -1105.08388090     A.U. after    9 cycles
 SCF Done:  E(RB3LYP) =  -1105.08388174     A.U. after    8 cycles
 SCF Done:  E(RB3LYP) =  -1105.08388181     A.U. after    7 cycles
 SCF Done:  E(RB3LYP) =  -1105.08388183     A.U. after    7 cycles
 Optimization completed.
    -- Stationary point found.

                         Standard orientation:
 ---------------------------------------------------------------------
 Center     Atomic      Atomic             Coordinates (Angstroms)
 Number     Number       Type             X           Y           Z
 ---------------------------------------------------------------------
      1          6           0        7.046648    1.102078   -0.262385
      2          6           0        5.792459    0.268083   -0.269629
      3          6           0        4.549537    0.817743    0.010754
      4          6           0        3.425358   -0.041626   -0.017977
      5          7           0        2.140149    0.393341    0.231804
      6          6           0        1.896447    1.790615    0.480768
      7          6           0        0.761088    2.506385   -0.214342
      8          6           0        2.179973    2.807487   -0.603689
      9          6           0        1.095811   -0.620867    0.511804
     10          6           0        0.127894   -0.206085    1.631837
     11          6           0       -0.889965   -1.331661    1.884377
     12          7           0       -1.609915   -1.712631    0.662836
     13          6           0       -2.735756   -0.974850    0.362177
     14          7           0       -3.240609   -0.016843    1.110060
     15          6           0       -4.415543    0.360229    0.468210
     16          6           0       -5.358544    1.329383    0.820602
     17          6           0       -6.460233    1.513507   -0.016286
     18          6           0       -6.626630    0.754125   -1.186069
     19          6           0       -5.689855   -0.213458   -1.560610
     20          6           0       -4.598346   -0.390635   -0.717251
     21          7           0       -3.485569   -1.228255   -0.777493
     22          6           0       -0.704074   -2.132428   -0.414466
     23          6           0        0.328056   -1.044784   -0.755702
     24          7           0        3.587380   -1.352866   -0.294903
     25          6           0        4.832113   -1.764304   -0.540183
     26          7           0        5.950610   -1.044421   -0.556700
     27          1           0        7.763320    0.698458    0.461669
     28          1           0        6.842624    2.147649   -0.013599
     29          1           0        7.530971    1.060232   -1.244647
     30          1           0        4.455670    1.866778    0.256752
     31          1           0        2.100323    2.120182    1.501560
     32          1           0        0.205917    3.237611    0.366159
     33          1           0        0.156836    1.947377   -0.919934
     34          1           0        2.529577    2.426575   -1.558358
     35          1           0        2.618979    3.756294   -0.307288
     36          1           0        1.639427   -1.507277    0.853710
     37          1           0        0.683976   -0.004940    2.556391
     38          1           0       -0.424516    0.701459    1.372404
     39          1           0       -0.378467   -2.231515    2.251597
     40          1           0       -1.625248   -1.023158    2.627836
     41          1           0       -5.229225    1.914329    1.726250
     42          1           0       -7.207006    2.259649    0.241686
     43          1           0       -7.497575    0.920512   -1.813833
     44          1           0       -5.816668   -0.798263   -2.467840
     45          1           0       -3.402227   -2.045403   -1.362400
     46          1           0       -0.190627   -3.041500   -0.075647
     47          1           0       -1.279287   -2.409290   -1.302042
     48          1           0        1.040537   -1.425557   -1.495228
     49          1           0       -0.190911   -0.185530   -1.197350
     50          1           0        4.940640   -2.826581   -0.758714
 ---------------------------------------------------------------------

 The electronic state is 1-A.
 Alpha  occ. eigenvalues --  -14.38052 -14.36445 -14.36003 -14.31981 -14.31187
 Alpha  occ. eigenvalues --  -14.30007 -10.28119 -10.26585 -10.24175 -10.23604
 Alpha  occ. eigenvalues --  -10.23262 -10.23223 -10.22563 -10.21843 -10.21472
 Alpha  occ. eigenvalues --  -10.20062 -10.20030 -10.19850 -10.18895 -10.18677
 Alpha  occ. eigenvalues --  -10.18663 -10.18481 -10.18235 -10.17687 -10.17432
 Alpha  occ. eigenvalues --  -10.17377  -1.01887  -0.98658  -0.94850  -0.94170
 Alpha  occ. eigenvalues --   -0.87672  -0.87116  -0.84800  -0.82987  -0.80128
 Alpha  occ. eigenvalues --   -0.77397  -0.76698  -0.73140  -0.72592  -0.71194
 Alpha  occ. eigenvalues --   -0.67109  -0.66220  -0.64174  -0.62225  -0.61819
 Alpha  occ. eigenvalues --   -0.61286  -0.60885  -0.58787  -0.57293  -0.56270
 Alpha  occ. eigenvalues --   -0.54104  -0.52703  -0.51884  -0.50461  -0.50059
 Alpha  occ. eigenvalues --   -0.49438  -0.47466  -0.46622  -0.46032  -0.45351
 Alpha  occ. eigenvalues --   -0.44686  -0.44017  -0.43795  -0.43212  -0.42527
 Alpha  occ. eigenvalues --   -0.42296  -0.42250  -0.41543  -0.41028  -0.39872
 Alpha  occ. eigenvalues --   -0.39159  -0.38706  -0.38307  -0.37905  -0.37720
 Alpha  occ. eigenvalues --   -0.36246  -0.35497  -0.35051  -0.34624  -0.33831
 Alpha  occ. eigenvalues --   -0.33339  -0.32321  -0.30548  -0.30136  -0.29776
 Alpha  occ. eigenvalues --   -0.28175  -0.27137  -0.26596  -0.26197  -0.24173
 Alpha  occ. eigenvalues --   -0.21825  -0.21790  -0.19101
 Alpha virt. eigenvalues --   -0.01360  -0.00199   0.00420   0.03031   0.05829
 Alpha virt. eigenvalues --    0.07073   0.08297   0.08683   0.09509   0.10680
 Alpha virt. eigenvalues --    0.10688   0.12015   0.12358   0.13262   0.13504

 Mulliken charges:
               1
     1  C   -0.507626
     2  C    0.307830
     3  C   -0.217653
     4  C    0.524625
     5  N   -0.503428
     6  C    0.014680
     7  C   -0.321352
     8  C   -0.319643
     9  C    0.051098
    10  C   -0.292780
    11  C   -0.156607
    12  N   -0.477352
    13  C    0.737035
    14  N   -0.599857
    15  C    0.254146
    16  C   -0.195099
    17  C   -0.141984
    18  C   -0.152961
    19  C   -0.183114
    20  C    0.346542
    21  N   -0.764717
    22  C   -0.175034
    23  C   -0.270176
    24  N   -0.500027
    25  C    0.165998
    26  N   -0.461890
    27  H    0.174653
    28  H    0.147830
    29  H    0.174294
    30  H    0.139743
    31  H    0.152553
    32  H    0.166052
    33  H    0.173089
    34  H    0.172890
    35  H    0.158215
    36  H    0.163878
    37  H    0.139391
    38  H    0.178456
    39  H    0.142115
    40  H    0.190822
    41  H    0.129504
    42  H    0.119789
    43  H    0.120592
    44  H    0.120342
    45  H    0.331132
    46  H    0.159826
    47  H    0.137576
    48  H    0.163254
    49  H    0.143994
    50  H    0.139356
 Sum of Mulliken charges =  -0.00000

 Dipole moment (field-independent basis, Debye):
    X=              0.1921    Y=              0.5140    Z=             -1.0427  Tot=              1.1783
 Quadrupole moment (field-independent basis, Debye-Ang):
   XX=           -172.4648   YY=           -142.9092   ZZ=           -148.9942
   XY=             16.3361   XZ=             11.9045   YZ=              5.1254

 1\1\GINC-NODE55\FOpt\RB3LYP\6-31G(d)\C20H24N6\WYKGROUP\04-Nov-2022\0\\
 #p b3lyp/6-31g(d) opt SCF=XQC\\Gaussian input prepared by ASE\\0,1\C,-
 6.9512798687,0.5633060554,0.0695783712\C,-5.5983732918,0.391871203,0.7
 089876192\C,-4.4532105333,0.1937961605,-0.0492758131\C,-3.2247032261,0
 .0413127435,0.6367556362\N,-2.0210736014,-0.1487159842,-0.0101704565\C
 ,-1.9764480456,-0.1398094297,-1.4495024792\C,-0.9163549481,0.653408537
 4,-2.178580733\C,-2.343877029,1.1192271133,-2.2046760424\C,-0.86482147
 28,-0.6316188377,0.7820079405\C,-0.0114745503,-1.6742950053,0.04173348

 Normal termination of Gaussian 16 at Fri Nov  4 19:52:58 2022.
