 Gaussian 16, Revision B.01,
 Gaussian 16:  ES64L-G16RevB.01 20-Dec-2017

 -------------------------------------------------------------------
 #p b3lyp/6-31g(d) 6D 10F nosymm GFInput td=(50-50,nstate=2) SCF=XQC
 -------------------------------------------------------------------

 ------------------------------
 Gaussian input prepared by ASE
 ------------------------------
 Symbolic Z-matrix:
 Charge =  0 Multiplicity = 1

                          Input orientation:
 ---------------------------------------------------------------------
 Center     Atomic      Atomic             Coordinates (Angstroms)
 Number     Number       Type             X           Y           Z
 ---------------------------------------------------------------------
      1          8           0        1.238640    1.101847   -2.420649
      2          6           0        1.094346    0.650412   -1.286828
      3          6           0        2.225718   -0.128831   -0.606652
      4          6           0        3.438909   -0.286042   -1.541679
      5          6           0        4.585279   -1.010336   -0.873034
      6          6           0        4.786362   -2.358136   -1.090694
      7          6           0        5.836319   -3.039276   -0.430695
      8          7           0        6.675772   -2.471479    0.409560
      9          6           0        6.513912   -1.134838    0.643523
     10          6           0        7.419705   -0.510687    1.541808
     11          6           0        7.320048    0.832931    1.821805
     12          6           0        6.309706    1.612736    1.210264
     13          6           0        5.415179    1.036155    0.335158
     14          6           0        5.484018   -0.350235    0.026460
     15          7           0       -0.073847    0.818237   -0.582224
     16          6           0       -0.336516    0.356136    0.778735
     17          6           0       -1.601388   -0.511403    0.837845
     18          6           0       -2.813679    0.214127    0.228033
     19          6           0       -4.018700   -0.731207    0.164855
     20          8           0       -3.876369   -1.922524   -0.110015
     21          7           0       -5.255480   -0.202669    0.392436
     22          6           0       -5.598216    1.194270    0.698289
     23          6           0       -7.126290    1.229079    0.531612
     24          6           0       -7.557045   -0.194052    0.923833
     25          6           0       -6.442121   -1.072491    0.340933
     26          6           0       -2.463486    0.711527   -1.193880
     27          6           0       -1.181115    1.551570   -1.194704
     28          1           0        2.524951    0.382875    0.317157
     29          1           0        1.869349   -1.120603   -0.300698
     30          1           0        3.126104   -0.838559   -2.432572
     31          1           0        3.745971    0.701492   -1.897985
     32          1           0        4.139718   -2.907019   -1.770810
     33          1           0        5.979946   -4.104481   -0.612734
     34          1           0        8.186030   -1.135647    1.989705
     35          1           0        8.019034    1.301259    2.509567
     36          1           0        6.242520    2.674821    1.430295
     37          1           0        4.652302    1.651643   -0.131363
     38          1           0        0.518838   -0.204879    1.154551
     39          1           0       -0.457077    1.234870    1.433655
     40          1           0       -1.443414   -1.446350    0.291297
     41          1           0       -1.805492   -0.779087    1.882130
     42          1           0       -3.047462    1.087659    0.851667
     43          1           0       -5.309337    1.455598    1.726965
     44          1           0       -5.093204    1.890844    0.021377
     45          1           0       -7.591732    2.010468    1.139680
     46          1           0       -7.380372    1.423428   -0.517253
     47          1           0       -7.582933   -0.292161    2.015975
     48          1           0       -8.545497   -0.464302    0.541223
     49          1           0       -6.649493   -1.366162   -0.696729
     50          1           0       -6.258709   -1.990137    0.905965
     51          1           0       -3.286434    1.308072   -1.608737
     52          1           0       -2.331962   -0.159191   -1.847416
     53          1           0       -0.875676    1.815882   -2.207148
     54          1           0       -1.345630    2.484850   -0.632307
 ---------------------------------------------------------------------

 SCF Done:  E(RB3LYP) =  -1169.35539048     A.U. after   15 cycles

 Excitation energies and oscillator strengths:

 Excited state symmetry could not be determined.
 Excited State   1:      Triplet-?Sym    2.8144 eV  440.54 nm  f=0.0000  <S**2>=2.000
      91 ->102        -0.11630
      94 ->100        -0.17365
      98 -> 99         0.66788
      98 <- 99         0.10126
 This state for optimization and/or second-order correction.
 Total Energy, E(TD-HF/TD-DFT) =  -1169.25196340
 Copying the excited state density for this state as the 1-particle RhoCI density.

 Excited state symmetry could not be determined.
 Excited State   2:      Triplet-?Sym    3.7784 eV  328.14 nm  f=0.0000  <S**2>=2.000
      92 -> 99         0.65837
      92 ->102        -0.14018
      93 -> 99        -0.16868

 Excited state symmetry could not be determined.
 Excited State   3:      Singlet-?Sym    4.2994 eV  288.38 nm  f=0.0019  <S**2>=0.000
      92 -> 99         0.67914
      93 -> 99        -0.17421

 Excited state symmetry could not be determined.
 Excited State   4:      Singlet-?Sym    4.4380 eV  279.37 nm  f=0.0997  <S**2>=0.000
      94 ->100        -0.13951
      98 -> 99         0.68338

 Alpha  occ. eigenvalues --  -19.10758 -19.10515 -14.36240 -14.36131 -14.32005
 Alpha  occ. eigenvalues --  -10.28393 -10.27843 -10.23670 -10.23011 -10.22140
 Alpha  occ. eigenvalues --  -10.21831 -10.21813 -10.21794 -10.20934 -10.20484
 Alpha  occ. eigenvalues --  -10.20399 -10.20062 -10.20047 -10.19983 -10.19529
 Alpha  occ. eigenvalues --  -10.19334 -10.19273 -10.19201 -10.19071 -10.19065
 Alpha  occ. eigenvalues --  -10.19021 -10.18557  -1.02831  -1.02632  -0.94088
 Alpha  occ. eigenvalues --   -0.93658  -0.93482  -0.84499  -0.82322  -0.81666
 Alpha  occ. eigenvalues --   -0.79535  -0.77362  -0.76103  -0.74795  -0.74473
 Alpha  occ. eigenvalues --   -0.73597  -0.70040  -0.66560  -0.64809  -0.63663
 Alpha  occ. eigenvalues --   -0.62476  -0.62251  -0.60772  -0.59065  -0.57421
 Alpha  occ. eigenvalues --   -0.55711  -0.53887  -0.52049  -0.51690  -0.51553
 Alpha  occ. eigenvalues --   -0.50693  -0.49794  -0.48274  -0.47343  -0.46861
 Alpha  occ. eigenvalues --   -0.45642  -0.44980  -0.44589  -0.44156  -0.43972
 Alpha  occ. eigenvalues --   -0.43277  -0.43045  -0.42383  -0.41825  -0.41276
 Alpha  occ. eigenvalues --   -0.41155  -0.40827  -0.40210  -0.39894  -0.39750
 Alpha  occ. eigenvalues --   -0.37673  -0.37456  -0.37285  -0.36803  -0.36246
 Alpha  occ. eigenvalues --   -0.36211  -0.35715  -0.35362  -0.34872  -0.34641
 Alpha  occ. eigenvalues --   -0.34356  -0.33820  -0.33390  -0.33258  -0.32292
 Alpha  occ. eigenvalues --   -0.29022  -0.24744  -0.24713  -0.24538  -0.24368
 Alpha  occ. eigenvalues --   -0.23857  -0.23565  -0.22477
 Alpha virt. eigenvalues --   -0.04645  -0.01016   0.02207   0.02498   0.02789
 Alpha virt. eigenvalues --    0.06474   0.08503   0.09142   0.09320   0.09982
 Alpha virt. eigenvalues --    0.10213   0.11549   0.11837   0.12061   0.12649

 Mulliken charges:
               1
     1  O   -0.522665
     2  C    0.611593
     3  C   -0.387184
     4  C   -0.346874
     5  C    0.144869
     6  C   -0.218049
     7  C    0.047492
     8  N   -0.497390
     9  C    0.231772
    10  C   -0.141338
    11  C   -0.136524
    12  C   -0.132907
    13  C   -0.206631
    14  C    0.107617
    15  N   -0.430182
    16  C   -0.159731
    17  C   -0.258260
    18  C   -0.189765
    19  C    0.602762
    20  O   -0.536782
    21  N   -0.459521
    22  C   -0.117793
    23  C   -0.297860
    24  C   -0.302666
    25  C   -0.101839
    26  C   -0.273088
    27  C   -0.150882
    28  H    0.170313
    29  H    0.169955
    30  H    0.165655
    31  H    0.174341
    32  H    0.131518
    33  H    0.137565
    34  H    0.143511
    35  H    0.133016
    36  H    0.131608
    37  H    0.136662
    38  H    0.165010
    39  H    0.139643
    40  H    0.174970
    41  H    0.140727
    42  H    0.124360
    43  H    0.150264
    44  H    0.156306
    45  H    0.151118
    46  H    0.154295
    47  H    0.150612
    48  H    0.152628
    49  H    0.156924
    50  H    0.172290
    51  H    0.138459
    52  H    0.169679
    53  H    0.196825
    54  H    0.133573
 Sum of Mulliken charges =  -0.00000

 Dipole moment (field-independent basis, Debye):
    X=             -5.5397    Y=              3.5683    Z=              2.9192  Tot=              7.2071
 Quadrupole moment (field-independent basis, Debye-Ang):
   XX=           -150.4471   YY=           -162.0292   ZZ=           -163.3136
   XY=             -3.6859   XZ=             -1.0699   YZ=              8.0660

 Normal termination of Gaussian 16 at Fri Nov  4 23:06:50 2022.
