 Gaussian 16, Revision B.01,
 Gaussian 16:  ES64L-G16RevB.01 20-Dec-2017

 -----------------------------
 #p b3lyp/6-31g(d) opt SCF=XQC
 -----------------------------

 ------------------------------
 Gaussian input prepared by ASE
 ------------------------------
 Symbolic Z-matrix:
 Charge =  0 Multiplicity = 1

 SCF Done:  E(RB3LYP) =  -1169.34785221     A.U. after   15 cycles
 SCF Done:  E(RB3LYP) =  -1169.35391233     A.U. after   12 cycles
 SCF Done:  E(RB3LYP) =  -1169.35428195     A.U. after   11 cycles
 SCF Done:  E(RB3LYP) =  -1169.35435186     A.U. after   12 cycles
 SCF Done:  E(RB3LYP) =  -1169.35452618     A.U. after   11 cycles
 SCF Done:  E(RB3LYP) =  -1169.35467847     A.U. after   12 cycles
 SCF Done:  E(RB3LYP) =  -1169.35483167     A.U. after   14 cycles
 SCF Done:  E(RB3LYP) =  -1169.35488869     A.U. after   11 cycles
 SCF Done:  E(RB3LYP) =  -1169.35507356     A.U. after   12 cycles
 SCF Done:  E(RB3LYP) =  -1169.35511949     A.U. after   12 cycles
 SCF Done:  E(RB3LYP) =  -1169.35536427     A.U. after   10 cycles
 SCF Done:  E(RB3LYP) =  -1169.35538268     A.U. after   11 cycles
 SCF Done:  E(RB3LYP) =  -1169.35537165     A.U. after   10 cycles
 SCF Done:  E(RB3LYP) =  -1169.35538495     A.U. after   11 cycles
 SCF Done:  E(RB3LYP) =  -1169.35538488     A.U. after    9 cycles
 SCF Done:  E(RB3LYP) =  -1169.35538494     A.U. after    7 cycles
 SCF Done:  E(RB3LYP) =  -1169.35538525     A.U. after    9 cycles
 SCF Done:  E(RB3LYP) =  -1169.35538530     A.U. after    7 cycles
 SCF Done:  E(RB3LYP) =  -1169.35538531     A.U. after    7 cycles
 SCF Done:  E(RB3LYP) =  -1169.35538530     A.U. after    7 cycles
 Optimization completed.
    -- Stationary point found.

                         Standard orientation:
 ---------------------------------------------------------------------
 Center     Atomic      Atomic             Coordinates (Angstroms)
 Number     Number       Type             X           Y           Z
 ---------------------------------------------------------------------
      1          8           0        0.674945    1.127202   -2.475364
      2          6           0        0.557022    0.739878   -1.315088
      3          6           0        1.732545    0.074064   -0.590725
      4          6           0        2.953806   -0.068391   -1.517576
      5          6           0        4.141010   -0.679286   -0.808206
      6          6           0        4.422848   -2.023585   -0.941625
      7          6           0        5.511230   -2.597813   -0.243308
      8          7           0        6.314339   -1.929141    0.557315
      9          6           0        6.072310   -0.592584    0.707590
     10          6           0        6.938204    0.139846    1.562408
     11          6           0        6.757806    1.489969    1.758010
     12          6           0        5.703001    2.167904    1.101763
     13          6           0        4.845475    1.484994    0.267067
     14          6           0        4.997704    0.088611    0.045588
     15          7           0       -0.619756    0.881165   -0.619001
     16          6           0       -0.855398    0.490352    0.768975
     17          6           0       -2.065949   -0.446080    0.885947
     18          6           0       -3.319081    0.165780    0.235408
     19          6           0       -4.465111   -0.852228    0.235031
     20          8           0       -4.251265   -2.047744    0.034886
     21          7           0       -5.731594   -0.385601    0.432643
     22          6           0       -6.157857    1.004684    0.651414
     23          6           0       -7.685117    0.937260    0.487302
     24          6           0       -8.029989   -0.481759    0.969108
     25          6           0       -6.863821   -1.326547    0.439137
     26          6           0       -2.998140    0.593188   -1.215866
     27          6           0       -1.768522    1.506930   -1.272996
     28          1           0        1.999704    0.659691    0.298361
     29          1           0        1.436101   -0.916167   -0.222241
     30          1           0        2.675522   -0.693426   -2.371216
     31          1           0        3.201331    0.911506   -1.935905
     32          1           0        3.810925   -2.651813   -1.584165
     33          1           0        5.718717   -3.661797   -0.358704
     34          1           0        7.740278   -0.408720    2.046342
     35          1           0        7.426808    2.041565    2.413074
     36          1           0        5.571972    3.235746    1.255051
     37          1           0        4.047427    2.023164   -0.234872
     38          1           0        0.031768    0.006311    1.176710
     39          1           0       -1.029078    1.399589    1.367933
     40          1           0       -1.851643   -1.402283    0.398561
     41          1           0       -2.254527   -0.659544    1.945531
     42          1           0       -3.605439    1.061084    0.803794
     43          1           0       -5.886092    1.346828    1.660869
     44          1           0       -5.694988    1.686496   -0.069243
     45          1           0       -8.197169    1.725898    1.046592
     46          1           0       -7.949491    1.049897   -0.570936
     47          1           0       -8.050896   -0.512598    2.065320
     48          1           0       -9.000095   -0.834259    0.607030
     49          1           0       -7.052277   -1.696587   -0.577496
     50          1           0       -6.626136   -2.194318    1.059987
     51          1           0       -3.855058    1.112121   -1.664883
     52          1           0       -2.814000   -0.307320   -1.813975
     53          1           0       -1.478617    1.725108   -2.300881
     54          1           0       -1.989271    2.462073   -0.769668
 ---------------------------------------------------------------------

 The electronic state is 1-A.
 Alpha  occ. eigenvalues --  -19.10758 -19.10515 -14.36241 -14.36131 -14.32005
 Alpha  occ. eigenvalues --  -10.28393 -10.27843 -10.23670 -10.23011 -10.22140
 Alpha  occ. eigenvalues --  -10.21831 -10.21813 -10.21794 -10.20934 -10.20484
 Alpha  occ. eigenvalues --  -10.20399 -10.20062 -10.20047 -10.19983 -10.19529
 Alpha  occ. eigenvalues --  -10.19334 -10.19273 -10.19201 -10.19071 -10.19065
 Alpha  occ. eigenvalues --  -10.19021 -10.18557  -1.02831  -1.02632  -0.94088
 Alpha  occ. eigenvalues --   -0.93658  -0.93482  -0.84499  -0.82322  -0.81666
 Alpha  occ. eigenvalues --   -0.79535  -0.77362  -0.76103  -0.74794  -0.74473
 Alpha  occ. eigenvalues --   -0.73597  -0.70040  -0.66560  -0.64809  -0.63663
 Alpha  occ. eigenvalues --   -0.62476  -0.62251  -0.60772  -0.59065  -0.57421
 Alpha  occ. eigenvalues --   -0.55711  -0.53887  -0.52049  -0.51690  -0.51553
 Alpha  occ. eigenvalues --   -0.50693  -0.49794  -0.48274  -0.47343  -0.46861
 Alpha  occ. eigenvalues --   -0.45642  -0.44980  -0.44589  -0.44156  -0.43972
 Alpha  occ. eigenvalues --   -0.43277  -0.43045  -0.42383  -0.41825  -0.41276
 Alpha  occ. eigenvalues --   -0.41155  -0.40827  -0.40210  -0.39894  -0.39750
 Alpha  occ. eigenvalues --   -0.37673  -0.37456  -0.37285  -0.36803  -0.36246
 Alpha  occ. eigenvalues --   -0.36211  -0.35715  -0.35362  -0.34872  -0.34641
 Alpha  occ. eigenvalues --   -0.34356  -0.33820  -0.33390  -0.33258  -0.32292
 Alpha  occ. eigenvalues --   -0.29022  -0.24744  -0.24713  -0.24538  -0.24368
 Alpha  occ. eigenvalues --   -0.23857  -0.23565  -0.22477
 Alpha virt. eigenvalues --   -0.04645  -0.01016   0.02207   0.02498   0.02789
 Alpha virt. eigenvalues --    0.06474   0.08503   0.09142   0.09320   0.09982
 Alpha virt. eigenvalues --    0.10213   0.11549   0.11837   0.12061   0.12649

 Mulliken charges:
               1
     1  O   -0.522672
     2  C    0.611622
     3  C   -0.387191
     4  C   -0.346865
     5  C    0.144883
     6  C   -0.218048
     7  C    0.047489
     8  N   -0.497382
     9  C    0.231788
    10  C   -0.141346
    11  C   -0.136532
    12  C   -0.132892
    13  C   -0.206632
    14  C    0.107581
    15  N   -0.430195
    16  C   -0.159772
    17  C   -0.258217
    18  C   -0.189784
    19  C    0.602776
    20  O   -0.536785
    21  N   -0.459538
    22  C   -0.117783
    23  C   -0.297849
    24  C   -0.302670
    25  C   -0.101839
    26  C   -0.273114
    27  C   -0.150851
    28  H    0.170313
    29  H    0.169956
    30  H    0.165653
    31  H    0.174339
    32  H    0.131517
    33  H    0.137566
    34  H    0.143511
    35  H    0.133016
    36  H    0.131607
    37  H    0.136663
    38  H    0.165013
    39  H    0.139648
    40  H    0.174966
    41  H    0.140724
    42  H    0.124365
    43  H    0.150262
    44  H    0.156305
    45  H    0.151115
    46  H    0.154290
    47  H    0.150612
    48  H    0.152629
    49  H    0.156925
    50  H    0.172290
    51  H    0.138461
    52  H    0.169681
    53  H    0.196821
    54  H    0.133569
 Sum of Mulliken charges =  -0.00000

 Dipole moment (field-independent basis, Debye):
    X=             -5.7464    Y=              3.4055    Z=              2.7060  Tot=              7.2071
 Quadrupole moment (field-independent basis, Debye-Ang):
   XX=           -144.3279   YY=           -160.7055   ZZ=           -164.2410
   XY=             -5.3712   XZ=             -2.7725   YZ=              8.2003

 Normal termination of Gaussian 16 at Fri Nov  4 20:04:02 2022.
