 Gaussian 16, Revision B.01,
 Gaussian 16:  ES64L-G16RevB.01 20-Dec-2017

 -------------------------------------------------------------------
 #p b3lyp/6-31g(d) 6D 10F nosymm GFInput td=(50-50,nstate=2) SCF=XQC
 -------------------------------------------------------------------

 ------------------------------
 Gaussian input prepared by ASE
 ------------------------------
 Symbolic Z-matrix:
 Charge =  0 Multiplicity = 1

                          Input orientation:
 ---------------------------------------------------------------------
 Center     Atomic      Atomic             Coordinates (Angstroms)
 Number     Number       Type             X           Y           Z
 ---------------------------------------------------------------------
      1          8           0       -1.389876   -3.591260   -2.626939
      2          6           0       -0.982593   -2.514162   -2.238890
      3          7           0       -0.012465   -1.806287   -2.933355
      4          6           0        0.804317   -0.790456   -2.418498
      5          8           0        1.859664   -0.511632   -2.964192
      6          7           0        0.337320   -0.162967   -1.273150
      7          6           0        1.367290    0.599034   -0.509530
      8          6           0        2.223406   -0.305256    0.354210
      9          6           0        3.434368   -0.822139   -0.127136
     10          6           0        4.213651   -1.660084    0.671624
     11          6           0        3.792194   -1.993594    1.960235
     12          6           0        2.587614   -1.483600    2.448313
     13          6           0        1.809911   -0.643677    1.650362
     14          6           0       -0.938973   -0.439073   -0.749285
     15          6           0       -1.694180    0.460266   -0.027179
     16          6           0       -1.449033    1.932686   -0.048660
     17          6           0       -1.491883    2.689552    1.135100
     18          6           0       -1.319553    4.074139    1.109053
     19          6           0       -1.104219    4.731303   -0.102686
     20          6           0       -1.065062    3.993654   -1.288713
     21          6           0       -1.238153    2.611505   -1.262614
     22          6           0       -2.800783    0.017978    0.797228
     23          6           0       -2.969725   -1.187986    1.430401
     24          6           0       -2.095004   -2.326013    1.345781
     25          6           0       -1.338891   -2.619831    0.262099
     26          6           0       -1.514807   -1.819130   -1.000593
     27          1           0        0.375427   -2.265667   -3.750788
     28          1           0        1.973769    1.129991   -1.243018
     29          1           0        0.848388    1.334738    0.099421
     30          1           0        3.756747   -0.569539   -1.132702
     31          1           0        5.152463   -2.050390    0.287462
     32          1           0        4.401278   -2.643860    2.582689
     33          1           0        2.256188   -1.734103    3.452714
     34          1           0        0.875881   -0.244009    2.037201
     35          1           0       -1.650876    2.183066    2.083294
     36          1           0       -1.351223    4.637884    2.037689
     37          1           0       -0.970533    5.809387   -0.124633
     38          1           0       -0.909035    4.497692   -2.238808
     39          1           0       -1.222255    2.048178   -2.190912
     40          1           0       -3.518920    0.796668    1.046475
     41          1           0       -3.793614   -1.254861    2.138973
     42          1           0       -2.044836   -2.983231    2.212520
     43          1           0       -0.610203   -3.425655    0.282169
     44          1           0       -2.593183   -1.699260   -1.172730
 ---------------------------------------------------------------------

 SCF Done:  E(RB3LYP) =  -1109.13107347     A.U. after   16 cycles

 Excitation energies and oscillator strengths:

 Excited state symmetry could not be determined.
 Excited State   1:      Triplet-?Sym    2.3960 eV  517.47 nm  f=0.0000  <S**2>=2.000
      89 -> 91        -0.13915
      89 -> 92        -0.13537
      90 -> 91         0.65612
 This state for optimization and/or second-order correction.
 Total Energy, E(TD-HF/TD-DFT) =  -1109.04302249
 Copying the excited state density for this state as the 1-particle RhoCI density.

 Excited state symmetry could not be determined.
 Excited State   2:      Triplet-?Sym    3.2963 eV  376.13 nm  f=0.0000  <S**2>=2.000
      84 -> 92        -0.11636
      85 -> 92         0.11688
      86 -> 94        -0.14029
      87 -> 91        -0.16008
      89 -> 91         0.42846
      89 -> 92         0.10027
      89 -> 97         0.11466
      90 -> 91         0.13399
      90 -> 92        -0.39145

 Excited state symmetry could not be determined.
 Excited State   3:      Singlet-?Sym    3.7898 eV  327.16 nm  f=0.1185  <S**2>=0.000
      90 -> 91         0.69161

 Excited state symmetry could not be determined.
 Excited State   4:      Singlet-?Sym    4.2531 eV  291.51 nm  f=0.0277  <S**2>=0.000
      87 -> 91        -0.10181
      89 -> 91         0.37100
      90 -> 92         0.57596

 Alpha  occ. eigenvalues --  -19.13815 -19.13386 -14.39264 -14.38828 -10.33582
 Alpha  occ. eigenvalues --  -10.31191 -10.25335 -10.22856 -10.22035 -10.20839
 Alpha  occ. eigenvalues --  -10.20713 -10.20677 -10.20175 -10.19935 -10.19852
 Alpha  occ. eigenvalues --  -10.19805 -10.19782 -10.19764 -10.19752 -10.19704
 Alpha  occ. eigenvalues --  -10.19698 -10.19169 -10.19127 -10.19088 -10.18986
 Alpha  occ. eigenvalues --  -10.18757  -1.07670  -1.05203  -0.97089  -0.93133
 Alpha  occ. eigenvalues --   -0.86917  -0.85557  -0.84935  -0.79783  -0.78631
 Alpha  occ. eigenvalues --   -0.76788  -0.75171  -0.74389  -0.74121  -0.70146
 Alpha  occ. eigenvalues --   -0.69823  -0.66341  -0.63649  -0.61529  -0.60791
 Alpha  occ. eigenvalues --   -0.60564  -0.59442  -0.58692  -0.56703  -0.54221
 Alpha  occ. eigenvalues --   -0.52613  -0.51849  -0.50917  -0.49851  -0.49200
 Alpha  occ. eigenvalues --   -0.47640  -0.46602  -0.46127  -0.45985  -0.45260
 Alpha  occ. eigenvalues --   -0.44952  -0.44391  -0.43820  -0.42703  -0.42542
 Alpha  occ. eigenvalues --   -0.42287  -0.41923  -0.41049  -0.40267  -0.39776
 Alpha  occ. eigenvalues --   -0.38917  -0.37887  -0.36854  -0.36593  -0.36024
 Alpha  occ. eigenvalues --   -0.35227  -0.34984  -0.34737  -0.34002  -0.32249
 Alpha  occ. eigenvalues --   -0.30933  -0.29610  -0.28317  -0.27005  -0.26367
 Alpha  occ. eigenvalues --   -0.25819  -0.25094  -0.24930  -0.24349  -0.20996
 Alpha virt. eigenvalues --   -0.05272  -0.02498  -0.01513  -0.00928  -0.00328
 Alpha virt. eigenvalues --   -0.00124   0.02276   0.05058   0.08619   0.08995
 Alpha virt. eigenvalues --    0.09097   0.09694   0.10447   0.12464   0.13209

 Mulliken charges:
               1
     1  O   -0.475216
     2  C    0.612388
     3  N   -0.667848
     4  C    0.770087
     5  O   -0.509841
     6  N   -0.530030
     7  C   -0.263602
     8  C    0.156487
     9  C   -0.178941
    10  C   -0.131238
    11  C   -0.127196
    12  C   -0.132064
    13  C   -0.177608
    14  C    0.258504
    15  C    0.065033
    16  C    0.040419
    17  C   -0.170502
    18  C   -0.130843
    19  C   -0.126155
    20  C   -0.133464
    21  C   -0.150897
    22  C   -0.193710
    23  C   -0.152937
    24  C   -0.110561
    25  C   -0.094752
    26  C   -0.321584
    27  H    0.353318
    28  H    0.191728
    29  H    0.188140
    30  H    0.159496
    31  H    0.133008
    32  H    0.130601
    33  H    0.129663
    34  H    0.135815
    35  H    0.136804
    36  H    0.134701
    37  H    0.134634
    38  H    0.136717
    39  H    0.137748
    40  H    0.139050
    41  H    0.135355
    42  H    0.140918
    43  H    0.153346
    44  H    0.205031
 Sum of Mulliken charges =  -0.00000

 Dipole moment (field-independent basis, Debye):
    X=             -0.3789    Y=              2.1623    Z=              2.7142  Tot=              3.4908
 Quadrupole moment (field-independent basis, Debye-Ang):
   XX=           -149.6497   YY=           -148.1804   ZZ=           -145.4249
   XY=             -8.4187   XZ=             -1.8926   YZ=             -8.4628

 Normal termination of Gaussian 16 at Sat Nov  5 12:14:35 2022.
