 Gaussian 16, Revision B.01,
 Gaussian 16:  ES64L-G16RevB.01 20-Dec-2017

 -----------------------------
 #p b3lyp/6-31g(d) opt SCF=XQC
 -----------------------------

 ------------------------------
 Gaussian input prepared by ASE
 ------------------------------
 Symbolic Z-matrix:
 Charge =  0 Multiplicity = 1

 SCF Done:  E(RB3LYP) =  -1109.11547401     A.U. after   16 cycles
 SCF Done:  E(RB3LYP) =  -1109.11818122     A.U. after   15 cycles
 SCF Done:  E(RB3LYP) =  -1109.12380410     A.U. after   11 cycles
 SCF Done:  E(RB3LYP) =  -1109.12558270     A.U. after   13 cycles
 SCF Done:  E(RB3LYP) =  -1109.12816258     A.U. after   13 cycles
 SCF Done:  E(RB3LYP) =  -1109.12899083     A.U. after   13 cycles
 SCF Done:  E(RB3LYP) =  -1109.12932915     A.U. after   13 cycles
 SCF Done:  E(RB3LYP) =  -1109.12960311     A.U. after   13 cycles
 SCF Done:  E(RB3LYP) =  -1109.12981904     A.U. after   13 cycles
 SCF Done:  E(RB3LYP) =  -1109.13015004     A.U. after   13 cycles
 SCF Done:  E(RB3LYP) =  -1109.13083426     A.U. after   10 cycles
 SCF Done:  E(RB3LYP) =  -1109.13092291     A.U. after   13 cycles
 SCF Done:  E(RB3LYP) =  -1109.13096825     A.U. after   12 cycles
 SCF Done:  E(RB3LYP) =  -1109.13101403     A.U. after   12 cycles
 SCF Done:  E(RB3LYP) =  -1109.13103856     A.U. after   13 cycles
 SCF Done:  E(RB3LYP) =  -1109.13103840     A.U. after   13 cycles
 SCF Done:  E(RB3LYP) =  -1109.13106362     A.U. after   12 cycles
 SCF Done:  E(RB3LYP) =  -1109.13106396     A.U. after    7 cycles
 SCF Done:  E(RB3LYP) =  -1109.13106405     A.U. after    8 cycles
 SCF Done:  E(RB3LYP) =  -1109.13106405     A.U. after    7 cycles
 Optimization completed.
    -- Stationary point found.

                         Standard orientation:
 ---------------------------------------------------------------------
 Center     Atomic      Atomic             Coordinates (Angstroms)
 Number     Number       Type             X           Y           Z
 ---------------------------------------------------------------------
      1          8           0        2.118805   -3.717134   -0.979607
      2          6           0        1.453788   -2.700196   -0.993453
      3          7           0        1.449176   -1.844793   -2.085598
      4          6           0        1.063650   -0.497391   -2.085200
      5          8           0        1.454812    0.256226   -2.961747
      6          7           0        0.243773   -0.104652   -1.037722
      7          6           0        0.179779    1.367601   -0.807562
      8          6           0        1.381107    1.878358   -0.037718
      9          6           0        2.511996    2.362591   -0.709953
     10          6           0        3.617246    2.824488    0.005956
     11          6           0        3.607367    2.806718    1.402007
     12          6           0        2.485546    2.326324    2.080288
     13          6           0        1.379545    1.866972    1.364203
     14          6           0       -0.274852   -1.034980   -0.118422
     15          6           0       -1.467954   -0.880403    0.554779
     16          6           0       -2.536133    0.064576    0.113658
     17          6           0       -3.221690    0.865113    1.043779
     18          6           0       -4.259131    1.706771    0.640312
     19          6           0       -4.635032    1.762575   -0.702122
     20          6           0       -3.967280    0.968329   -1.637857
     21          6           0       -2.932276    0.127370   -1.234703
     22          6           0       -1.763535   -1.654574    1.743528
     23          6           0       -0.891220   -2.174922    2.666623
     24          6           0        0.544498   -2.124174    2.607118
     25          6           0        1.253231   -2.098299    1.454108
     26          6           0        0.538158   -2.287976    0.142943
     27          1           0        2.074922   -2.089074   -2.846162
     28          1           0        0.114383    1.836846   -1.789025
     29          1           0       -0.740469    1.576929   -0.268428
     30          1           0        2.522279    2.367481   -1.795664
     31          1           0        4.485802    3.201210   -0.527878
     32          1           0        4.467457    3.169468    1.958728
     33          1           0        2.468422    2.315130    3.167025
     34          1           0        0.505941    1.499786    1.896913
     35          1           0       -2.928484    0.832783    2.089658
     36          1           0       -4.771199    2.320698    1.376555
     37          1           0       -5.443043    2.416915   -1.017677
     38          1           0       -4.260103    0.996397   -2.684063
     39          1           0       -2.429553   -0.498350   -1.966190
     40          1           0       -2.820552   -1.710108    1.996181
     41          1           0       -1.329887   -2.579804    3.577107
     42          1           0        1.083423   -2.104141    3.553082
     43          1           0        2.329473   -1.948491    1.454678
     44          1           0       -0.169253   -3.119526    0.265381
 ---------------------------------------------------------------------

 The electronic state is 1-A.
 Alpha  occ. eigenvalues --  -19.13815 -19.13386 -14.39264 -14.38828 -10.33582
 Alpha  occ. eigenvalues --  -10.31191 -10.25335 -10.22856 -10.22034 -10.20839
 Alpha  occ. eigenvalues --  -10.20713 -10.20677 -10.20175 -10.19935 -10.19852
 Alpha  occ. eigenvalues --  -10.19805 -10.19782 -10.19765 -10.19752 -10.19704
 Alpha  occ. eigenvalues --  -10.19698 -10.19169 -10.19127 -10.19088 -10.18986
 Alpha  occ. eigenvalues --  -10.18757  -1.07670  -1.05203  -0.97089  -0.93133
 Alpha  occ. eigenvalues --   -0.86917  -0.85556  -0.84935  -0.79783  -0.78631
 Alpha  occ. eigenvalues --   -0.76788  -0.75171  -0.74389  -0.74121  -0.70146
 Alpha  occ. eigenvalues --   -0.69823  -0.66341  -0.63649  -0.61529  -0.60791
 Alpha  occ. eigenvalues --   -0.60564  -0.59442  -0.58692  -0.56703  -0.54221
 Alpha  occ. eigenvalues --   -0.52613  -0.51849  -0.50917  -0.49851  -0.49200
 Alpha  occ. eigenvalues --   -0.47640  -0.46602  -0.46127  -0.45985  -0.45260
 Alpha  occ. eigenvalues --   -0.44952  -0.44391  -0.43820  -0.42703  -0.42542
 Alpha  occ. eigenvalues --   -0.42287  -0.41923  -0.41049  -0.40267  -0.39776
 Alpha  occ. eigenvalues --   -0.38917  -0.37887  -0.36854  -0.36593  -0.36024
 Alpha  occ. eigenvalues --   -0.35227  -0.34984  -0.34737  -0.34002  -0.32249
 Alpha  occ. eigenvalues --   -0.30933  -0.29610  -0.28317  -0.27005  -0.26367
 Alpha  occ. eigenvalues --   -0.25819  -0.25094  -0.24930  -0.24349  -0.20996
 Alpha virt. eigenvalues --   -0.05272  -0.02498  -0.01513  -0.00928  -0.00328
 Alpha virt. eigenvalues --   -0.00124   0.02276   0.05057   0.08619   0.08995
 Alpha virt. eigenvalues --    0.09097   0.09694   0.10447   0.12464   0.13209

 Mulliken charges:
               1
     1  O   -0.475218
     2  C    0.612387
     3  N   -0.667844
     4  C    0.770082
     5  O   -0.509856
     6  N   -0.530016
     7  C   -0.263625
     8  C    0.156562
     9  C   -0.178955
    10  C   -0.131243
    11  C   -0.127194
    12  C   -0.132062
    13  C   -0.177638
    14  C    0.258463
    15  C    0.065106
    16  C    0.040382
    17  C   -0.170507
    18  C   -0.130838
    19  C   -0.126159
    20  C   -0.133463
    21  C   -0.150891
    22  C   -0.193733
    23  C   -0.152943
    24  C   -0.110562
    25  C   -0.094766
    26  C   -0.321540
    27  H    0.353320
    28  H    0.191724
    29  H    0.188140
    30  H    0.159495
    31  H    0.133008
    32  H    0.130599
    33  H    0.129661
    34  H    0.135811
    35  H    0.136804
    36  H    0.134700
    37  H    0.134634
    38  H    0.136716
    39  H    0.137752
    40  H    0.139052
    41  H    0.135357
    42  H    0.140919
    43  H    0.153350
    44  H    0.205025
 Sum of Mulliken charges =  -0.00000

 Dipole moment (field-independent basis, Debye):
    X=             -2.0824    Y=              1.8411    Z=              2.1118  Tot=              3.4908
 Quadrupole moment (field-independent basis, Debye-Ang):
   XX=           -140.6488   YY=           -159.0326   ZZ=           -141.4861
   XY=              3.8921   XZ=              3.9797   YZ=              0.3869

 Normal termination of Gaussian 16 at Fri Nov  4 07:33:29 2022.
