 Gaussian 16, Revision B.01,
 Gaussian 16:  ES64L-G16RevB.01 20-Dec-2017

 -------------------------------------------------------------------
 #p b3lyp/6-31g(d) 6D 10F nosymm GFInput td=(50-50,nstate=2) SCF=XQC
 -------------------------------------------------------------------

 ------------------------------
 Gaussian input prepared by ASE
 ------------------------------
 Symbolic Z-matrix:
 Charge =  0 Multiplicity = 1

                          Input orientation:
 ---------------------------------------------------------------------
 Center     Atomic      Atomic             Coordinates (Angstroms)
 Number     Number       Type             X           Y           Z
 ---------------------------------------------------------------------
      1          6           0       -8.239729    0.407702   -0.877448
      2          6           0       -7.321126    1.166539    0.068961
      3          8           0       -7.778079    1.996354    0.843485
      4          6           0       -5.859077    0.880053    0.033317
      5          6           0       -5.270140   -0.061498   -0.820002
      6          6           0       -3.898005   -0.293699   -0.801935
      7          6           0       -3.037674    0.412902    0.066681
      8          7           0       -1.667415    0.212899    0.076592
      9          6           0       -1.039424   -0.530840   -1.011781
     10          6           0        0.464793   -0.273295   -1.032398
     11          7           0        1.100299   -0.766327    0.209220
     12          6           0        2.439431   -0.351074    0.385711
     13          6           0        2.835308    0.591707    1.313565
     14          6           0        4.199236    0.981104    1.412823
     15          6           0        4.614612    1.992647    2.451319
     16          7           0        5.139760    0.513773    0.613443
     17          6           0        4.787653   -0.417126   -0.311846
     18          6           0        5.787179   -0.982190   -1.158566
     19          7           0        7.157420   -0.444505   -1.165723
     20          8           0        7.296262    0.772494   -1.195754
     21          8           0        8.076381   -1.266847   -1.189393
     22          6           0        5.527917   -2.040381   -2.000223
     23          6           0        4.225638   -2.571829   -2.073211
     24          6           0        3.212739   -2.027217   -1.312530
     25          6           0        3.460449   -0.937697   -0.441692
     26          6           0        0.191716   -0.745987    1.366179
     27          6           0       -0.865439    0.360643    1.303899
     28          6           0       -3.661385    1.377001    0.896633
     29          9           0       -2.881069    2.138785    1.708907
     30          6           0       -5.017909    1.601468    0.898967
     31          1           0       -8.179700   -0.673726   -0.705353
     32          1           0       -9.264885    0.742221   -0.710095
     33          1           0       -7.966629    0.588312   -1.924023
     34          1           0       -5.882534   -0.640898   -1.503715
     35          1           0       -3.486745   -1.052686   -1.457296
     36          1           0       -1.457918   -0.185135   -1.962958
     37          1           0       -1.229240   -1.615907   -0.946288
     38          1           0        0.900988   -0.772067   -1.902927
     39          1           0        0.634252    0.808042   -1.156533
     40          1           0        2.109052    1.072426    1.961477
     41          1           0        4.034646    2.918853    2.355542
     42          1           0        5.674758    2.224393    2.335133
     43          1           0        4.443699    1.607781    3.464809
     44          1           0        6.337051   -2.455817   -2.590152
     45          1           0        4.029546   -3.418396   -2.723908
     46          1           0        2.217154   -2.456594   -1.335571
     47          1           0        0.776397   -0.649716    2.283427
     48          1           0       -0.320918   -1.715952    1.422490
     49          1           0       -1.515313    0.271991    2.176964
     50          1           0       -0.393542    1.351006    1.348214
     51          1           0       -5.440439    2.356310    1.553108
 ---------------------------------------------------------------------

 SCF Done:  E(RB3LYP) =  -1395.39386086     A.U. after   17 cycles

 Excitation energies and oscillator strengths:

 Excited state symmetry could not be determined.
 Excited State   1:      Triplet-?Sym    2.6301 eV  471.41 nm  f=0.0000  <S**2>=2.000
     100 ->110        -0.11579
     101 ->111         0.13576
     102 ->108         0.15055
     104 ->108        -0.33092
     106 ->108         0.52969
     106 ->110        -0.18613
 This state for optimization and/or second-order correction.
 Total Energy, E(TD-HF/TD-DFT) =  -1395.29720694
 Copying the excited state density for this state as the 1-particle RhoCI density.

 Excited state symmetry could not be determined.
 Excited State   2:      Triplet-?Sym    2.7743 eV  446.90 nm  f=0.0000  <S**2>=2.000
      97 ->108         0.35325
      97 ->110         0.29059
      99 ->108         0.37111
      99 ->110         0.28791
     102 ->108         0.18066
     102 ->110         0.11709
     104 ->108         0.15542

 Excited state symmetry could not be determined.
 Excited State   3:      Singlet-?Sym    3.2437 eV  382.23 nm  f=0.0038  <S**2>=0.000
     107 ->108         0.70129

 Excited state symmetry could not be determined.
 Excited State   4:      Singlet-?Sym    3.5070 eV  353.54 nm  f=0.1222  <S**2>=0.000
     106 ->108         0.68895

 Alpha  occ. eigenvalues --  -24.71455 -19.17293 -19.17067 -19.13112 -14.56221
 Alpha  occ. eigenvalues --  -14.37688 -14.36806 -14.33375 -10.27853 -10.27398
 Alpha  occ. eigenvalues --  -10.25906 -10.25625 -10.25143 -10.25099 -10.24941
 Alpha  occ. eigenvalues --  -10.24756 -10.24624 -10.24318 -10.24261 -10.22314
 Alpha  occ. eigenvalues --  -10.22241 -10.21854 -10.21628 -10.20930 -10.20907
 Alpha  occ. eigenvalues --  -10.20653 -10.20264 -10.20126 -10.18979 -10.18974
 Alpha  occ. eigenvalues --   -1.22391  -1.21458  -1.04167  -1.03056  -0.98778
 Alpha  occ. eigenvalues --   -0.96364  -0.94678  -0.87864  -0.86788  -0.82747
 Alpha  occ. eigenvalues --   -0.80110  -0.79346  -0.78734  -0.77658  -0.76267
 Alpha  occ. eigenvalues --   -0.74158  -0.72518  -0.71168  -0.69271  -0.68995
 Alpha  occ. eigenvalues --   -0.65767  -0.64247  -0.62340  -0.62291  -0.59782
 Alpha  occ. eigenvalues --   -0.57662  -0.57105  -0.55879  -0.54825  -0.54411
 Alpha  occ. eigenvalues --   -0.53052  -0.52692  -0.51764  -0.50861  -0.50682
 Alpha  occ. eigenvalues --   -0.50127  -0.49618  -0.48385  -0.47906  -0.47207
 Alpha  occ. eigenvalues --   -0.47089  -0.46189  -0.45199  -0.44789  -0.44354
 Alpha  occ. eigenvalues --   -0.44193  -0.43930  -0.43580  -0.42932  -0.42141
 Alpha  occ. eigenvalues --   -0.41750  -0.41633  -0.40867  -0.40569  -0.40439
 Alpha  occ. eigenvalues --   -0.39896  -0.39300  -0.39077  -0.38479  -0.37835
 Alpha  occ. eigenvalues --   -0.37305  -0.37068  -0.36005  -0.35213  -0.35067
 Alpha  occ. eigenvalues --   -0.32797  -0.30276  -0.29910  -0.29600  -0.28680
 Alpha  occ. eigenvalues --   -0.26531  -0.26097  -0.26066  -0.25529  -0.24660
 Alpha  occ. eigenvalues --   -0.23215  -0.21382
 Alpha virt. eigenvalues --   -0.08096  -0.05221  -0.04911  -0.03522  -0.01113
 Alpha virt. eigenvalues --    0.01255   0.04239   0.05519   0.06418   0.07390
 Alpha virt. eigenvalues --    0.08212   0.09180   0.09816   0.10629   0.11544

 Mulliken charges:
               1
     1  C   -0.542549
     2  C    0.403536
     3  O   -0.459992
     4  C    0.078683
     5  C   -0.191705
     6  C   -0.203246
     7  C    0.303034
     8  N   -0.502984
     9  C   -0.149574
    10  C   -0.145192
    11  N   -0.504508
    12  C    0.295433
    13  C   -0.235187
    14  C    0.320059
    15  C   -0.528455
    16  N   -0.548311
    17  C    0.241483
    18  C    0.246113
    19  N    0.350980
    20  O   -0.359336
    21  O   -0.391470
    22  C   -0.142182
    23  C   -0.147271
    24  C   -0.172179
    25  C    0.100036
    26  C   -0.163458
    27  C   -0.141220
    28  C    0.340199
    29  F   -0.302556
    30  C   -0.250509
    31  H    0.167746
    32  H    0.181626
    33  H    0.168571
    34  H    0.135258
    35  H    0.138127
    36  H    0.169818
    37  H    0.150675
    38  H    0.160009
    39  H    0.156522
    40  H    0.136988
    41  H    0.164562
    42  H    0.191956
    43  H    0.164835
    44  H    0.176235
    45  H    0.146881
    46  H    0.154051
    47  H    0.166721
    48  H    0.162894
    49  H    0.169829
    50  H    0.162135
    51  H    0.176888
 Sum of Mulliken charges =  -0.00000

 Dipole moment (field-independent basis, Debye):
    X=             -4.0016    Y=             -3.9997    Z=             -1.4006  Tot=              5.8286
 Quadrupole moment (field-independent basis, Debye-Ang):
   XX=           -258.6063   YY=           -173.2329   ZZ=           -160.3032
   XY=             14.7437   XZ=             20.1454   YZ=              6.0044

 Normal termination of Gaussian 16 at Sat Nov  5 12:16:30 2022.
