 Gaussian 16, Revision B.01,
 Gaussian 16:  ES64L-G16RevB.01 20-Dec-2017

 -----------------------------
 #p b3lyp/6-31g(d) opt SCF=XQC
 -----------------------------

 ------------------------------
 Gaussian input prepared by ASE
 ------------------------------
 Symbolic Z-matrix:
 Charge =  0 Multiplicity = 1

 SCF Done:  E(RB3LYP) =  -1395.38589279     A.U. after   17 cycles
 SCF Done:  E(RB3LYP) =  -1395.39263865     A.U. after   14 cycles
 SCF Done:  E(RB3LYP) =  -1395.38802420     A.U. after   15 cycles
 SCF Done:  E(RB3LYP) =  -1395.39335335     A.U. after   13 cycles
 SCF Done:  E(RB3LYP) =  -1395.39366756     A.U. after   13 cycles
 SCF Done:  E(RB3LYP) =  -1395.39375943     A.U. after   13 cycles
 SCF Done:  E(RB3LYP) =  -1395.39380300     A.U. after   13 cycles
 SCF Done:  E(RB3LYP) =  -1395.39382481     A.U. after   12 cycles
 SCF Done:  E(RB3LYP) =  -1395.39384509     A.U. after   10 cycles
 SCF Done:  E(RB3LYP) =  -1395.39385352     A.U. after   11 cycles
 SCF Done:  E(RB3LYP) =  -1395.39385694     A.U. after   10 cycles
 SCF Done:  E(RB3LYP) =  -1395.39386061     A.U. after   11 cycles
 SCF Done:  E(RB3LYP) =  -1395.39386094     A.U. after    8 cycles
 SCF Done:  E(RB3LYP) =  -1395.39386110     A.U. after    8 cycles
 SCF Done:  E(RB3LYP) =  -1395.39386120     A.U. after    8 cycles
 SCF Done:  E(RB3LYP) =  -1395.39386128     A.U. after    8 cycles
 SCF Done:  E(RB3LYP) =  -1395.39386133     A.U. after    8 cycles
 SCF Done:  E(RB3LYP) =  -1395.39386135     A.U. after    7 cycles
 Optimization completed.
    -- Stationary point found.

                         Standard orientation:
 ---------------------------------------------------------------------
 Center     Atomic      Atomic             Coordinates (Angstroms)
 Number     Number       Type             X           Y           Z
 ---------------------------------------------------------------------
      1          6           0       -8.558472   -1.510109   -0.363399
      2          6           0       -7.799879   -0.191235   -0.341815
      3          8           0       -8.401963    0.871289   -0.418119
      4          6           0       -6.314322   -0.219671   -0.226740
      5          6           0       -5.562947   -1.397358   -0.126706
      6          6           0       -4.176416   -1.361686   -0.011556
      7          6           0       -3.464351   -0.142350   -0.000148
      8          7           0       -2.083128   -0.091780    0.085733
      9          6           0       -1.302886   -1.308721   -0.120061
     10          6           0        0.156760   -0.962597   -0.401227
     11          7           0        0.770393   -0.284650    0.761703
     12          6           0        2.035043    0.290460    0.503307
     13          6           0        2.254426    1.649922    0.402301
     14          6           0        3.551560    2.153870    0.110303
     15          6           0        3.775015    3.643172    0.031088
     16          7           0        4.589688    1.373154   -0.123719
     17          6           0        4.412044    0.029000   -0.032042
     18          6           0        5.523519   -0.843633   -0.228047
     19          7           0        6.815255   -0.320254   -0.701558
     20          8           0        6.805295    0.476089   -1.632688
     21          8           0        7.827881   -0.761751   -0.152955
     22          6           0        5.448319   -2.197654    0.009321
     23          6           0        4.228066   -2.767727    0.421261
     24          6           0        3.111144   -1.974104    0.575702
     25          6           0        3.169264   -0.579285    0.335124
     26          6           0       -0.203238    0.471310    1.564857
     27          6           0       -1.382349    1.018486    0.754683
     28          6           0       -4.251501    1.028399   -0.130772
     29          9           0       -3.622000    2.232034   -0.193921
     30          6           0       -5.622874    1.004768   -0.227348
     31          1           0       -8.376896   -2.086441    0.551793
     32          1           0       -9.625265   -1.296584   -0.448334
     33          1           0       -8.245756   -2.133000   -1.210004
     34          1           0       -6.056401   -2.364143   -0.121717
     35          1           0       -3.635611   -2.295006    0.093989
     36          1           0       -1.701343   -1.840418   -0.990646
     37          1           0       -1.361788   -1.998430    0.739312
     38          1           0        0.703566   -1.881149   -0.633879
     39          1           0        0.199562   -0.321455   -1.295946
     40          1           0        1.436210    2.354392    0.514430
     41          1           0        3.092777    4.107641   -0.691554
     42          1           0        4.803836    3.844740   -0.272248
     43          1           0        3.590617    4.120129    1.002172
     44          1           0        6.337052   -2.805561   -0.116792
     45          1           0        4.177726   -3.832717    0.625698
     46          1           0        2.179087   -2.400808    0.929646
     47          1           0        0.307687    1.289901    2.076061
     48          1           0       -0.595462   -0.190653    2.348925
     49          1           0       -2.068886    1.525069    1.436209
     50          1           0       -1.039167    1.763343    0.024694
     51          1           0       -6.174257    1.933017   -0.330058
 ---------------------------------------------------------------------

 The electronic state is 1-A.
 Alpha  occ. eigenvalues --  -24.71455 -19.17293 -19.17067 -19.13112 -14.56221
 Alpha  occ. eigenvalues --  -14.37688 -14.36806 -14.33375 -10.27853 -10.27398
 Alpha  occ. eigenvalues --  -10.25906 -10.25625 -10.25143 -10.25099 -10.24941
 Alpha  occ. eigenvalues --  -10.24756 -10.24624 -10.24318 -10.24261 -10.22314
 Alpha  occ. eigenvalues --  -10.22241 -10.21854 -10.21628 -10.20930 -10.20907
 Alpha  occ. eigenvalues --  -10.20653 -10.20264 -10.20126 -10.18979 -10.18974
 Alpha  occ. eigenvalues --   -1.22391  -1.21458  -1.04167  -1.03056  -0.98778
 Alpha  occ. eigenvalues --   -0.96364  -0.94678  -0.87864  -0.86788  -0.82747
 Alpha  occ. eigenvalues --   -0.80110  -0.79346  -0.78734  -0.77658  -0.76267
 Alpha  occ. eigenvalues --   -0.74158  -0.72518  -0.71168  -0.69271  -0.68995
 Alpha  occ. eigenvalues --   -0.65767  -0.64247  -0.62341  -0.62291  -0.59782
 Alpha  occ. eigenvalues --   -0.57662  -0.57105  -0.55879  -0.54825  -0.54411
 Alpha  occ. eigenvalues --   -0.53052  -0.52692  -0.51764  -0.50861  -0.50682
 Alpha  occ. eigenvalues --   -0.50127  -0.49618  -0.48385  -0.47906  -0.47207
 Alpha  occ. eigenvalues --   -0.47089  -0.46189  -0.45199  -0.44789  -0.44354
 Alpha  occ. eigenvalues --   -0.44193  -0.43930  -0.43580  -0.42932  -0.42141
 Alpha  occ. eigenvalues --   -0.41750  -0.41633  -0.40867  -0.40569  -0.40439
 Alpha  occ. eigenvalues --   -0.39896  -0.39300  -0.39077  -0.38479  -0.37835
 Alpha  occ. eigenvalues --   -0.37305  -0.37068  -0.36005  -0.35213  -0.35067
 Alpha  occ. eigenvalues --   -0.32797  -0.30276  -0.29910  -0.29600  -0.28680
 Alpha  occ. eigenvalues --   -0.26531  -0.26097  -0.26066  -0.25529  -0.24660
 Alpha  occ. eigenvalues --   -0.23215  -0.21382
 Alpha virt. eigenvalues --   -0.08096  -0.05221  -0.04911  -0.03522  -0.01113
 Alpha virt. eigenvalues --    0.01255   0.04239   0.05519   0.06418   0.07390
 Alpha virt. eigenvalues --    0.08212   0.09180   0.09816   0.10629   0.11544

 Mulliken charges:
               1
     1  C   -0.542546
     2  C    0.403539
     3  O   -0.459992
     4  C    0.078656
     5  C   -0.191693
     6  C   -0.203242
     7  C    0.303008
     8  N   -0.502969
     9  C   -0.149574
    10  C   -0.145204
    11  N   -0.504515
    12  C    0.295453
    13  C   -0.235197
    14  C    0.320063
    15  C   -0.528454
    16  N   -0.548328
    17  C    0.241493
    18  C    0.246115
    19  N    0.350991
    20  O   -0.359339
    21  O   -0.391472
    22  C   -0.142183
    23  C   -0.147268
    24  C   -0.172178
    25  C    0.100024
    26  C   -0.163452
    27  C   -0.141216
    28  C    0.340198
    29  F   -0.302555
    30  C   -0.250493
    31  H    0.167746
    32  H    0.181625
    33  H    0.168571
    34  H    0.135257
    35  H    0.138128
    36  H    0.169818
    37  H    0.150678
    38  H    0.160011
    39  H    0.156524
    40  H    0.136991
    41  H    0.164563
    42  H    0.191954
    43  H    0.164835
    44  H    0.176234
    45  H    0.146881
    46  H    0.154054
    47  H    0.166719
    48  H    0.162892
    49  H    0.169829
    50  H    0.162134
    51  H    0.176887
 Sum of Mulliken charges =  -0.00000

 Dipole moment (field-independent basis, Debye):
    X=             -3.3868    Y=             -4.1822    Z=              2.2387  Tot=              5.8286
 Quadrupole moment (field-independent basis, Debye-Ang):
   XX=           -260.1833   YY=           -154.7128   ZZ=           -173.4118
   XY=             13.7923   XZ=              4.8908   YZ=              4.7314

 Normal termination of Gaussian 16 at Fri Nov  4 20:44:40 2022.
