 Gaussian 16, Revision B.01,
 Gaussian 16:  ES64L-G16RevB.01 20-Dec-2017

 -------------------------------------------------------------------
 #p b3lyp/6-31g(d) 6D 10F nosymm GFInput td=(50-50,nstate=2) SCF=XQC
 -------------------------------------------------------------------

 ------------------------------
 Gaussian input prepared by ASE
 ------------------------------
 Symbolic Z-matrix:
 Charge =  0 Multiplicity = 1

                          Input orientation:
 ---------------------------------------------------------------------
 Center     Atomic      Atomic             Coordinates (Angstroms)
 Number     Number       Type             X           Y           Z
 ---------------------------------------------------------------------
      1          6           0        4.295578   -3.275599   -0.737107
      2          6           0        3.853540   -1.900405   -0.309362
      3          6           0        4.619942   -1.135627    0.545867
      4          6           0        4.186389    0.171154    0.889997
      5          6           0        4.889605    1.106651    1.715692
      6          7           0        6.147023    0.764024    2.397933
      7          8           0        6.870887    1.694773    2.760896
      8          8           0        6.411039   -0.423177    2.599449
      9          6           0        4.434787    2.396715    1.926373
     10          6           0        3.240209    2.830696    1.340118
     11          6           0        2.515739    1.958710    0.548228
     12          6           0        2.953143    0.638762    0.320965
     13          6           0        2.201717   -0.295533   -0.503734
     14          7           0        0.994782    0.085238   -1.027257
     15          6           0        0.126930   -0.840678   -1.763511
     16          6           0       -0.689811   -1.738594   -0.818447
     17          6           0       -1.593182   -0.896005    0.113007
     18          7           0       -1.819374    0.448378   -0.444608
     19          6           0       -2.745991    1.269591    0.351406
     20          6           0       -4.192952    0.800102    0.436768
     21          6           0       -4.619469   -0.030162    1.482805
     22          6           0       -5.938392   -0.482244    1.550432
     23          6           0       -6.857496   -0.105439    0.570029
     24          6           0       -6.450675    0.729881   -0.472176
     25          6           0       -5.130898    1.178464   -0.534340
     26          6           0       -2.114512    0.390679   -1.880771
     27          6           0       -0.843592   -0.037573   -2.655576
     28          7           0        2.653583   -1.502916   -0.807105
     29          1           0        5.254998   -3.550792   -0.290934
     30          1           0        3.545482   -4.022478   -0.451476
     31          1           0        4.388195   -3.321104   -1.828863
     32          1           0        5.542880   -1.525630    0.944131
     33          1           0        5.025617    3.057798    2.547901
     34          1           0        2.894019    3.845931    1.504732
     35          1           0        1.607778    2.316662    0.073462
     36          1           0        0.462485    0.794500   -0.537170
     37          1           0        0.783743   -1.458868   -2.377285
     38          1           0       -0.019366   -2.371707   -0.230115
     39          1           0       -1.303621   -2.409429   -1.433315
     40          1           0       -2.541332   -1.432634    0.284604
     41          1           0       -1.118486   -0.766088    1.094053
     42          1           0       -2.327377    1.329757    1.364230
     43          1           0       -2.717835    2.282387   -0.069496
     44          1           0       -3.913380   -0.315455    2.259778
     45          1           0       -6.248922   -1.122659    2.371878
     46          1           0       -7.885863   -0.452704    0.622368
     47          1           0       -7.163084    1.038756   -1.232764
     48          1           0       -4.827759    1.841494   -1.341743
     49          1           0       -2.952678   -0.294760   -2.098237
     50          1           0       -2.436273    1.385714   -2.206594
     51          1           0       -1.132017   -0.650632   -3.517533
     52          1           0       -0.315753    0.838404   -3.047588
 ---------------------------------------------------------------------

 SCF Done:  E(RB3LYP) =  -1222.16504787     A.U. after   16 cycles

 Excitation energies and oscillator strengths:

 Excited state symmetry could not be determined.
 Excited State   1:      Triplet-?Sym    2.1219 eV  584.30 nm  f=0.0000  <S**2>=2.000
      95 ->101        -0.12033
     100 ->101         0.66746
     100 ->103        -0.14389
 This state for optimization and/or second-order correction.
 Total Energy, E(TD-HF/TD-DFT) =  -1222.08706887
 Copying the excited state density for this state as the 1-particle RhoCI density.

 Excited state symmetry could not be determined.
 Excited State   2:      Singlet-?Sym    2.6609 eV  465.95 nm  f=0.1218  <S**2>=0.000
     100 ->101         0.70313

 Excited state symmetry could not be determined.
 Excited State   3:      Triplet-?Sym    2.8407 eV  436.45 nm  f=0.0000  <S**2>=2.000
      90 ->101        -0.12129
      91 ->101         0.60528
      91 ->102         0.15994
      91 ->103         0.22490
      92 ->101        -0.14197
      94 ->101         0.13241
      91 <-101         0.13482

 Excited state symmetry could not be determined.
 Excited State   4:      Singlet-?Sym    3.4105 eV  363.53 nm  f=0.0014  <S**2>=0.000
      99 ->101         0.70372

 Alpha  occ. eigenvalues --  -19.17050 -19.16891 -14.56181 -14.34942 -14.33996
 Alpha  occ. eigenvalues --  -14.31443 -10.26780 -10.24764 -10.22600 -10.22582
 Alpha  occ. eigenvalues --  -10.22389 -10.22385 -10.21797 -10.21759 -10.21631
 Alpha  occ. eigenvalues --  -10.21511 -10.21454 -10.20811 -10.20111 -10.19766
 Alpha  occ. eigenvalues --  -10.19742 -10.19675 -10.19661 -10.19641 -10.19031
 Alpha  occ. eigenvalues --  -10.18705 -10.17685 -10.17559  -1.21277  -1.03833
 Alpha  occ. eigenvalues --   -0.97249  -0.93615  -0.90353  -0.88131  -0.85903
 Alpha  occ. eigenvalues --   -0.81227  -0.79481  -0.78801  -0.76743  -0.75845
 Alpha  occ. eigenvalues --   -0.75331  -0.75008  -0.71203  -0.69468  -0.67700
 Alpha  occ. eigenvalues --   -0.65059  -0.64008  -0.62401  -0.62038  -0.60977
 Alpha  occ. eigenvalues --   -0.59177  -0.58823  -0.55872  -0.54623  -0.52977
 Alpha  occ. eigenvalues --   -0.52198  -0.52049  -0.51269  -0.50138  -0.49744
 Alpha  occ. eigenvalues --   -0.49037  -0.48115  -0.48043  -0.47580  -0.46365
 Alpha  occ. eigenvalues --   -0.45991  -0.45827  -0.43324  -0.43132  -0.42695
 Alpha  occ. eigenvalues --   -0.42236  -0.41916  -0.41535  -0.41158  -0.40099
 Alpha  occ. eigenvalues --   -0.39934  -0.39246  -0.38870  -0.38140  -0.37876
 Alpha  occ. eigenvalues --   -0.37166  -0.36680  -0.36265  -0.36002  -0.35467
 Alpha  occ. eigenvalues --   -0.34746  -0.34453  -0.33127  -0.32439  -0.30834
 Alpha  occ. eigenvalues --   -0.29857  -0.29706  -0.28059  -0.26920  -0.26367
 Alpha  occ. eigenvalues --   -0.25687  -0.25413  -0.25337  -0.22531  -0.20145
 Alpha virt. eigenvalues --   -0.08430  -0.03065  -0.02256  -0.01161  -0.00890
 Alpha virt. eigenvalues --    0.04088   0.06423   0.08215   0.08427   0.08931
 Alpha virt. eigenvalues --    0.09812   0.10100   0.11447   0.12189   0.12596

 Mulliken charges:
               1
     1  C   -0.507143
     2  C    0.316604
     3  C   -0.257633
     4  C    0.149453
     5  C    0.192088
     6  N    0.357822
     7  O   -0.397108
     8  O   -0.395454
     9  C   -0.144095
    10  C   -0.148243
    11  C   -0.176729
    12  C    0.042858
    13  C    0.491583
    14  N   -0.656777
    15  C    0.053753
    16  C   -0.301290
    17  C   -0.126172
    18  N   -0.407779
    19  C   -0.236253
    20  C    0.168964
    21  C   -0.181690
    22  C   -0.128040
    23  C   -0.129811
    24  C   -0.128343
    25  C   -0.180014
    26  C   -0.129714
    27  C   -0.289152
    28  N   -0.582756
    29  H    0.157363
    30  H    0.165857
    31  H    0.166688
    32  H    0.169168
    33  H    0.184090
    34  H    0.144656
    35  H    0.143028
    36  H    0.339701
    37  H    0.167740
    38  H    0.166320
    39  H    0.140780
    40  H    0.138131
    41  H    0.138654
    42  H    0.146263
    43  H    0.146783
    44  H    0.128005
    45  H    0.133056
    46  H    0.132803
    47  H    0.132185
    48  H    0.125142
    49  H    0.133373
    50  H    0.138898
    51  H    0.142958
    52  H    0.149430
 Sum of Mulliken charges =  -0.00000

 Dipole moment (field-independent basis, Debye):
    X=             -6.9657    Y=              1.0337    Z=             -2.2350  Tot=              7.3881
 Quadrupole moment (field-independent basis, Debye-Ang):
   XX=           -196.4451   YY=           -155.4109   ZZ=           -166.3528
   XY=             -0.3397   XZ=            -15.2679   YZ=             -0.6472

 Normal termination of Gaussian 16 at Sat Nov  5 12:19:57 2022.
