 Gaussian 16, Revision B.01,
 Gaussian 16:  ES64L-G16RevB.01 20-Dec-2017

 -----------------------------
 #p b3lyp/6-31g(d) opt SCF=XQC
 -----------------------------

 ------------------------------
 Gaussian input prepared by ASE
 ------------------------------
 Symbolic Z-matrix:
 Charge =  0 Multiplicity = 1

 SCF Done:  E(RB3LYP) =  -1222.15566792     A.U. after   16 cycles
 SCF Done:  E(RB3LYP) =  -1222.16255722     A.U. after   13 cycles
 SCF Done:  E(RB3LYP) =  -1222.16181418     A.U. after   14 cycles
 SCF Done:  E(RB3LYP) =  -1222.16143806     A.U. after   14 cycles
 SCF Done:  E(RB3LYP) =  -1222.16035004     A.U. after   14 cycles
 SCF Done:  E(RB3LYP) =  -1222.16287790     A.U. after   10 cycles
 SCF Done:  E(RB3LYP) =  -1222.16366570     A.U. after   13 cycles
 SCF Done:  E(RB3LYP) =  -1222.16374774     A.U. after   12 cycles
 SCF Done:  E(RB3LYP) =  -1222.16380780     A.U. after   12 cycles
 SCF Done:  E(RB3LYP) =  -1222.16383464     A.U. after   12 cycles
 SCF Done:  E(RB3LYP) =  -1222.16482269     A.U. after   11 cycles
 SCF Done:  E(RB3LYP) =  -1222.16496465     A.U. after   12 cycles
 SCF Done:  E(RB3LYP) =  -1222.16499145     A.U. after   11 cycles
 SCF Done:  E(RB3LYP) =  -1222.16502606     A.U. after   12 cycles
 SCF Done:  E(RB3LYP) =  -1222.16503983     A.U. after   11 cycles
 SCF Done:  E(RB3LYP) =  -1222.16504103     A.U. after   11 cycles
 SCF Done:  E(RB3LYP) =  -1222.16504505     A.U. after   11 cycles
 SCF Done:  E(RB3LYP) =  -1222.16504529     A.U. after    8 cycles
 SCF Done:  E(RB3LYP) =  -1222.16504631     A.U. after   11 cycles
 SCF Done:  E(RB3LYP) =  -1222.16504631     A.U. after    7 cycles
 Optimization completed.
    -- Stationary point found.

                         Standard orientation:
 ---------------------------------------------------------------------
 Center     Atomic      Atomic             Coordinates (Angstroms)
 Number     Number       Type             X           Y           Z
 ---------------------------------------------------------------------
      1          6           0       -3.508824    3.557516    0.998116
      2          6           0       -3.133302    2.186171    0.500205
      3          6           0       -4.012841    1.126758    0.588122
      4          6           0       -3.633941   -0.138430    0.068696
      5          6           0       -4.447118   -1.316932    0.032422
      6          7           0       -5.786685   -1.367590    0.638179
      7          8           0       -6.555820   -2.249949    0.248451
      8          8           0       -6.073961   -0.552759    1.517543
      9          6           0       -4.028533   -2.487296   -0.576301
     10          6           0       -2.764740   -2.561889   -1.173223
     11          6           0       -1.935348   -1.455620   -1.149098
     12          6           0       -2.334321   -0.253307   -0.532256
     13          6           0       -1.473546    0.919308   -0.490845
     14          7           0       -0.206158    0.845336   -1.004665
     15          6           0        0.757568    1.945466   -0.888457
     16          6           0        1.436348    1.972597    0.491755
     17          6           0        2.199521    0.655134    0.766530
     18          7           0        2.498664   -0.054148   -0.489215
     19          6           0        3.303769   -1.272114   -0.302094
     20          6           0        4.725604   -1.092837    0.215254
     21          6           0        5.003770   -1.146353    1.588282
     22          6           0        6.301254   -0.957887    2.067369
     23          6           0        7.347290   -0.715990    1.175619
     24          6           0        7.088084   -0.670559   -0.195585
     25          6           0        5.789000   -0.859673   -0.668361
     26          6           0        2.991151    0.865912   -1.520692
     27          6           0        1.841406    1.797747   -1.977561
     28          7           0       -1.876448    2.083712   -0.005228
     29          1           0       -4.520534    3.576220    1.412100
     30          1           0       -2.804437    3.888044    1.770546
     31          1           0       -3.448323    4.286687    0.181276
     32          1           0       -4.981532    1.261017    1.042154
     33          1           0       -4.701453   -3.335556   -0.582814
     34          1           0       -2.446785   -3.481127   -1.654424
     35          1           0       -0.970767   -1.515713   -1.642960
     36          1           0        0.251315   -0.058528   -1.022739
     37          1           0        0.193858    2.867803   -1.036121
     38          1           0        0.691662    2.152714    1.272436
     39          1           0        2.131115    2.822147    0.512002
     40          1           0        3.115522    0.876968    1.339361
     41          1           0        1.592509   -0.018779    1.384626
     42          1           0        2.747996   -1.917110    0.390558
     43          1           0        3.332623   -1.788099   -1.269893
     44          1           0        4.196844   -1.350363    2.288919
     45          1           0        6.495501   -1.006675    3.135649
     46          1           0        8.358986   -0.572836    1.545552
     47          1           0        7.898941   -0.495635   -0.897966
     48          1           0        5.600072   -0.837850   -1.739450
     49          1           0        3.852736    1.457004   -1.163031
     50          1           0        3.353293    0.272501   -2.367156
     51          1           0        2.248283    2.787057   -2.217800
     52          1           0        1.371686    1.414272   -2.889665
 ---------------------------------------------------------------------

 The electronic state is 1-A.
 Alpha  occ. eigenvalues --  -19.17050 -19.16891 -14.56181 -14.34942 -14.33996
 Alpha  occ. eigenvalues --  -14.31443 -10.26780 -10.24764 -10.22600 -10.22582
 Alpha  occ. eigenvalues --  -10.22389 -10.22384 -10.21797 -10.21759 -10.21631
 Alpha  occ. eigenvalues --  -10.21510 -10.21454 -10.20811 -10.20111 -10.19766
 Alpha  occ. eigenvalues --  -10.19742 -10.19675 -10.19661 -10.19641 -10.19031
 Alpha  occ. eigenvalues --  -10.18705 -10.17685 -10.17559  -1.21277  -1.03833
 Alpha  occ. eigenvalues --   -0.97249  -0.93615  -0.90353  -0.88131  -0.85903
 Alpha  occ. eigenvalues --   -0.81227  -0.79481  -0.78801  -0.76743  -0.75845
 Alpha  occ. eigenvalues --   -0.75331  -0.75008  -0.71203  -0.69468  -0.67700
 Alpha  occ. eigenvalues --   -0.65059  -0.64008  -0.62401  -0.62038  -0.60977
 Alpha  occ. eigenvalues --   -0.59177  -0.58823  -0.55872  -0.54623  -0.52977
 Alpha  occ. eigenvalues --   -0.52198  -0.52049  -0.51269  -0.50138  -0.49744
 Alpha  occ. eigenvalues --   -0.49037  -0.48115  -0.48043  -0.47580  -0.46365
 Alpha  occ. eigenvalues --   -0.45991  -0.45827  -0.43324  -0.43132  -0.42695
 Alpha  occ. eigenvalues --   -0.42236  -0.41916  -0.41535  -0.41158  -0.40099
 Alpha  occ. eigenvalues --   -0.39934  -0.39246  -0.38870  -0.38140  -0.37876
 Alpha  occ. eigenvalues --   -0.37166  -0.36680  -0.36265  -0.36002  -0.35467
 Alpha  occ. eigenvalues --   -0.34746  -0.34453  -0.33127  -0.32439  -0.30834
 Alpha  occ. eigenvalues --   -0.29857  -0.29705  -0.28059  -0.26920  -0.26367
 Alpha  occ. eigenvalues --   -0.25687  -0.25413  -0.25337  -0.22531  -0.20145
 Alpha virt. eigenvalues --   -0.08430  -0.03065  -0.02256  -0.01161  -0.00890
 Alpha virt. eigenvalues --    0.04088   0.06423   0.08215   0.08427   0.08931
 Alpha virt. eigenvalues --    0.09812   0.10100   0.11447   0.12189   0.12596

 Mulliken charges:
               1
     1  C   -0.507148
     2  C    0.316587
     3  C   -0.257597
     4  C    0.149417
     5  C    0.192101
     6  N    0.357815
     7  O   -0.397109
     8  O   -0.395451
     9  C   -0.144088
    10  C   -0.148246
    11  C   -0.176727
    12  C    0.042870
    13  C    0.491582
    14  N   -0.656781
    15  C    0.053756
    16  C   -0.301316
    17  C   -0.126152
    18  N   -0.407776
    19  C   -0.236262
    20  C    0.168976
    21  C   -0.181697
    22  C   -0.128043
    23  C   -0.129801
    24  C   -0.128347
    25  C   -0.180023
    26  C   -0.129723
    27  C   -0.289131
    28  N   -0.582754
    29  H    0.157363
    30  H    0.165860
    31  H    0.166691
    32  H    0.169163
    33  H    0.184090
    34  H    0.144656
    35  H    0.143026
    36  H    0.339700
    37  H    0.167739
    38  H    0.166323
    39  H    0.140784
    40  H    0.138129
    41  H    0.138650
    42  H    0.146266
    43  H    0.146785
    44  H    0.128004
    45  H    0.133056
    46  H    0.132801
    47  H    0.132184
    48  H    0.125143
    49  H    0.133374
    50  H    0.138897
    51  H    0.142955
    52  H    0.149429
 Sum of Mulliken charges =  -0.00000

 Dipole moment (field-independent basis, Debye):
    X=              7.2072    Y=             -0.0212    Z=             -1.6249  Tot=              7.3881
 Quadrupole moment (field-independent basis, Debye-Ang):
   XX=           -190.9094   YY=           -158.9236   ZZ=           -159.0278
   XY=             -5.6817   XZ=              6.4650   YZ=              3.4130

 Normal termination of Gaussian 16 at Fri Nov  4 20:49:26 2022.
