 Gaussian 16, Revision B.01,
 Gaussian 16:  ES64L-G16RevB.01 20-Dec-2017

 -----------------------------
 #p b3lyp/6-31g(d) opt SCF=XQC
 -----------------------------

 ------------------------------
 Gaussian input prepared by ASE
 ------------------------------
 Symbolic Z-matrix:
 Charge =  0 Multiplicity = 1

 SCF Done:  E(RB3LYP) =  -1326.56853239     A.U. after   15 cycles
 SCF Done:  E(RB3LYP) =  -1326.57623176     A.U. after   12 cycles
 SCF Done:  E(RB3LYP) =  -1326.57752438     A.U. after   12 cycles
 SCF Done:  E(RB3LYP) =  -1326.57791467     A.U. after   12 cycles
 SCF Done:  E(RB3LYP) =  -1326.57814331     A.U. after   11 cycles
 SCF Done:  E(RB3LYP) =  -1326.57829427     A.U. after   11 cycles
 SCF Done:  E(RB3LYP) =  -1326.57844994     A.U. after   12 cycles
 SCF Done:  E(RB3LYP) =  -1326.57861153     A.U. after   13 cycles
 SCF Done:  E(RB3LYP) =  -1326.57872128     A.U. after   11 cycles
 SCF Done:  E(RB3LYP) =  -1326.57905403     A.U. after   15 cycles
 SCF Done:  E(RB3LYP) =  -1326.58055755     A.U. after   12 cycles
 SCF Done:  E(RB3LYP) =  -1326.58062555     A.U. after   12 cycles
 SCF Done:  E(RB3LYP) =  -1326.58066340     A.U. after   11 cycles
 SCF Done:  E(RB3LYP) =  -1326.58070972     A.U. after   10 cycles
 SCF Done:  E(RB3LYP) =  -1326.58072230     A.U. after   10 cycles
 SCF Done:  E(RB3LYP) =  -1326.58072567     A.U. after   10 cycles
 SCF Done:  E(RB3LYP) =  -1326.58072725     A.U. after    9 cycles
 SCF Done:  E(RB3LYP) =  -1326.58072789     A.U. after    9 cycles
 SCF Done:  E(RB3LYP) =  -1326.58072804     A.U. after    8 cycles
 SCF Done:  E(RB3LYP) =  -1326.58072808     A.U. after    7 cycles
 Optimization completed.
    -- Stationary point found.

                         Standard orientation:
 ---------------------------------------------------------------------
 Center     Atomic      Atomic             Coordinates (Angstroms)
 Number     Number       Type             X           Y           Z
 ---------------------------------------------------------------------
      1          6           0        6.753994    2.129839   -2.333282
      2          6           0        6.496954    2.422331   -0.851403
      3          7           0        5.777521    1.345688   -0.153261
      4          6           0        6.590662    0.221847    0.324800
      5          6           0        7.392341    0.525019    1.594797
      6          6           0        4.412399    1.313898   -0.331005
      7          8           0        3.843224    2.131984   -1.055543
      8          6           0        3.587434    0.277007    0.390714
      9          6           0        3.762894   -0.069456    1.736987
     10          6           0        2.884933   -0.972306    2.336220
     11          6           0        1.834306   -1.548105    1.623667
     12          6           0        1.646407   -1.190861    0.278323
     13          7           0        0.601720   -1.703953   -0.520893
     14          6           0       -0.357363   -2.642745   -0.208049
     15          8           0       -0.433448   -3.201804    0.881051
     16          6           0       -1.368495   -2.936185   -1.344838
     17          6           0       -1.454372   -4.456266   -1.539099
     18          7           0       -2.689045   -2.333249   -1.165330
     19          6           0       -3.507076   -2.696046   -0.002584
     20          6           0       -3.381948   -1.732764    1.194678
     21          6           0       -3.592609   -0.254124    0.802305
     22          6           0       -5.091168    0.076281    0.562199
     23          6           0       -5.377121    1.549861    0.356955
     24          6           0       -5.316382    2.444742    1.436034
     25          6           0       -5.564554    3.805347    1.258081
     26          6           0       -5.882044    4.301033   -0.008720
     27          6           0       -5.950605    3.423786   -1.091140
     28          6           0       -5.700892    2.062105   -0.906433
     29          6           0       -2.689238    0.081700   -0.404348
     30          6           0       -2.861804   -0.932433   -1.549829
     31          6           0        2.518002   -0.272906   -0.319967
     32          1           0        7.318515    2.952860   -2.786703
     33          1           0        5.804276    2.028695   -2.864417
     34          1           0        7.335710    1.210913   -2.471911
     35          1           0        5.900504    3.331452   -0.754376
     36          1           0        7.442538    2.583052   -0.323137
     37          1           0        5.935905   -0.634560    0.490758
     38          1           0        7.282761   -0.066074   -0.479124
     39          1           0        8.080917    1.364340    1.450929
     40          1           0        6.735120    0.772995    2.434454
     41          1           0        7.990038   -0.350012    1.874707
     42          1           0        4.557423    0.383674    2.320015
     43          1           0        3.014581   -1.232935    3.383224
     44          1           0        1.160651   -2.255290    2.086158
     45          1           0        0.561294   -1.322843   -1.456833
     46          1           0       -0.979958   -2.505172   -2.277782
     47          1           0       -2.199995   -4.686106   -2.305492
     48          1           0       -1.724332   -4.959255   -0.607321
     49          1           0       -0.483177   -4.854431   -1.854893
     50          1           0       -4.555607   -2.729962   -0.337623
     51          1           0       -3.247768   -3.708231    0.315180
     52          1           0       -2.386199   -1.850914    1.634128
     53          1           0       -4.107282   -2.027183    1.966081
     54          1           0       -3.268279    0.368964    1.647245
     55          1           0       -5.475148   -0.488713   -0.295372
     56          1           0       -5.652681   -0.280755    1.436590
     57          1           0       -5.077756    2.067842    2.428622
     58          1           0       -5.515013    4.479125    2.109777
     59          1           0       -6.077958    5.360787   -0.148684
     60          1           0       -6.201741    3.796888   -2.080861
     61          1           0       -5.764331    1.384426   -1.755381
     62          1           0       -2.901950    1.092446   -0.774015
     63          1           0       -1.642738    0.078739   -0.072994
     64          1           0       -3.873722   -0.827719   -1.971734
     65          1           0       -2.168116   -0.704879   -2.368552
     66          1           0        2.365999    0.043407   -1.348729
 ---------------------------------------------------------------------

 The electronic state is 1-A.
 Alpha  occ. eigenvalues --  -19.12215 -19.10652 -14.38289 -14.36076 -14.32230
 Alpha  occ. eigenvalues --  -10.29059 -10.28288 -10.24182 -10.22961 -10.22859
 Alpha  occ. eigenvalues --  -10.21632 -10.20701 -10.20440 -10.20035 -10.19688
 Alpha  occ. eigenvalues --  -10.19568 -10.19466 -10.18958 -10.18912 -10.18902
 Alpha  occ. eigenvalues --  -10.18409 -10.18399 -10.18350 -10.18249 -10.18187
 Alpha  occ. eigenvalues --  -10.18126 -10.18052 -10.17578 -10.17571 -10.17174
 Alpha  occ. eigenvalues --  -10.16729  -1.04037  -1.02686  -0.94580  -0.92810
 Alpha  occ. eigenvalues --   -0.91980  -0.85453  -0.84875  -0.80749  -0.77485
 Alpha  occ. eigenvalues --   -0.77009  -0.76216  -0.75176  -0.74549  -0.73948
 Alpha  occ. eigenvalues --   -0.73643  -0.73494  -0.67856  -0.66117  -0.65270
 Alpha  occ. eigenvalues --   -0.64527  -0.63241  -0.62054  -0.61668  -0.59995
 Alpha  occ. eigenvalues --   -0.59507  -0.58089  -0.57038  -0.54750  -0.53421
 Alpha  occ. eigenvalues --   -0.52526  -0.51093  -0.50330  -0.49928  -0.48848
 Alpha  occ. eigenvalues --   -0.48571  -0.47390  -0.46170  -0.45458  -0.45218
 Alpha  occ. eigenvalues --   -0.44581  -0.44104  -0.43894  -0.43644  -0.43480
 Alpha  occ. eigenvalues --   -0.42929  -0.42686  -0.42375  -0.42167  -0.41403
 Alpha  occ. eigenvalues --   -0.41249  -0.40917  -0.40218  -0.39532  -0.39082
 Alpha  occ. eigenvalues --   -0.38459  -0.38173  -0.38033  -0.37712  -0.37285
 Alpha  occ. eigenvalues --   -0.36926  -0.36609  -0.36020  -0.35974  -0.35563
 Alpha  occ. eigenvalues --   -0.35498  -0.34992  -0.34684  -0.34309  -0.33970
 Alpha  occ. eigenvalues --   -0.33499  -0.33097  -0.32108  -0.31181  -0.30627
 Alpha  occ. eigenvalues --   -0.29862  -0.26349  -0.26099  -0.24313  -0.24287
 Alpha  occ. eigenvalues --   -0.23436  -0.23356  -0.22589  -0.19321
 Alpha virt. eigenvalues --   -0.02843  -0.01530   0.00398   0.00699   0.02997
 Alpha virt. eigenvalues --    0.05256   0.06030   0.07808   0.08459   0.09512
 Alpha virt. eigenvalues --    0.09978   0.10374   0.11660   0.11737   0.12938

 Mulliken charges:
               1
     1  C   -0.451653
     2  C   -0.139187
     3  N   -0.414847
     4  C   -0.154342
     5  C   -0.450289
     6  C    0.519573
     7  O   -0.525081
     8  C    0.063144
     9  C   -0.166052
    10  C   -0.150608
    11  C   -0.156094
    12  C    0.355925
    13  N   -0.730225
    14  C    0.646920
    15  O   -0.524328
    16  C   -0.055722
    17  C   -0.451467
    18  N   -0.371549
    19  C   -0.149277
    20  C   -0.283178
    21  C   -0.080820
    22  C   -0.361542
    23  C    0.177731
    24  C   -0.179824
    25  C   -0.127968
    26  C   -0.131749
    27  C   -0.127287
    28  C   -0.189493
    29  C   -0.276522
    30  C   -0.147111
    31  C   -0.232352
    32  H    0.145689
    33  H    0.180052
    34  H    0.140229
    35  H    0.179083
    36  H    0.138158
    37  H    0.172028
    38  H    0.150208
    39  H    0.155526
    40  H    0.160262
    41  H    0.151275
    42  H    0.138948
    43  H    0.137062
    44  H    0.188832
    45  H    0.335260
    46  H    0.120707
    47  H    0.154969
    48  H    0.175874
    49  H    0.144745
    50  H    0.133937
    51  H    0.155714
    52  H    0.163054
    53  H    0.122070
    54  H    0.126436
    55  H    0.139498
    56  H    0.141775
    57  H    0.123238
    58  H    0.127497
    59  H    0.126726
    60  H    0.126744
    61  H    0.121281
    62  H    0.144041
    63  H    0.135697
    64  H    0.138161
    65  H    0.124158
    66  H    0.146343
 Sum of Mulliken charges =  -0.00000

 Dipole moment (field-independent basis, Debye):
    X=              2.7837    Y=             -0.5888    Z=             -0.5746  Tot=              2.9027
 Quadrupole moment (field-independent basis, Debye-Ang):
   XX=           -160.6640   YY=           -193.1107   ZZ=           -177.9000
   XY=             -3.0905   XZ=              5.4078   YZ=              6.5809

 Normal termination of Gaussian 16 at Fri Nov  4 20:46:48 2022.
