 Gaussian 16, Revision B.01,
 Gaussian 16:  ES64L-G16RevB.01 20-Dec-2017

 -------------------------------------------------------------------
 #p b3lyp/6-31g(d) 6D 10F nosymm GFInput td=(50-50,nstate=2) SCF=XQC
 -------------------------------------------------------------------

 ------------------------------
 Gaussian input prepared by ASE
 ------------------------------
 Symbolic Z-matrix:
 Charge =  0 Multiplicity = 1

                          Input orientation:
 ---------------------------------------------------------------------
 Center     Atomic      Atomic             Coordinates (Angstroms)
 Number     Number       Type             X           Y           Z
 ---------------------------------------------------------------------
      1          6           0        6.308259   -0.752594   -3.720885
      2          6           0        6.081809    0.667172   -3.191197
      3          7           0        5.511617    0.707645   -1.835694
      4          6           0        6.459913    0.564842   -0.725243
      5          6           0        7.275349    1.828428   -0.432148
      6          6           0        4.151763    0.511477   -1.743616
      7          8           0        3.468707    0.291566   -2.745242
      8          6           0        3.473420    0.590356   -0.398174
      9          6           0        3.739906    1.577448    0.559901
     10          6           0        2.989486    1.617842    1.734751
     11          6           0        1.978851    0.691045    1.985267
     12          6           0        1.698883   -0.290018    1.019859
     13          7           0        0.683861   -1.259501    1.172210
     14          6           0       -0.154942   -1.485624    2.241940
     15          8           0       -0.125900   -0.832936    3.280031
     16          6           0       -1.174056   -2.633671    2.031763
     17          6           0       -1.103502   -3.574463    3.242421
     18          7           0       -2.543461   -2.198996    1.757184
     19          6           0       -3.269571   -1.397872    2.749020
     20          6           0       -3.200268    0.124872    2.517824
     21          6           0       -3.584828    0.533506    1.079130
     22          6           0       -5.118796    0.464888    0.845178
     23          6           0       -5.569976    1.030641   -0.485871
     24          6           0       -5.562080    2.415596   -0.711149
     25          6           0       -5.962446    2.948240   -1.936098
     26          6           0       -6.382857    2.102558   -2.965354
     27          6           0       -6.400558    0.723524   -2.755953
     28          6           0       -5.998270    0.196181   -1.526838
     29          6           0       -2.772830   -0.317445    0.078427
     30          6           0       -2.881666   -1.822345    0.384696
     31          6           0        2.441392   -0.322055   -0.166701
     32          1           0        6.761869   -0.714117   -4.718078
     33          1           0        5.354114   -1.280152   -3.795653
     34          1           0        6.979459   -1.327076   -3.071657
     35          1           0        5.395333    1.200553   -3.851442
     36          1           0        7.025312    1.222426   -3.168337
     37          1           0        5.908548    0.260042    0.165138
     38          1           0        7.145662   -0.260101   -0.964848
     39          1           0        7.863048    2.144247   -1.300574
     40          1           0        6.630005    2.664555   -0.144259
     41          1           0        7.974752    1.637035    0.389724
     42          1           0        4.504087    2.325350    0.377701
     43          1           0        3.189021    2.389851    2.473087
     44          1           0        1.404722    0.717039    2.900429
     45          1           0        0.564498   -1.872921    0.377017
     46          1           0       -0.872565   -3.210709    1.146750
     47          1           0       -1.850632   -4.365961    3.135344
     48          1           0       -1.279497   -3.032634    4.174909
     49          1           0       -0.108743   -4.029447    3.312595
     50          1           0       -4.321123   -1.724350    2.727320
     51          1           0       -2.889984   -1.632977    3.745701
     52          1           0       -2.180508    0.463030    2.728375
     53          1           0       -3.857615    0.625481    3.242491
     54          1           0       -3.295355    1.584005    0.937670
     55          1           0       -5.474296   -0.568170    0.937354
     56          1           0       -5.602468    1.025641    1.656935
     57          1           0       -5.243983    3.083854    0.086643
     58          1           0       -5.951119    4.024871   -2.086278
     59          1           0       -6.697350    2.516204   -3.919839
     60          1           0       -6.730556    0.055560   -3.547627
     61          1           0       -6.022871   -0.880337   -1.370354
     62          1           0       -3.108091   -0.126855   -0.948600
     63          1           0       -1.719473   -0.012905    0.130012
     64          1           0       -3.915324   -2.152532    0.196351
     65          1           0       -2.250479   -2.398284   -0.303192
     66          1           0        2.214394   -1.050523   -0.940857
 ---------------------------------------------------------------------

 SCF Done:  E(RB3LYP) =  -1326.58073228     A.U. after   15 cycles

 Excitation energies and oscillator strengths:

 Excited state symmetry could not be determined.
 Excited State   1:      Triplet-?Sym    3.4176 eV  362.78 nm  f=0.0000  <S**2>=2.000
     107 ->115         0.17719
     107 ->116         0.13389
     110 ->115         0.21308
     110 ->116         0.13040
     112 ->115        -0.20091
     113 ->115         0.41201
     113 ->116        -0.33637
 This state for optimization and/or second-order correction.
 Total Energy, E(TD-HF/TD-DFT) =  -1326.45513789
 Copying the excited state density for this state as the 1-particle RhoCI density.

 Excited state symmetry could not be determined.
 Excited State   2:      Triplet-?Sym    3.6689 eV  337.94 nm  f=0.0000  <S**2>=2.000
     114 ->115         0.49860
     114 ->116        -0.41535
     114 ->119        -0.18866

 Excited state symmetry could not be determined.
 Excited State   3:      Singlet-?Sym    3.9035 eV  317.62 nm  f=0.0276  <S**2>=0.000
     114 ->115         0.63979
     114 ->116        -0.26890

 Excited state symmetry could not be determined.
 Excited State   4:      Singlet-?Sym    4.2078 eV  294.66 nm  f=0.0128  <S**2>=0.000
     114 ->115         0.28708
     114 ->116         0.63654

 Alpha  occ. eigenvalues --  -19.12215 -19.10652 -14.38289 -14.36076 -14.32230
 Alpha  occ. eigenvalues --  -10.29059 -10.28288 -10.24182 -10.22961 -10.22859
 Alpha  occ. eigenvalues --  -10.21632 -10.20701 -10.20440 -10.20035 -10.19688
 Alpha  occ. eigenvalues --  -10.19568 -10.19466 -10.18957 -10.18913 -10.18902
 Alpha  occ. eigenvalues --  -10.18409 -10.18399 -10.18350 -10.18249 -10.18188
 Alpha  occ. eigenvalues --  -10.18126 -10.18052 -10.17578 -10.17571 -10.17174
 Alpha  occ. eigenvalues --  -10.16730  -1.04037  -1.02686  -0.94580  -0.92810
 Alpha  occ. eigenvalues --   -0.91980  -0.85453  -0.84875  -0.80749  -0.77485
 Alpha  occ. eigenvalues --   -0.77009  -0.76216  -0.75176  -0.74549  -0.73948
 Alpha  occ. eigenvalues --   -0.73643  -0.73494  -0.67856  -0.66117  -0.65270
 Alpha  occ. eigenvalues --   -0.64527  -0.63241  -0.62054  -0.61668  -0.59995
 Alpha  occ. eigenvalues --   -0.59507  -0.58089  -0.57038  -0.54750  -0.53421
 Alpha  occ. eigenvalues --   -0.52526  -0.51093  -0.50330  -0.49928  -0.48848
 Alpha  occ. eigenvalues --   -0.48571  -0.47390  -0.46170  -0.45458  -0.45218
 Alpha  occ. eigenvalues --   -0.44581  -0.44104  -0.43894  -0.43644  -0.43480
 Alpha  occ. eigenvalues --   -0.42929  -0.42686  -0.42375  -0.42167  -0.41403
 Alpha  occ. eigenvalues --   -0.41249  -0.40917  -0.40218  -0.39532  -0.39082
 Alpha  occ. eigenvalues --   -0.38459  -0.38173  -0.38033  -0.37712  -0.37285
 Alpha  occ. eigenvalues --   -0.36926  -0.36609  -0.36020  -0.35974  -0.35563
 Alpha  occ. eigenvalues --   -0.35498  -0.34992  -0.34684  -0.34309  -0.33970
 Alpha  occ. eigenvalues --   -0.33499  -0.33097  -0.32108  -0.31181  -0.30627
 Alpha  occ. eigenvalues --   -0.29862  -0.26349  -0.26099  -0.24313  -0.24287
 Alpha  occ. eigenvalues --   -0.23436  -0.23356  -0.22589  -0.19321
 Alpha virt. eigenvalues --   -0.02843  -0.01530   0.00398   0.00699   0.02997
 Alpha virt. eigenvalues --    0.05256   0.06030   0.07808   0.08459   0.09512
 Alpha virt. eigenvalues --    0.09978   0.10374   0.11660   0.11737   0.12938

 Mulliken charges:
               1
     1  C   -0.451655
     2  C   -0.139186
     3  N   -0.414861
     4  C   -0.154332
     5  C   -0.450290
     6  C    0.519588
     7  O   -0.525081
     8  C    0.063150
     9  C   -0.166068
    10  C   -0.150596
    11  C   -0.156089
    12  C    0.355920
    13  N   -0.730228
    14  C    0.646934
    15  O   -0.524327
    16  C   -0.055756
    17  C   -0.451451
    18  N   -0.371533
    19  C   -0.149268
    20  C   -0.283195
    21  C   -0.080836
    22  C   -0.361522
    23  C    0.177731
    24  C   -0.179816
    25  C   -0.127974
    26  C   -0.131746
    27  C   -0.127283
    28  C   -0.189507
    29  C   -0.276519
    30  C   -0.147118
    31  C   -0.232363
    32  H    0.145690
    33  H    0.180050
    34  H    0.140230
    35  H    0.179083
    36  H    0.138158
    37  H    0.172028
    38  H    0.150207
    39  H    0.155525
    40  H    0.160262
    41  H    0.151275
    42  H    0.138946
    43  H    0.137061
    44  H    0.188829
    45  H    0.335259
    46  H    0.120713
    47  H    0.154967
    48  H    0.175871
    49  H    0.144743
    50  H    0.133938
    51  H    0.155715
    52  H    0.163058
    53  H    0.122072
    54  H    0.126439
    55  H    0.139494
    56  H    0.141775
    57  H    0.123237
    58  H    0.127497
    59  H    0.126725
    60  H    0.126744
    61  H    0.121282
    62  H    0.144041
    63  H    0.135693
    64  H    0.138165
    65  H    0.124159
    66  H    0.146345
 Sum of Mulliken charges =  -0.00000

 Dipole moment (field-independent basis, Debye):
    X=              2.8051    Y=             -0.7389    Z=             -0.1036  Tot=              2.9027
 Quadrupole moment (field-independent basis, Debye-Ang):
   XX=           -160.4555   YY=           -175.9994   ZZ=           -195.7199
   XY=              3.9495   XZ=              1.4918   YZ=              3.1257

 Normal termination of Gaussian 16 at Sat Nov  5 12:09:34 2022.
