 Gaussian 16, Revision B.01,
 Gaussian 16:  ES64L-G16RevB.01 20-Dec-2017

 -----------------------------
 #p b3lyp/6-31g(d) opt SCF=XQC
 -----------------------------

 ------------------------------
 Gaussian input prepared by ASE
 ------------------------------
 Symbolic Z-matrix:
 Charge =  0 Multiplicity = 1

 SCF Done:  E(RB3LYP) =  -1182.96995909     A.U. after   15 cycles
 SCF Done:  E(RB3LYP) =  -1182.97578838     A.U. after   12 cycles
 SCF Done:  E(RB3LYP) =  -1182.97637857     A.U. after   12 cycles
 SCF Done:  E(RB3LYP) =  -1182.97675443     A.U. after   12 cycles
 SCF Done:  E(RB3LYP) =  -1182.97680231     A.U. after   12 cycles
 SCF Done:  E(RB3LYP) =  -1182.97689248     A.U. after   10 cycles
 SCF Done:  E(RB3LYP) =  -1182.97740370     A.U. after   12 cycles
 SCF Done:  E(RB3LYP) =  -1182.97750225     A.U. after   11 cycles
 SCF Done:  E(RB3LYP) =  -1182.97763260     A.U. after   12 cycles
 SCF Done:  E(RB3LYP) =  -1182.97771120     A.U. after   11 cycles
 SCF Done:  E(RB3LYP) =  -1182.97777886     A.U. after   11 cycles
 SCF Done:  E(RB3LYP) =  -1182.97779219     A.U. after   11 cycles
 SCF Done:  E(RB3LYP) =  -1182.97780359     A.U. after   10 cycles
 SCF Done:  E(RB3LYP) =  -1182.97781070     A.U. after   10 cycles
 SCF Done:  E(RB3LYP) =  -1182.97781182     A.U. after    8 cycles
 SCF Done:  E(RB3LYP) =  -1182.97781292     A.U. after    8 cycles
 SCF Done:  E(RB3LYP) =  -1182.97781334     A.U. after    8 cycles
 SCF Done:  E(RB3LYP) =  -1182.97781339     A.U. after    7 cycles
 SCF Done:  E(RB3LYP) =  -1182.97781341     A.U. after    6 cycles
 Optimization completed.
    -- Stationary point found.

                         Standard orientation:
 ---------------------------------------------------------------------
 Center     Atomic      Atomic             Coordinates (Angstroms)
 Number     Number       Type             X           Y           Z
 ---------------------------------------------------------------------
      1          6           0        5.843366   -2.131117   -0.407718
      2          6           0        5.881613   -0.633540   -0.207058
      3          6           0        7.013342    0.094893   -0.591603
      4          6           0        7.101968    1.473937   -0.394976
      5          6           0        6.041225    2.161161    0.192353
      6          6           0        4.895939    1.458089    0.563639
      7          6           0        4.802866    0.073662    0.367844
      8          6           0        3.594942   -0.668878    0.879042
      9          8           0        3.710287   -1.627150    1.641343
     10          7           0        2.350909   -0.212348    0.508081
     11          6           0        2.075129    0.675619   -0.626604
     12          6           0        0.873075    0.136999   -1.411443
     13          7           0       -0.356743    0.038349   -0.599716
     14          6           0       -1.366039    1.059090   -0.859050
     15          6           0       -2.765981    0.576785   -0.520635
     16          7           0       -3.671647    1.420255   -0.143527
     17          6           0       -4.949950    0.913116    0.072846
     18          6           0       -5.966550    1.800441    0.476081
     19          6           0       -7.252273    1.333640    0.704199
     20          6           0       -7.562441   -0.028153    0.539342
     21          6           0       -6.574659   -0.917381    0.144479
     22          6           0       -5.269978   -0.457718   -0.091596
     23          6           0       -4.220550   -1.398994   -0.504427
     24          8           0       -4.343859   -2.604332   -0.670368
     25          7           0       -2.988039   -0.763601   -0.703198
     26          6           0       -0.077300   -0.101902    0.841207
     27          6           0        1.192892   -0.905695    1.090044
     28          1           0        5.831999   -2.651763    0.554166
     29          1           0        4.941205   -2.449171   -0.943121
     30          1           0        6.713159   -2.465712   -0.981347
     31          1           0        7.845851   -0.434782   -1.048668
     32          1           0        7.999815    2.006445   -0.697418
     33          1           0        6.102199    3.232678    0.361282
     34          1           0        4.067398    1.984763    1.030055
     35          1           0        1.871607    1.701569   -0.287052
     36          1           0        2.952360    0.717662   -1.275302
     37          1           0        1.130826   -0.856361   -1.802251
     38          1           0        0.685889    0.782407   -2.275441
     39          1           0       -1.205842    2.003432   -0.313205
     40          1           0       -1.353286    1.295679   -1.930500
     41          1           0       -5.711174    2.848184    0.599460
     42          1           0       -8.028608    2.028318    1.014128
     43          1           0       -8.573533   -0.380606    0.721800
     44          1           0       -6.778979   -1.974819    0.009146
     45          1           0       -2.186442   -1.337663   -0.953857
     46          1           0       -0.921595   -0.606763    1.324629
     47          1           0        0.020872    0.887289    1.324269
     48          1           0        1.097556   -1.917155    0.671431
     49          1           0        1.362115   -1.024673    2.162723
 ---------------------------------------------------------------------

 The electronic state is 1-A.
 Alpha  occ. eigenvalues --  -19.11838 -19.11276 -14.38803 -14.36917 -14.35573
 Alpha  occ. eigenvalues --  -14.32945 -10.29657 -10.28685 -10.28060 -10.24005
 Alpha  occ. eigenvalues --  -10.23947 -10.23664 -10.23271 -10.23139 -10.22908
 Alpha  occ. eigenvalues --  -10.20708 -10.20273 -10.20151 -10.20141 -10.20037
 Alpha  occ. eigenvalues --  -10.19775 -10.19753 -10.19607 -10.19593 -10.19327
 Alpha  occ. eigenvalues --  -10.19323 -10.17942  -1.04325  -1.03389  -0.98868
 Alpha  occ. eigenvalues --   -0.96099  -0.92221  -0.90253  -0.86297  -0.85236
 Alpha  occ. eigenvalues --   -0.78873  -0.78494  -0.77541  -0.76430  -0.75871
 Alpha  occ. eigenvalues --   -0.74076  -0.69793  -0.68706  -0.67552  -0.66220
 Alpha  occ. eigenvalues --   -0.63819  -0.62464  -0.60295  -0.60025  -0.58346
 Alpha  occ. eigenvalues --   -0.56462  -0.55733  -0.54327  -0.53141  -0.52774
 Alpha  occ. eigenvalues --   -0.50258  -0.49537  -0.48896  -0.47563  -0.47251
 Alpha  occ. eigenvalues --   -0.46995  -0.45701  -0.44996  -0.44676  -0.44071
 Alpha  occ. eigenvalues --   -0.43719  -0.43176  -0.42984  -0.42148  -0.41862
 Alpha  occ. eigenvalues --   -0.41593  -0.41191  -0.40889  -0.40154  -0.39563
 Alpha  occ. eigenvalues --   -0.38588  -0.37976  -0.37569  -0.37073  -0.36784
 Alpha  occ. eigenvalues --   -0.36440  -0.35919  -0.35482  -0.35192  -0.34962
 Alpha  occ. eigenvalues --   -0.34271  -0.29220  -0.27614  -0.26247  -0.25940
 Alpha  occ. eigenvalues --   -0.25800  -0.25352  -0.24786  -0.23942  -0.23804
 Alpha  occ. eigenvalues --   -0.22726
 Alpha virt. eigenvalues --   -0.03784  -0.03426  -0.02799  -0.00516   0.02824
 Alpha virt. eigenvalues --    0.04077   0.05947   0.07319   0.08576   0.09619
 Alpha virt. eigenvalues --    0.09841   0.10407   0.10885   0.11829   0.12611

 Mulliken charges:
               1
     1  C   -0.521991
     2  C    0.151056
     3  C   -0.193397
     4  C   -0.116420
     5  C   -0.137151
     6  C   -0.160925
     7  C    0.006036
     8  C    0.512258
     9  O   -0.518104
    10  N   -0.436864
    11  C   -0.147759
    12  C   -0.146669
    13  N   -0.425824
    14  C   -0.197723
    15  C    0.506129
    16  N   -0.561933
    17  C    0.237166
    18  C   -0.162098
    19  C   -0.126888
    20  C   -0.135522
    21  C   -0.177405
    22  C    0.053390
    23  C    0.573448
    24  O   -0.510248
    25  N   -0.666100
    26  C   -0.155464
    27  C   -0.133067
    28  H    0.198334
    29  H    0.154245
    30  H    0.145853
    31  H    0.128654
    32  H    0.133597
    33  H    0.132410
    34  H    0.136088
    35  H    0.151043
    36  H    0.176443
    37  H    0.160803
    38  H    0.150865
    39  H    0.162338
    40  H    0.174636
    41  H    0.142979
    42  H    0.137583
    43  H    0.137452
    44  H    0.165279
    45  H    0.351844
    46  H    0.164012
    47  H    0.138953
    48  H    0.164931
    49  H    0.183728
 Sum of Mulliken charges =  -0.00000

 Dipole moment (field-independent basis, Debye):
    X=              1.3966    Y=              4.0751    Z=             -2.1622  Tot=              4.8199
 Quadrupole moment (field-independent basis, Debye-Ang):
   XX=           -149.4388   YY=           -163.1839   ZZ=           -158.3673
   XY=             -1.5176   XZ=            -16.6532   YZ=              2.5127

 Normal termination of Gaussian 16 at Fri Nov  4 20:22:51 2022.
