 Gaussian 16, Revision B.01,
 Gaussian 16:  ES64L-G16RevB.01 20-Dec-2017

 -------------------------------------------------------------------
 #p b3lyp/6-31g(d) 6D 10F nosymm GFInput td=(50-50,nstate=2) SCF=XQC
 -------------------------------------------------------------------

 ------------------------------
 Gaussian input prepared by ASE
 ------------------------------
 Symbolic Z-matrix:
 Charge =  0 Multiplicity = 1

                          Input orientation:
 ---------------------------------------------------------------------
 Center     Atomic      Atomic             Coordinates (Angstroms)
 Number     Number       Type             X           Y           Z
 ---------------------------------------------------------------------
      1          6           0       -5.544148   -2.159007    0.330671
      2          6           0       -5.561504   -0.648264    0.288003
      3          6           0       -6.666035    0.052767    0.785862
      4          6           0       -6.735784    1.445964    0.736681
      5          6           0       -5.682905    2.174918    0.186697
      6          6           0       -4.563912    1.497520   -0.295830
      7          6           0       -4.489848    0.098992   -0.248192
      8          6           0       -3.313698   -0.603982   -0.876100
      9          8           0       -3.472267   -1.475648   -1.729181
     10          7           0       -2.049686   -0.207166   -0.503998
     11          6           0       -1.719572    0.553344    0.706250
     12          6           0       -0.501935   -0.082015    1.387937
     13          7           0        0.697856   -0.113647    0.527364
     14          6           0        1.733952    0.859368    0.855373
     15          6           0        3.112589    0.394299    0.419424
     16          7           0        4.020456    1.258989    0.100095
     17          6           0        5.281190    0.758293   -0.212823
     18          6           0        6.299840    1.667674   -0.557493
     19          6           0        7.568337    1.208207   -0.878162
     20          6           0        7.858714   -0.167805   -0.866605
     21          6           0        6.868544   -1.078634   -0.531473
     22          6           0        5.581239   -0.626813   -0.202966
     23          6           0        4.529113   -1.590360    0.146804
     24          8           0        4.635689   -2.808131    0.182285
     25          7           0        3.315910   -0.960966    0.453917
     26          6           0        0.367568   -0.098593   -0.909542
     27          6           0       -0.924879   -0.853095   -1.195373
     28          1           0       -5.574742   -2.576537   -0.679851
     29          1           0       -4.630507   -2.544549    0.797925
     30          1           0       -6.400176   -2.538699    0.896881
     31          1           0       -7.492324   -0.509305    1.214644
     32          1           0       -7.612979    1.957262    1.124325
     33          1           0       -5.729759    3.258999    0.132153
     34          1           0       -3.741959    2.057644   -0.734079
     35          1           0       -1.508705    1.605995    0.468026
     36          1           0       -2.573563    0.540468    1.386429
     37          1           0       -0.764668   -1.106804    1.682407
     38          1           0       -0.273927    0.466851    2.307088
     39          1           0        1.572925    1.857791    0.416496
     40          1           0        1.761609    0.983009    1.945369
     41          1           0        6.059820    2.726245   -0.562354
     42          1           0        8.346484    1.919842   -1.141583
     43          1           0        8.856426   -0.514253   -1.120307
     44          1           0        7.057769   -2.147335   -0.513931
     45          1           0        2.512750   -1.546097    0.671839
     46          1           0        1.185673   -0.562717   -1.472311
     47          1           0        0.271458    0.936957   -1.283554
     48          1           0       -0.834182   -1.904021   -0.887632
     49          1           0       -1.132251   -0.856952   -2.267947
 ---------------------------------------------------------------------

 SCF Done:  E(RB3LYP) =  -1182.97781312     A.U. after   15 cycles

 Excitation energies and oscillator strengths:

 Excited state symmetry could not be determined.
 Excited State   1:      Triplet-?Sym    3.2683 eV  379.36 nm  f=0.0000  <S**2>=2.000
      91 -> 97        -0.27756
      96 -> 98         0.61335
 This state for optimization and/or second-order correction.
 Total Energy, E(TD-HF/TD-DFT) =  -1182.85770637
 Copying the excited state density for this state as the 1-particle RhoCI density.

 Excited state symmetry could not be determined.
 Excited State   2:      Triplet-?Sym    3.6228 eV  342.24 nm  f=0.0000  <S**2>=2.000
      96 -> 97         0.68236
      96 -> 98        -0.10552

 Excited state symmetry could not be determined.
 Excited State   3:      Singlet-?Sym    4.5364 eV  273.31 nm  f=0.0615  <S**2>=0.000
      91 -> 98         0.23574
      96 -> 97         0.64692

 Excited state symmetry could not be determined.
 Excited State   4:      Singlet-?Sym    4.7338 eV  261.91 nm  f=0.0012  <S**2>=0.000
      90 -> 97        -0.65420
      90 -> 98         0.17794
      91 -> 97        -0.11317

 Alpha  occ. eigenvalues --  -19.11838 -19.11276 -14.38803 -14.36917 -14.35573
 Alpha  occ. eigenvalues --  -14.32945 -10.29657 -10.28685 -10.28060 -10.24005
 Alpha  occ. eigenvalues --  -10.23947 -10.23664 -10.23271 -10.23138 -10.22908
 Alpha  occ. eigenvalues --  -10.20708 -10.20273 -10.20152 -10.20141 -10.20037
 Alpha  occ. eigenvalues --  -10.19775 -10.19753 -10.19607 -10.19593 -10.19327
 Alpha  occ. eigenvalues --  -10.19323 -10.17942  -1.04325  -1.03389  -0.98868
 Alpha  occ. eigenvalues --   -0.96099  -0.92220  -0.90253  -0.86297  -0.85236
 Alpha  occ. eigenvalues --   -0.78873  -0.78494  -0.77541  -0.76430  -0.75871
 Alpha  occ. eigenvalues --   -0.74076  -0.69793  -0.68706  -0.67552  -0.66220
 Alpha  occ. eigenvalues --   -0.63819  -0.62464  -0.60295  -0.60025  -0.58346
 Alpha  occ. eigenvalues --   -0.56462  -0.55733  -0.54327  -0.53141  -0.52774
 Alpha  occ. eigenvalues --   -0.50258  -0.49537  -0.48896  -0.47563  -0.47251
 Alpha  occ. eigenvalues --   -0.46995  -0.45701  -0.44996  -0.44676  -0.44071
 Alpha  occ. eigenvalues --   -0.43719  -0.43176  -0.42984  -0.42148  -0.41862
 Alpha  occ. eigenvalues --   -0.41593  -0.41191  -0.40889  -0.40154  -0.39563
 Alpha  occ. eigenvalues --   -0.38588  -0.37976  -0.37569  -0.37072  -0.36784
 Alpha  occ. eigenvalues --   -0.36440  -0.35919  -0.35482  -0.35192  -0.34962
 Alpha  occ. eigenvalues --   -0.34271  -0.29220  -0.27614  -0.26247  -0.25940
 Alpha  occ. eigenvalues --   -0.25800  -0.25352  -0.24786  -0.23942  -0.23803
 Alpha  occ. eigenvalues --   -0.22726
 Alpha virt. eigenvalues --   -0.03784  -0.03426  -0.02799  -0.00516   0.02824
 Alpha virt. eigenvalues --    0.04077   0.05947   0.07319   0.08576   0.09619
 Alpha virt. eigenvalues --    0.09841   0.10407   0.10885   0.11829   0.12611

 Mulliken charges:
               1
     1  C   -0.521992
     2  C    0.151045
     3  C   -0.193391
     4  C   -0.116428
     5  C   -0.137150
     6  C   -0.160920
     7  C    0.006032
     8  C    0.512278
     9  O   -0.518113
    10  N   -0.436874
    11  C   -0.147732
    12  C   -0.146715
    13  N   -0.425799
    14  C   -0.197724
    15  C    0.506135
    16  N   -0.561938
    17  C    0.237164
    18  C   -0.162100
    19  C   -0.126887
    20  C   -0.135520
    21  C   -0.177398
    22  C    0.053398
    23  C    0.573424
    24  O   -0.510248
    25  N   -0.666091
    26  C   -0.155485
    27  C   -0.133055
    28  H    0.198336
    29  H    0.154243
    30  H    0.145854
    31  H    0.128654
    32  H    0.133597
    33  H    0.132411
    34  H    0.136088
    35  H    0.151041
    36  H    0.176443
    37  H    0.160812
    38  H    0.150868
    39  H    0.162337
    40  H    0.174635
    41  H    0.142979
    42  H    0.137584
    43  H    0.137451
    44  H    0.165278
    45  H    0.351848
    46  H    0.164014
    47  H    0.138956
    48  H    0.164929
    49  H    0.183727
 Sum of Mulliken charges =  -0.00000

 Dipole moment (field-independent basis, Debye):
    X=             -1.2477    Y=              3.8474    Z=              2.6215  Tot=              4.8199
 Quadrupole moment (field-independent basis, Debye-Ang):
   XX=           -151.3196   YY=           -163.3488   ZZ=           -158.0816
   XY=              4.2906   XZ=            -15.8289   YZ=             -3.2717

 Normal termination of Gaussian 16 at Sat Nov  5 12:31:38 2022.
