 Gaussian 16, Revision B.01,
 Gaussian 16:  ES64L-G16RevB.01 20-Dec-2017

 -------------------------------------------------------------------
 #p b3lyp/6-31g(d) 6D 10F nosymm GFInput td=(50-50,nstate=2) SCF=XQC
 -------------------------------------------------------------------

 ------------------------------
 Gaussian input prepared by ASE
 ------------------------------
 Symbolic Z-matrix:
 Charge =  0 Multiplicity = 1

                          Input orientation:
 ---------------------------------------------------------------------
 Center     Atomic      Atomic             Coordinates (Angstroms)
 Number     Number       Type             X           Y           Z
 ---------------------------------------------------------------------
      1          6           0        5.371899    0.913208    0.909156
      2          6           0        4.777610    1.573884    1.949245
      3         16           0        3.057511    1.344260    1.962853
      4          6           0        3.134507    0.333615    0.535219
      5          6           0        1.927601   -0.245405   -0.034688
      6          6           0        1.823228   -1.082251   -1.180808
      7          6           0        0.470833   -1.349796   -1.290077
      8          7           0       -0.151537   -0.680331   -0.272749
      9          7           0        0.736762   -0.016144    0.522784
     10          6           0       -1.556956   -0.797435    0.102602
     11          6           0       -2.168402    0.529718    0.516968
     12          6           0       -3.132040    0.568088    1.526843
     13          6           0       -3.744336    1.783484    1.835676
     14          7           0       -3.460461    2.936814    1.220701
     15          6           0       -2.527805    2.891673    0.259473
     16          6           0       -1.861290    1.730648   -0.128792
     17          6           0       -2.322677   -1.405370   -1.095658
     18          6           0       -1.559907   -2.574761   -1.721494
     19          7           0       -0.271048   -2.080334   -2.211885
     20          6           0        4.434104    0.205784    0.102155
     21          1           0        6.440038    0.927780    0.720071
     22          1           0        5.246826    2.183932    2.709678
     23          1           0        2.611495   -1.429724   -1.832134
     24          1           0       -1.625329   -1.486573    0.955964
     25          1           0       -3.401667   -0.332076    2.074104
     26          1           0       -4.497392    1.831276    2.620950
     27          1           0       -2.298124    3.838528   -0.226522
     28          1           0       -1.102859    1.767412   -0.903895
     29          1           0       -3.308782   -1.732102   -0.751385
     30          1           0       -2.474816   -0.631916   -1.856583
     31          1           0       -1.442931   -3.385788   -0.981856
     32          1           0       -2.119580   -2.975824   -2.571998
     33          1           0        0.284808   -2.776509   -2.694336
     34          1           0        4.710720   -0.377766   -0.769581
 ---------------------------------------------------------------------

 SCF Done:  E(RB3LYP) =  -1197.18831153     A.U. after   15 cycles

 Excitation energies and oscillator strengths:

 Excited state symmetry could not be determined.
 Excited State   1:      Triplet-?Sym    2.7798 eV  446.02 nm  f=0.0000  <S**2>=2.000
      73 -> 76         0.18994
      74 -> 75         0.22260
      74 -> 76         0.60560
      74 -> 77        -0.10938
 This state for optimization and/or second-order correction.
 Total Energy, E(TD-HF/TD-DFT) =  -1197.08615725
 Copying the excited state density for this state as the 1-particle RhoCI density.

 Excited state symmetry could not be determined.
 Excited State   2:      Triplet-?Sym    3.7388 eV  331.61 nm  f=0.0000  <S**2>=2.000
      73 -> 75         0.21063
      73 -> 76         0.55248
      74 -> 76        -0.18595
      74 -> 78        -0.23740

 Excited state symmetry could not be determined.
 Excited State   3:      Singlet-?Sym    4.0746 eV  304.29 nm  f=0.0064  <S**2>=0.000
      74 -> 75         0.67631
      74 -> 76        -0.18378

 Excited state symmetry could not be determined.
 Excited State   4:      Singlet-?Sym    4.3515 eV  284.92 nm  f=0.1409  <S**2>=0.000
      73 -> 76        -0.21006
      74 -> 75         0.16716
      74 -> 76         0.62669
      74 -> 77         0.14513

 Alpha  occ. eigenvalues --  -88.89360 -14.40307 -14.36275 -14.33440 -14.32520
 Alpha  occ. eigenvalues --  -10.25816 -10.25303 -10.24158 -10.22018 -10.21853
 Alpha  occ. eigenvalues --  -10.21626 -10.21339 -10.21311 -10.21067 -10.20250
 Alpha  occ. eigenvalues --  -10.19841 -10.19479 -10.18324 -10.18269 -10.17364
 Alpha  occ. eigenvalues --   -7.95429  -5.91839  -5.91466  -5.91130  -1.04603
 Alpha  occ. eigenvalues --   -0.94659  -0.93605  -0.87471  -0.85878  -0.80597
 Alpha  occ. eigenvalues --   -0.78899  -0.75890  -0.75646  -0.72303  -0.72052
 Alpha  occ. eigenvalues --   -0.69188  -0.63837  -0.63068  -0.61826  -0.60694
 Alpha  occ. eigenvalues --   -0.56339  -0.54150  -0.53910  -0.52834  -0.52268
 Alpha  occ. eigenvalues --   -0.50391  -0.49089  -0.47231  -0.46925  -0.45777
 Alpha  occ. eigenvalues --   -0.45253  -0.44560  -0.43145  -0.42387  -0.42146
 Alpha  occ. eigenvalues --   -0.39684  -0.39452  -0.38747  -0.38094  -0.37699
 Alpha  occ. eigenvalues --   -0.37017  -0.36358  -0.36243  -0.35564  -0.33116
 Alpha  occ. eigenvalues --   -0.31300  -0.28786  -0.27576  -0.26561  -0.25795
 Alpha  occ. eigenvalues --   -0.25079  -0.23918  -0.21105  -0.19490
 Alpha virt. eigenvalues --   -0.02324  -0.02119  -0.00707   0.03878   0.04893
 Alpha virt. eigenvalues --    0.06313   0.06656   0.10101   0.10337   0.10543
 Alpha virt. eigenvalues --    0.11706   0.11940   0.12697   0.13300   0.13863

 Mulliken charges:
               1
     1  C   -0.106622
     2  C   -0.343929
     3  S    0.276472
     4  C   -0.201545
     5  C    0.353695
     6  C   -0.348490
     7  C    0.600185
     8  N   -0.351271
     9  N   -0.392605
    10  C   -0.017589
    11  C    0.193107
    12  C   -0.192458
    13  C    0.039548
    14  N   -0.407590
    15  C    0.034929
    16  C   -0.167521
    17  C   -0.290623
    18  C   -0.148977
    19  N   -0.650126
    20  C   -0.123609
    21  H    0.135411
    22  H    0.165686
    23  H    0.127740
    24  H    0.159359
    25  H    0.129653
    26  H    0.140574
    27  H    0.143652
    28  H    0.152927
    29  H    0.159197
    30  H    0.172029
    31  H    0.142780
    32  H    0.158675
    33  H    0.326855
    34  H    0.130480
 Sum of Mulliken charges =  -0.00000

 Dipole moment (field-independent basis, Debye):
    X=             -0.6038    Y=             -4.8381    Z=             -2.7943  Tot=              5.6196
 Quadrupole moment (field-independent basis, Debye-Ang):
   XX=           -115.1425   YY=           -119.4192   ZZ=           -118.1961
   XY=             12.0385   XZ=             -0.6479   YZ=              3.7197

 Normal termination of Gaussian 16 at Sat Nov  5 12:02:40 2022.
