 Gaussian 16, Revision B.01,
 Gaussian 16:  ES64L-G16RevB.01 20-Dec-2017

 -----------------------------
 #p b3lyp/6-31g(d) opt SCF=XQC
 -----------------------------

 ------------------------------
 Gaussian input prepared by ASE
 ------------------------------
 Symbolic Z-matrix:
 Charge =  0 Multiplicity = 1

 SCF Done:  E(RB3LYP) =  -1197.18295549     A.U. after   15 cycles
 SCF Done:  E(RB3LYP) =  -1197.18780704     A.U. after   13 cycles
 SCF Done:  E(RB3LYP) =  -1197.18814267     A.U. after   11 cycles
 SCF Done:  E(RB3LYP) =  -1197.18824764     A.U. after   11 cycles
 SCF Done:  E(RB3LYP) =  -1197.18827900     A.U. after   10 cycles
 SCF Done:  E(RB3LYP) =  -1197.18830188     A.U. after   11 cycles
 SCF Done:  E(RB3LYP) =  -1197.18830891     A.U. after   10 cycles
 SCF Done:  E(RB3LYP) =  -1197.18831034     A.U. after    8 cycles
 SCF Done:  E(RB3LYP) =  -1197.18831094     A.U. after    8 cycles
 SCF Done:  E(RB3LYP) =  -1197.18831115     A.U. after    7 cycles
 Optimization completed.
    -- Stationary point found.

                         Standard orientation:
 ---------------------------------------------------------------------
 Center     Atomic      Atomic             Coordinates (Angstroms)
 Number     Number       Type             X           Y           Z
 ---------------------------------------------------------------------
      1          6           0        5.146077   -0.463390    0.232943
      2          6           0        4.690352   -1.669773   -0.223579
      3         16           0        2.975964   -1.653746   -0.492409
      4          6           0        2.864417    0.016661    0.020201
      5          6           0        1.584960    0.709129    0.032792
      6          6           0        1.329530    2.055106    0.417364
      7          6           0       -0.034240    2.209129    0.247363
      8          7           0       -0.520098    1.007010   -0.187764
      9          7           0        0.470268    0.081475   -0.347926
     10          6           0       -1.878620    0.743844   -0.651408
     11          6           0       -2.399793   -0.612231   -0.208306
     12          6           0       -3.244854   -1.342074   -1.046829
     13          6           0       -3.781907   -2.545976   -0.588936
     14          7           0       -3.532184   -3.059575    0.620528
     15          6           0       -2.712759   -2.356663    1.414443
     16          6           0       -2.128912   -1.142702    1.056123
     17          6           0       -2.789790    1.879928   -0.131003
     18          6           0       -2.136710    3.253134   -0.300582
     19          7           0       -0.895072    3.276960    0.476508
     20          6           0        4.103951    0.498746    0.372319
     21          1           0        6.186873   -0.262767    0.463984
     22          1           0        5.258856   -2.569574   -0.417853
     23          1           0        2.030334    2.796233    0.772234
     24          1           0       -1.873795    0.765816   -1.750183
     25          1           0       -3.480110   -0.986341   -2.047128
     26          1           0       -4.442184   -3.128036   -1.230244
     27          1           0       -2.509016   -2.790056    2.392266
     28          1           0       -1.459586   -0.633161    1.741486
     29          1           0       -3.741587    1.839660   -0.669651
     30          1           0       -3.000931    1.715165    0.931381
     31          1           0       -1.963996    3.457274   -1.371567
     32          1           0       -2.798581    4.033960    0.086300
     33          1           0       -0.417272    4.170294    0.469122
     34          1           0        4.264967    1.513179    0.721562
 ---------------------------------------------------------------------

 The electronic state is 1-A.
 Alpha  occ. eigenvalues --  -88.89360 -14.40307 -14.36275 -14.33440 -14.32520
 Alpha  occ. eigenvalues --  -10.25816 -10.25303 -10.24158 -10.22018 -10.21853
 Alpha  occ. eigenvalues --  -10.21626 -10.21339 -10.21311 -10.21067 -10.20250
 Alpha  occ. eigenvalues --  -10.19841 -10.19479 -10.18324 -10.18269 -10.17364
 Alpha  occ. eigenvalues --   -7.95428  -5.91839  -5.91466  -5.91130  -1.04603
 Alpha  occ. eigenvalues --   -0.94659  -0.93605  -0.87471  -0.85878  -0.80597
 Alpha  occ. eigenvalues --   -0.78899  -0.75890  -0.75646  -0.72303  -0.72052
 Alpha  occ. eigenvalues --   -0.69188  -0.63837  -0.63068  -0.61826  -0.60694
 Alpha  occ. eigenvalues --   -0.56339  -0.54150  -0.53910  -0.52834  -0.52268
 Alpha  occ. eigenvalues --   -0.50391  -0.49089  -0.47231  -0.46925  -0.45777
 Alpha  occ. eigenvalues --   -0.45253  -0.44560  -0.43145  -0.42387  -0.42146
 Alpha  occ. eigenvalues --   -0.39684  -0.39452  -0.38747  -0.38094  -0.37699
 Alpha  occ. eigenvalues --   -0.37017  -0.36358  -0.36243  -0.35564  -0.33116
 Alpha  occ. eigenvalues --   -0.31300  -0.28786  -0.27576  -0.26561  -0.25795
 Alpha  occ. eigenvalues --   -0.25079  -0.23918  -0.21105  -0.19490
 Alpha virt. eigenvalues --   -0.02324  -0.02119  -0.00707   0.03878   0.04893
 Alpha virt. eigenvalues --    0.06313   0.06656   0.10101   0.10337   0.10543
 Alpha virt. eigenvalues --    0.11706   0.11940   0.12697   0.13300   0.13863

 Mulliken charges:
               1
     1  C   -0.106622
     2  C   -0.343933
     3  S    0.276477
     4  C   -0.201551
     5  C    0.353694
     6  C   -0.348499
     7  C    0.600193
     8  N   -0.351276
     9  N   -0.392603
    10  C   -0.017584
    11  C    0.193087
    12  C   -0.192455
    13  C    0.039549
    14  N   -0.407585
    15  C    0.034920
    16  C   -0.167503
    17  C   -0.290631
    18  C   -0.148967
    19  N   -0.650125
    20  C   -0.123605
    21  H    0.135411
    22  H    0.165686
    23  H    0.127742
    24  H    0.159359
    25  H    0.129655
    26  H    0.140573
    27  H    0.143651
    28  H    0.152929
    29  H    0.159197
    30  H    0.172028
    31  H    0.142779
    32  H    0.158675
    33  H    0.326855
    34  H    0.130479
 Sum of Mulliken charges =  -0.00000

 Dipole moment (field-independent basis, Debye):
    X=             -1.0556    Y=              5.4617    Z=             -0.7972  Tot=              5.6196
 Quadrupole moment (field-independent basis, Debye-Ang):
   XX=           -113.8940   YY=           -113.5711   ZZ=           -121.1857
   XY=            -11.2007   XZ=              8.4154   YZ=              1.5228

 Normal termination of Gaussian 16 at Fri Nov  4 20:03:01 2022.
