 Gaussian 16, Revision B.01,
 Gaussian 16:  ES64L-G16RevB.01 20-Dec-2017

 -----------------------------
 #p b3lyp/6-31g(d) opt SCF=XQC
 -----------------------------

 ------------------------------
 Gaussian input prepared by ASE
 ------------------------------
 Symbolic Z-matrix:
 Charge =  0 Multiplicity = 1

 SCF Done:  E(RB3LYP) =  -1692.68583621     A.U. after   15 cycles
 SCF Done:  E(RB3LYP) =  -1692.69391908     A.U. after   12 cycles
 SCF Done:  E(RB3LYP) =  -1692.69433725     A.U. after   12 cycles
 SCF Done:  E(RB3LYP) =  -1692.69439433     A.U. after   10 cycles
 SCF Done:  E(RB3LYP) =  -1692.69440233     A.U. after   10 cycles
 SCF Done:  E(RB3LYP) =  -1692.69440478     A.U. after    8 cycles
 SCF Done:  E(RB3LYP) =  -1692.69440581     A.U. after    8 cycles
 SCF Done:  E(RB3LYP) =  -1692.69440658     A.U. after    8 cycles
 SCF Done:  E(RB3LYP) =  -1692.69440917     A.U. after   10 cycles
 SCF Done:  E(RB3LYP) =  -1692.69441523     A.U. after   10 cycles
 SCF Done:  E(RB3LYP) =  -1692.69451822     A.U. after    9 cycles
 SCF Done:  E(RB3LYP) =  -1692.69451842     A.U. after    7 cycles
 SCF Done:  E(RB3LYP) =  -1692.69451846     A.U. after    7 cycles
 SCF Done:  E(RB3LYP) =  -1692.69451847     A.U. after    6 cycles
 SCF Done:  E(RB3LYP) =  -1692.69451849     A.U. after    7 cycles
 SCF Done:  E(RB3LYP) =  -1692.69451850     A.U. after    6 cycles
 SCF Done:  E(RB3LYP) =  -1692.69451852     A.U. after    6 cycles
 SCF Done:  E(RB3LYP) =  -1692.69451853     A.U. after    6 cycles
 SCF Done:  E(RB3LYP) =  -1692.69451854     A.U. after    6 cycles
 SCF Done:  E(RB3LYP) =  -1692.69451854     A.U. after    6 cycles
 Optimization completed.
    -- Stationary point found.

                         Standard orientation:
 ---------------------------------------------------------------------
 Center     Atomic      Atomic             Coordinates (Angstroms)
 Number     Number       Type             X           Y           Z
 ---------------------------------------------------------------------
      1          8           0        6.458302    1.637441    0.948173
      2          6           0        7.140712    0.640046    0.752206
      3          7           0        6.663947   -0.482882    0.100793
      4          6           0        5.387679   -0.704539   -0.447676
      5          6           0        5.176777   -1.898146   -1.156199
      6          7           0        4.016209   -2.229533   -1.715830
      7          6           0        2.993134   -1.378391   -1.595770
      8          6           0        3.083269   -0.155491   -0.909334
      9          6           0        1.939181    0.788072   -0.823110
     10          6           0        2.166698    2.188423   -0.936329
     11          6           0        1.157869    3.128054   -0.849403
     12          6           0       -0.140805    2.641417   -0.640267
     13          7           0       -1.339844    3.286776   -0.510369
     14          7           0       -2.372549    2.440940   -0.317249
     15          6           0       -1.858347    1.213114   -0.318714
     16          6           0       -2.772394    0.095501   -0.134867
     17          7           0       -2.480849   -1.185897   -0.121724
     18          6           0       -3.691713   -1.822104    0.070207
     19          7           0       -3.875102   -3.144988    0.127403
     20          6           0       -5.142324   -3.531104    0.291179
     21          6           0       -6.242209   -2.662651    0.402028
     22          6           0       -6.072182   -1.272184    0.357098
     23          6           0       -7.203821   -0.325140    0.476174
     24          6           0       -7.098489    0.864342    1.214194
     25          6           0       -8.198588    1.717374    1.293476
     26          7           0       -9.375005    1.479398    0.700873
     27          6           0       -9.473659    0.341306    0.001209
     28          6           0       -8.437427   -0.579650   -0.140980
     29          6           0       -4.742679   -0.866917    0.183666
     30          7           0       -4.120579    0.351821    0.049529
     31          6           0       -0.434343    1.260346   -0.521455
     32          6           0        0.633060    0.350384   -0.612814
     33          9           0        0.385334   -0.958057   -0.478874
     34          6           0        4.311215    0.179851   -0.322488
     35          6           0        8.582087    0.548580    1.233520
     36          6           0        9.646012   -0.017584    0.234084
     37          6           0        9.763798   -1.314776    1.082037
     38          6           0        8.912291   -0.645397    2.196116
     39          1           0        7.315631   -1.245796   -0.028270
     40          1           0        5.992631   -2.614844   -1.270627
     41          1           0        2.064473   -1.678015   -2.071013
     42          1           0        3.183633    2.523279   -1.114612
     43          1           0        1.363741    4.189043   -0.946248
     44          1           0       -1.521334    4.278334   -0.542642
     45          1           0       -5.310007   -4.605341    0.343456
     46          1           0       -7.233190   -3.078787    0.555111
     47          1           0       -6.186845    1.106146    1.753127
     48          1           0       -8.131321    2.639240    1.869269
     49          1           0      -10.433895    0.157835   -0.478258
     50          1           0       -8.579504   -1.472521   -0.742108
     51          1           0       -4.534356    1.272786    0.019013
     52          1           0        4.439699    1.097148    0.234572
     53          1           0        8.810232    1.536280    1.637058
     54          1           0       10.561677    0.580262    0.240429
     55          1           0        9.326612   -0.129390   -0.807273
     56          1           0       10.776113   -1.619906    1.361828
     57          1           0        9.276194   -2.184491    0.625055
     58          1           0        9.506974   -0.320219    3.054249
     59          1           0        8.056024   -1.213915    2.571664
 ---------------------------------------------------------------------

 The electronic state is 1-A.
 Alpha  occ. eigenvalues --  -24.71037 -19.12665 -14.42976 -14.39403 -14.38595
 Alpha  occ. eigenvalues --  -14.38438 -14.33583 -14.32949 -14.32349 -14.31742
 Alpha  occ. eigenvalues --  -10.29989 -10.28864 -10.26905 -10.25211 -10.24582
 Alpha  occ. eigenvalues --  -10.24526 -10.23693 -10.23635 -10.23082 -10.22990
 Alpha  occ. eigenvalues --  -10.22895 -10.22355 -10.22293 -10.21681 -10.21621
 Alpha  occ. eigenvalues --  -10.21411 -10.21308 -10.21227 -10.21109 -10.21022
 Alpha  occ. eigenvalues --  -10.20886 -10.20708 -10.20687 -10.20373 -10.20271
 Alpha  occ. eigenvalues --  -10.20238 -10.19951 -10.19855  -1.22444  -1.07136
 Alpha  occ. eigenvalues --   -1.04540  -1.02707  -0.95694  -0.94670  -0.93379
 Alpha  occ. eigenvalues --   -0.93082  -0.88560  -0.87882  -0.85827  -0.85740
 Alpha  occ. eigenvalues --   -0.84009  -0.81705  -0.78316  -0.78152  -0.76910
 Alpha  occ. eigenvalues --   -0.76661  -0.75512  -0.74312  -0.70105  -0.68268
 Alpha  occ. eigenvalues --   -0.67861  -0.66797  -0.65538  -0.65270  -0.64391
 Alpha  occ. eigenvalues --   -0.63696  -0.62854  -0.62116  -0.60394  -0.58943
 Alpha  occ. eigenvalues --   -0.58683  -0.57221  -0.57064  -0.55006  -0.54628
 Alpha  occ. eigenvalues --   -0.53209  -0.51494  -0.51118  -0.50671  -0.50454
 Alpha  occ. eigenvalues --   -0.49644  -0.49612  -0.49235  -0.48575  -0.48398
 Alpha  occ. eigenvalues --   -0.48018  -0.47075  -0.46615  -0.45917  -0.45538
 Alpha  occ. eigenvalues --   -0.45060  -0.44825  -0.44476  -0.43537  -0.43412
 Alpha  occ. eigenvalues --   -0.42696  -0.41770  -0.41076  -0.40623  -0.40557
 Alpha  occ. eigenvalues --   -0.40463  -0.40126  -0.39893  -0.39266  -0.38800
 Alpha  occ. eigenvalues --   -0.38199  -0.37563  -0.36660  -0.36500  -0.36194
 Alpha  occ. eigenvalues --   -0.35499  -0.34936  -0.33299  -0.32947  -0.32891
 Alpha  occ. eigenvalues --   -0.32436  -0.31425  -0.31109  -0.29325  -0.28868
 Alpha  occ. eigenvalues --   -0.28274  -0.27078  -0.26215  -0.26180  -0.25676
 Alpha  occ. eigenvalues --   -0.24960  -0.24827  -0.24389  -0.24150  -0.22806
 Alpha  occ. eigenvalues --   -0.21293
 Alpha virt. eigenvalues --   -0.06654  -0.04563  -0.03159  -0.02312  -0.02029
 Alpha virt. eigenvalues --   -0.01199   0.01104   0.01341   0.02889   0.03740
 Alpha virt. eigenvalues --    0.04829   0.06479   0.06923   0.08446   0.09521

 Mulliken charges:
               1
     1  O   -0.506107
     2  C    0.615695
     3  N   -0.740779
     4  C    0.345022
     5  C   -0.021095
     6  N   -0.414352
     7  C    0.006158
     8  C    0.065747
     9  C    0.007562
    10  C   -0.193247
    11  C   -0.151384
    12  C    0.398561
    13  N   -0.556462
    14  N   -0.374493
    15  C    0.270804
    16  C    0.553747
    17  N   -0.559860
    18  C    0.397281
    19  N   -0.486720
    20  C    0.026623
    21  C   -0.220929
    22  C    0.117454
    23  C    0.116199
    24  C   -0.200131
    25  C    0.038163
    26  N   -0.405261
    27  C    0.037997
    28  C   -0.174912
    29  C    0.318719
    30  N   -0.796289
    31  C   -0.042028
    32  C    0.255034
    33  F   -0.250193
    34  C   -0.176901
    35  C   -0.203693
    36  C   -0.285784
    37  C   -0.294234
    38  C   -0.277491
    39  H    0.340565
    40  H    0.129588
    41  H    0.158036
    42  H    0.157801
    43  H    0.142659
    44  H    0.346716
    45  H    0.139751
    46  H    0.137712
    47  H    0.145619
    48  H    0.145297
    49  H    0.146672
    50  H    0.146893
    51  H    0.349898
    52  H    0.196663
    53  H    0.164547
    54  H    0.158306
    55  H    0.149735
    56  H    0.152188
    57  H    0.139252
    58  H    0.157922
    59  H    0.155763
 Sum of Mulliken charges =  -0.00000

 Dipole moment (field-independent basis, Debye):
    X=              3.6959    Y=              4.1820    Z=              0.2668  Tot=              5.5875
 Quadrupole moment (field-independent basis, Debye-Ang):
   XX=           -166.2864   YY=           -206.7440   ZZ=           -216.7553
   XY=             -2.8829   XZ=              8.7301   YZ=             -7.1899

 Normal termination of Gaussian 16 at Fri Nov  4 22:04:45 2022.
