 Gaussian 16, Revision B.01,
 Gaussian 16:  ES64L-G16RevB.01 20-Dec-2017

 -------------------------------------------------------------------
 #p b3lyp/6-31g(d) 6D 10F nosymm GFInput td=(50-50,nstate=2) SCF=XQC
 -------------------------------------------------------------------

 ------------------------------
 Gaussian input prepared by ASE
 ------------------------------
 Symbolic Z-matrix:
 Charge =  0 Multiplicity = 1

                          Input orientation:
 ---------------------------------------------------------------------
 Center     Atomic      Atomic             Coordinates (Angstroms)
 Number     Number       Type             X           Y           Z
 ---------------------------------------------------------------------
      1          8           0        5.951716    0.997743   -1.518325
      2          6           0        6.603492    0.780221   -0.505035
      3          7           0        6.100047    0.086045    0.579988
      4          6           0        4.826105   -0.488417    0.740839
      5          6           0        4.586900   -1.237926    1.903680
      6          7           0        3.425092   -1.825315    2.177716
      7          6           0        2.429223   -1.693473    1.296577
      8          6           0        2.549080   -0.966918    0.099682
      9          6           0        1.435917   -0.867753   -0.878948
     10          6           0        1.711897   -0.932595   -2.273650
     11          6           0        0.733757   -0.830816   -3.243744
     12          6           0       -0.583658   -0.656977   -2.795077
     13          7           0       -1.762404   -0.524550   -3.476310
     14          7           0       -2.825778   -0.374220   -2.660314
     15          6           0       -2.352934   -0.407282   -1.416413
     16          6           0       -3.306663   -0.273142   -0.325201
     17          7           0       -3.058349   -0.296677    0.965124
     18          6           0       -4.292736   -0.143503    1.565637
     19          7           0       -4.521125   -0.131500    2.882686
     20          6           0       -5.803020    0.000701    3.230578
     21          6           0       -6.874918    0.122736    2.329252
     22          6           0       -6.657820    0.124957    0.944626
     23          6           0       -7.758956    0.257253   -0.036025
     24          6           0       -7.625864    1.034517   -1.197396
     25          6           0       -8.697980    1.124507   -2.084319
     26          7           0       -9.871974    0.506920   -1.905172
     27          6           0       -9.997296   -0.230265   -0.793700
     28          6           0       -8.990257   -0.386260    0.156926
     29          6           0       -5.312892   -0.015343    0.579411
     30          7           0       -4.648332   -0.100965   -0.621151
     31          6           0       -0.925060   -0.586922   -1.421696
     32          6           0        0.112676   -0.691299   -0.479393
     33          9           0       -0.180763   -0.603108    0.823467
     34          6           0        3.777913   -0.351189   -0.175161
     35          6           0        8.033049    1.280023   -0.349618
     36          6           0        9.093455    0.279105    0.220515
     37          6           0        9.154127    1.086730    1.547039
     38          6           0        8.307592    2.208729    0.884619
     39          1           0        6.727873   -0.057565    1.360114
     40          1           0        5.380091   -1.362954    2.643670
     41          1           0        1.498862   -2.192014    1.549409
     42          1           0        2.742199   -1.084710   -2.579282
     43          1           0        0.976504   -0.890496   -4.299667
     44          1           0       -1.910115   -0.527761   -4.473977
     45          1           0       -6.007327    0.015993    4.299625
     46          1           0       -7.881592    0.247453    2.716162
     47          1           0       -6.715466    1.594599   -1.391038
     48          1           0       -8.609250    1.730495   -2.984767
     49          1           0      -10.955262   -0.729781   -0.658102
     50          1           0       -9.152368   -1.017767    1.025074
     51          1           0       -5.030557   -0.108184   -1.556122
     52          1           0        3.927969    0.236854   -1.069558
     53          1           0        8.287527    1.718399   -1.315802
     54          1           0       10.028363    0.318404   -0.345439
     55          1           0        8.787347   -0.769996    0.288545
     56          1           0       10.151034    1.371823    1.894990
     57          1           0        8.645175    0.594815    2.384881
     58          1           0        8.898880    3.085707    0.607004
     59          1           0        7.426856    2.552918    1.435327
 ---------------------------------------------------------------------

 SCF Done:  E(RB3LYP) =  -1692.69451740     A.U. after   15 cycles

 Excitation energies and oscillator strengths:

 Excited state symmetry could not be determined.
 Excited State   1:      Triplet-?Sym    2.6330 eV  470.89 nm  f=0.0000  <S**2>=2.000
     125 ->133        -0.10753
     130 ->132         0.18098
     131 ->132         0.57157
     131 ->133         0.25602
 This state for optimization and/or second-order correction.
 Total Energy, E(TD-HF/TD-DFT) =  -1692.59775789
 Copying the excited state density for this state as the 1-particle RhoCI density.

 Excited state symmetry could not be determined.
 Excited State   2:      Triplet-?Sym    3.1663 eV  391.57 nm  f=0.0000  <S**2>=2.000
     126 ->132         0.15298
     128 ->132         0.40121
     129 ->133         0.13378
     130 ->132         0.22388
     130 ->134         0.11724
     130 ->135         0.11351
     131 ->133        -0.27656
     131 ->134        -0.13911
     131 ->137         0.17526

 Excited state symmetry could not be determined.
 Excited State   3:      Singlet-?Sym    3.5823 eV  346.10 nm  f=0.5165  <S**2>=0.000
     131 ->132         0.69583

 Excited state symmetry could not be determined.
 Excited State   4:      Singlet-?Sym    4.0016 eV  309.84 nm  f=0.0236  <S**2>=0.000
     127 ->132         0.31722
     129 ->132         0.13878
     130 ->132         0.55032
     131 ->133        -0.20725
     131 ->134         0.10629

 Alpha  occ. eigenvalues --  -24.71037 -19.12665 -14.42976 -14.39403 -14.38595
 Alpha  occ. eigenvalues --  -14.38438 -14.33583 -14.32948 -14.32349 -14.31742
 Alpha  occ. eigenvalues --  -10.29989 -10.28864 -10.26905 -10.25211 -10.24582
 Alpha  occ. eigenvalues --  -10.24526 -10.23693 -10.23635 -10.23082 -10.22990
 Alpha  occ. eigenvalues --  -10.22894 -10.22354 -10.22293 -10.21681 -10.21620
 Alpha  occ. eigenvalues --  -10.21411 -10.21308 -10.21227 -10.21109 -10.21022
 Alpha  occ. eigenvalues --  -10.20886 -10.20708 -10.20687 -10.20373 -10.20271
 Alpha  occ. eigenvalues --  -10.20238 -10.19951 -10.19855  -1.22444  -1.07136
 Alpha  occ. eigenvalues --   -1.04540  -1.02707  -0.95694  -0.94670  -0.93379
 Alpha  occ. eigenvalues --   -0.93082  -0.88560  -0.87882  -0.85827  -0.85740
 Alpha  occ. eigenvalues --   -0.84009  -0.81705  -0.78316  -0.78152  -0.76910
 Alpha  occ. eigenvalues --   -0.76661  -0.75512  -0.74312  -0.70105  -0.68268
 Alpha  occ. eigenvalues --   -0.67861  -0.66797  -0.65538  -0.65270  -0.64391
 Alpha  occ. eigenvalues --   -0.63696  -0.62854  -0.62116  -0.60394  -0.58943
 Alpha  occ. eigenvalues --   -0.58683  -0.57221  -0.57064  -0.55006  -0.54628
 Alpha  occ. eigenvalues --   -0.53209  -0.51494  -0.51118  -0.50671  -0.50454
 Alpha  occ. eigenvalues --   -0.49644  -0.49612  -0.49235  -0.48575  -0.48398
 Alpha  occ. eigenvalues --   -0.48018  -0.47075  -0.46615  -0.45917  -0.45538
 Alpha  occ. eigenvalues --   -0.45060  -0.44825  -0.44476  -0.43537  -0.43412
 Alpha  occ. eigenvalues --   -0.42696  -0.41770  -0.41076  -0.40623  -0.40557
 Alpha  occ. eigenvalues --   -0.40463  -0.40126  -0.39892  -0.39266  -0.38800
 Alpha  occ. eigenvalues --   -0.38199  -0.37563  -0.36660  -0.36500  -0.36194
 Alpha  occ. eigenvalues --   -0.35499  -0.34936  -0.33299  -0.32947  -0.32891
 Alpha  occ. eigenvalues --   -0.32436  -0.31425  -0.31109  -0.29325  -0.28868
 Alpha  occ. eigenvalues --   -0.28274  -0.27078  -0.26215  -0.26180  -0.25676
 Alpha  occ. eigenvalues --   -0.24960  -0.24827  -0.24389  -0.24150  -0.22806
 Alpha  occ. eigenvalues --   -0.21293
 Alpha virt. eigenvalues --   -0.06654  -0.04563  -0.03159  -0.02312  -0.02029
 Alpha virt. eigenvalues --   -0.01199   0.01104   0.01341   0.02889   0.03740
 Alpha virt. eigenvalues --    0.04829   0.06479   0.06923   0.08446   0.09521

 Mulliken charges:
               1
     1  O   -0.506111
     2  C    0.615702
     3  N   -0.740781
     4  C    0.345027
     5  C   -0.021097
     6  N   -0.414349
     7  C    0.006167
     8  C    0.065733
     9  C    0.007572
    10  C   -0.193247
    11  C   -0.151388
    12  C    0.398570
    13  N   -0.556463
    14  N   -0.374494
    15  C    0.270815
    16  C    0.553742
    17  N   -0.559858
    18  C    0.397272
    19  N   -0.486719
    20  C    0.026635
    21  C   -0.220938
    22  C    0.117456
    23  C    0.116209
    24  C   -0.200131
    25  C    0.038160
    26  N   -0.405262
    27  C    0.037998
    28  C   -0.174911
    29  C    0.318717
    30  N   -0.796294
    31  C   -0.042029
    32  C    0.255017
    33  F   -0.250192
    34  C   -0.176900
    35  C   -0.203698
    36  C   -0.285780
    37  C   -0.294232
    38  C   -0.277490
    39  H    0.340565
    40  H    0.129587
    41  H    0.158035
    42  H    0.157800
    43  H    0.142659
    44  H    0.346716
    45  H    0.139750
    46  H    0.137711
    47  H    0.145618
    48  H    0.145298
    49  H    0.146672
    50  H    0.146891
    51  H    0.349898
    52  H    0.196664
    53  H    0.164548
    54  H    0.158306
    55  H    0.149733
    56  H    0.152187
    57  H    0.139250
    58  H    0.157922
    59  H    0.155763
 Sum of Mulliken charges =  -0.00000

 Dipole moment (field-independent basis, Debye):
    X=              3.8287    Y=              0.4564    Z=             -4.0438  Tot=              5.5874
 Quadrupole moment (field-independent basis, Debye-Ang):
   XX=           -170.9581   YY=           -217.0249   ZZ=           -204.9769
   XY=              8.5284   XZ=              6.0834   YZ=              7.5589

 Normal termination of Gaussian 16 at Sat Nov  5 12:14:14 2022.
