 Gaussian 16, Revision B.01,
 Gaussian 16:  ES64L-G16RevB.01 20-Dec-2017

 -----------------------------
 #p b3lyp/6-31g(d) opt SCF=XQC
 -----------------------------

 ------------------------------
 Gaussian input prepared by ASE
 ------------------------------
 Symbolic Z-matrix:
 Charge =  0 Multiplicity = 1

 SCF Done:  E(RB3LYP) =  -1671.81827154     A.U. after   15 cycles
 SCF Done:  E(RB3LYP) =  -1671.82658673     A.U. after   13 cycles
 SCF Done:  E(RB3LYP) =  -1671.82746748     A.U. after   12 cycles
 SCF Done:  E(RB3LYP) =  -1671.82797929     A.U. after   12 cycles
 SCF Done:  E(RB3LYP) =  -1671.82819108     A.U. after   11 cycles
 SCF Done:  E(RB3LYP) =  -1671.82826313     A.U. after   10 cycles
 SCF Done:  E(RB3LYP) =  -1671.82830279     A.U. after   10 cycles
 SCF Done:  E(RB3LYP) =  -1671.82831824     A.U. after   10 cycles
 SCF Done:  E(RB3LYP) =  -1671.82832426     A.U. after    9 cycles
 SCF Done:  E(RB3LYP) =  -1671.82833263     A.U. after    9 cycles
 SCF Done:  E(RB3LYP) =  -1671.82834436     A.U. after   10 cycles
 SCF Done:  E(RB3LYP) =  -1671.82834852     A.U. after    9 cycles
 SCF Done:  E(RB3LYP) =  -1671.82834884     A.U. after    8 cycles
 SCF Done:  E(RB3LYP) =  -1671.82834906     A.U. after    7 cycles
 SCF Done:  E(RB3LYP) =  -1671.82834912     A.U. after    7 cycles
 SCF Done:  E(RB3LYP) =  -1671.82834913     A.U. after    6 cycles
 SCF Done:  E(RB3LYP) =  -1671.82834914     A.U. after    6 cycles
 Optimization completed.
    -- Stationary point found.

                         Standard orientation:
 ---------------------------------------------------------------------
 Center     Atomic      Atomic             Coordinates (Angstroms)
 Number     Number       Type             X           Y           Z
 ---------------------------------------------------------------------
      1          6           0       -9.799818   -2.450721   -0.527952
      2          6           0       -9.792293   -1.662737    0.787894
      3          6           0       -8.436236   -1.029681    1.139476
      4          6           0       -8.017903    0.127532    0.223440
      5          8           0       -8.939194    1.199390    0.285712
      6          7           0       -6.694054    0.654510    0.596305
      7          6           0       -5.508670    0.144137    0.071262
      8          6           0       -5.404490   -1.129570   -0.523515
      9          7           0       -4.264074   -1.624444   -1.010909
     10          6           0       -3.153516   -0.892928   -0.922998
     11          6           0       -3.126989    0.389050   -0.341305
     12          6           0       -1.904071    1.229151   -0.263808
     13          7           0       -2.104896    2.577767   -0.220015
     14          6           0       -1.092324    3.419518   -0.149804
     15          6           0        0.228648    2.945734   -0.118684
     16          7           0        1.443895    3.565849   -0.054417
     17          7           0        2.471260    2.701626   -0.027995
     18          6           0        1.947966    1.478295   -0.075032
     19          6           0        2.841901    0.323641   -0.059814
     20          7           0        4.158948    0.401156    0.011328
     21          6           0        4.597403   -0.905057   -0.007168
     22          6           0        5.901891   -1.447596    0.054740
     23          6           0        7.129814   -0.629225    0.160775
     24          6           0        7.204821    0.674539   -0.356320
     25          6           0        8.401126    1.380769   -0.247010
     26          7           0        9.512128    0.902762    0.328926
     27          6           0        9.433225   -0.336271    0.831054
     28          6           0        8.288804   -1.128271    0.778769
     29          6           0        5.956630   -2.847651   -0.001439
     30          7           0        4.903576   -3.684567   -0.081928
     31          6           0        3.674638   -3.172933   -0.120581
     32          6           0        3.496044   -1.790571   -0.090390
     33          7           0        2.385189   -0.973063   -0.122456
     34          6           0        0.506168    1.559544   -0.138875
     35          6           0       -0.609970    0.715422   -0.205133
     36          9           0       -0.417266   -0.632696   -0.190658
     37          6           0       -4.330466    0.901979    0.146008
     38          1           0       -9.597858   -1.808435   -1.392517
     39          1           0       -9.044808   -3.246761   -0.518622
     40          1           0      -10.775062   -2.921503   -0.694145
     41          1           0      -10.556742   -0.876570    0.748484
     42          1           0      -10.079549   -2.332882    1.608112
     43          1           0       -7.651629   -1.796154    1.136669
     44          1           0       -8.455029   -0.631524    2.165414
     45          1           0       -8.014835   -0.185520   -0.829396
     46          1           0       -9.177275    1.324978    1.219674
     47          1           0       -6.722878    1.668598    0.597912
     48          1           0       -6.273891   -1.774725   -0.616233
     49          1           0       -2.259925   -1.334770   -1.349706
     50          1           0       -1.323714    4.482591   -0.118140
     51          1           0        1.644853    4.554635   -0.024175
     52          1           0        6.340408    1.131857   -0.821735
     53          1           0        8.469509    2.391516   -0.646940
     54          1           0       10.334772   -0.716929    1.309272
     55          1           0        8.297634   -2.111991    1.237229
     56          1           0        6.926618   -3.338623   -0.004428
     57          1           0        2.840611   -3.870349   -0.179918
     58          1           0        1.415607   -1.253292   -0.169869
     59          1           0       -4.345661    1.897222    0.579862
 ---------------------------------------------------------------------

 The electronic state is 1-A.
 Alpha  occ. eigenvalues --  -24.75800 -19.17096 -14.44983 -14.40466 -14.40111
 Alpha  occ. eigenvalues --  -14.36541 -14.35311 -14.33163 -14.33037 -14.32916
 Alpha  occ. eigenvalues --  -14.31686 -10.31609 -10.28340 -10.28201 -10.27199
 Alpha  occ. eigenvalues --  -10.26474 -10.26253 -10.26150 -10.24733 -10.24192
 Alpha  occ. eigenvalues --  -10.23717 -10.22988 -10.22854 -10.22049 -10.21785
 Alpha  occ. eigenvalues --  -10.21714 -10.21640 -10.21072 -10.20972 -10.20904
 Alpha  occ. eigenvalues --  -10.20808 -10.20453 -10.19624 -10.19292 -10.18871
 Alpha  occ. eigenvalues --  -10.18318 -10.18236  -1.26503  -1.09184  -1.05361
 Alpha  occ. eigenvalues --   -1.03589  -0.97725  -0.94996  -0.93665  -0.92669
 Alpha  occ. eigenvalues --   -0.92136  -0.89792  -0.87459  -0.84962  -0.82567
 Alpha  occ. eigenvalues --   -0.82173  -0.80260  -0.78697  -0.77758  -0.75433
 Alpha  occ. eigenvalues --   -0.75184  -0.74771  -0.71844  -0.69904  -0.69301
 Alpha  occ. eigenvalues --   -0.68062  -0.65901  -0.65366  -0.63800  -0.63263
 Alpha  occ. eigenvalues --   -0.61915  -0.61655  -0.61101  -0.60905  -0.59551
 Alpha  occ. eigenvalues --   -0.59275  -0.56395  -0.55490  -0.55083  -0.52861
 Alpha  occ. eigenvalues --   -0.52798  -0.52470  -0.51364  -0.51017  -0.50778
 Alpha  occ. eigenvalues --   -0.50415  -0.49031  -0.48780  -0.48542  -0.47852
 Alpha  occ. eigenvalues --   -0.47292  -0.46265  -0.46244  -0.45841  -0.45449
 Alpha  occ. eigenvalues --   -0.45076  -0.44390  -0.43440  -0.43049  -0.42181
 Alpha  occ. eigenvalues --   -0.41767  -0.41666  -0.41461  -0.41134  -0.40666
 Alpha  occ. eigenvalues --   -0.40408  -0.39517  -0.39010  -0.38233  -0.37937
 Alpha  occ. eigenvalues --   -0.37596  -0.36682  -0.35310  -0.34970  -0.34753
 Alpha  occ. eigenvalues --   -0.33943  -0.33629  -0.33333  -0.32708  -0.31598
 Alpha  occ. eigenvalues --   -0.31165  -0.30549  -0.29448  -0.29071  -0.28450
 Alpha  occ. eigenvalues --   -0.28285  -0.25874  -0.25654  -0.25383  -0.24911
 Alpha  occ. eigenvalues --   -0.24192  -0.23457  -0.22760  -0.21527
 Alpha virt. eigenvalues --   -0.08013  -0.05920  -0.04706  -0.02027  -0.01457
 Alpha virt. eigenvalues --    0.00126   0.00941   0.01949   0.02998   0.05070
 Alpha virt. eigenvalues --    0.05748   0.06547   0.07993   0.08551   0.09137

 Mulliken charges:
               1
     1  C   -0.452444
     2  C   -0.251335
     3  C   -0.283383
     4  C    0.260404
     5  O   -0.624037
     6  N   -0.683138
     7  C    0.341876
     8  C   -0.008566
     9  N   -0.422457
    10  C   -0.020678
    11  C    0.109331
    12  C    0.169424
    13  N   -0.496191
    14  C    0.042753
    15  C    0.366280
    16  N   -0.551350
    17  N   -0.302302
    18  C    0.257860
    19  C    0.559043
    20  N   -0.571518
    21  C    0.217302
    22  C    0.039984
    23  C    0.111582
    24  C   -0.167488
    25  C    0.029090
    26  N   -0.410267
    27  C    0.032328
    28  C   -0.183302
    29  C   -0.029361
    30  N   -0.433592
    31  C    0.011895
    32  C    0.344311
    33  N   -0.816080
    34  C   -0.006785
    35  C    0.252423
    36  F   -0.289230
    37  C   -0.195597
    38  H    0.153437
    39  H    0.147181
    40  H    0.150258
    41  H    0.141434
    42  H    0.139203
    43  H    0.153778
    44  H    0.129619
    45  H    0.149166
    46  H    0.394204
    47  H    0.321249
    48  H    0.140672
    49  H    0.138247
    50  H    0.157793
    51  H    0.358419
    52  H    0.168758
    53  H    0.137090
    54  H    0.136715
    55  H    0.138518
    56  H    0.144997
    57  H    0.145063
    58  H    0.354866
    59  H    0.152551
 Sum of Mulliken charges =  -0.00000

 Dipole moment (field-independent basis, Debye):
    X=             -8.1215    Y=              4.2243    Z=              1.7472  Tot=              9.3197
 Quadrupole moment (field-independent basis, Debye-Ang):
   XX=           -245.6583   YY=           -197.0226   ZZ=           -211.2583
   XY=             -4.5250   XZ=            -16.5674   YZ=             -2.0497

 Normal termination of Gaussian 16 at Fri Nov  4 20:34:47 2022.
