 Gaussian 16, Revision B.01,
 Gaussian 16:  ES64L-G16RevB.01 20-Dec-2017

 -------------------------------------------------------------------
 #p b3lyp/6-31g(d) 6D 10F nosymm GFInput td=(50-50,nstate=2) SCF=XQC
 -------------------------------------------------------------------

 ------------------------------
 Gaussian input prepared by ASE
 ------------------------------
 Symbolic Z-matrix:
 Charge =  0 Multiplicity = 1

                          Input orientation:
 ---------------------------------------------------------------------
 Center     Atomic      Atomic             Coordinates (Angstroms)
 Number     Number       Type             X           Y           Z
 ---------------------------------------------------------------------
      1          6           0        9.081310    2.010150   -0.271620
      2          6           0        9.021512    1.128195    0.981777
      3          6           0        7.638561    0.517962    1.261637
      4          6           0        7.200674   -0.553638    0.255063
      5          8           0        8.084683   -1.658201    0.253707
      6          7           0        5.852979   -1.060816    0.564579
      7          6           0        4.695799   -0.472751    0.058219
      8          6           0        4.645589    0.844098   -0.442111
      9          7           0        3.532080    1.412399   -0.911296
     10          6           0        2.396465    0.714998   -0.897355
     11          6           0        2.316055   -0.604640   -0.412971
     12          6           0        1.064790   -1.405638   -0.419437
     13          7           0        1.220112   -2.759923   -0.472358
     14          6           0        0.179128   -3.569259   -0.482533
     15          6           0       -1.125857   -3.053931   -0.439437
     16          7           0       -2.361937   -3.634961   -0.442633
     17          7           0       -3.360563   -2.740229   -0.370107
     18          6           0       -2.796370   -1.535462   -0.317059
     19          6           0       -3.651863   -0.355020   -0.231816
     20          7           0       -4.971908   -0.392250   -0.189664
     21          6           0       -5.366586    0.926079   -0.118822
     22          6           0       -6.653447    1.507102   -0.039637
     23          6           0       -7.909566    0.725834   -0.016122
     24          6           0       -8.017187   -0.532991   -0.629792
     25          6           0       -9.238078   -1.203817   -0.594137
     26          7           0      -10.343996   -0.731590   -0.003825
     27          6           0      -10.234317    0.463686    0.590184
     28          6           0       -9.063582    1.217585    0.616847
     29          6           0       -6.660847    2.908548    0.007307
     30          7           0       -5.579365    3.712430    0.007583
     31          6           0       -4.367443    3.163094   -0.047443
     32          6           0       -4.235178    1.776939   -0.116819
     33          7           0       -3.151471    0.926313   -0.190045
     34          6           0       -1.357049   -1.661297   -0.361535
     35          6           0       -0.212577   -0.853448   -0.345432
     36          9           0       -0.360964    0.495774   -0.234308
     37          6           0        3.491984   -1.193097    0.055896
     38          1           0        8.875590    1.440551   -1.184870
     39          1           0        8.352930    2.828822   -0.216435
     40          1           0       10.074677    2.458089   -0.385333
     41          1           0        9.760251    0.321252    0.897498
     42          1           0        9.314270    1.725893    1.854370
     43          1           0        6.879873    1.309076    1.302008
     44          1           0        7.623710    0.044976    2.255364
     45          1           0        7.228968   -0.164037   -0.771526
     46          1           0        8.299786   -1.860288    1.179791
     47          1           0        5.848303   -2.072662    0.491418
     48          1           0        5.537474    1.464064   -0.471471
     49          1           0        1.526637    1.217494   -1.305651
     50          1           0        0.374651   -4.639102   -0.525819
     51          1           0       -2.595962   -4.615799   -0.489383
     52          1           0       -7.159202   -0.984257   -1.112680
     53          1           0       -9.331757   -2.179443   -1.069118
     54          1           0      -11.132194    0.838879    1.079499
     55          1           0       -9.049120    2.164621    1.146831
     56          1           0       -7.613861    3.431454    0.023806
     57          1           0       -3.509850    3.833908   -0.040260
     58          1           0       -2.172421    1.175782   -0.199567
     59          1           0        3.465675   -2.217501    0.414884
 ---------------------------------------------------------------------

 SCF Done:  E(RB3LYP) =  -1671.82834905     A.U. after   15 cycles

 Excitation energies and oscillator strengths:

 Excited state symmetry could not be determined.
 Excited State   1:      Triplet-?Sym    2.6350 eV  470.53 nm  f=0.0000  <S**2>=2.000
     118 ->130         0.11181
     121 ->130        -0.10625
     127 ->130         0.42960
     128 ->130         0.39316
     129 ->130         0.25389
 This state for optimization and/or second-order correction.
 Total Energy, E(TD-HF/TD-DFT) =  -1671.73151506
 Copying the excited state density for this state as the 1-particle RhoCI density.

 Excited state symmetry could not be determined.
 Excited State   2:      Triplet-?Sym    2.8940 eV  428.42 nm  f=0.0000  <S**2>=2.000
     127 ->130        -0.28399
     128 ->130         0.36264
     128 ->131         0.25400
     128 ->132        -0.31163
     129 ->130        -0.19057
     129 ->132        -0.12537

 Excited state symmetry could not be determined.
 Excited State   3:      Singlet-?Sym    3.2429 eV  382.32 nm  f=0.0126  <S**2>=0.000
     129 ->130         0.70147

 Excited state symmetry could not be determined.
 Excited State   4:      Singlet-?Sym    3.5627 eV  348.01 nm  f=0.1634  <S**2>=0.000
     128 ->130         0.70203

 Alpha  occ. eigenvalues --  -24.75800 -19.17096 -14.44983 -14.40466 -14.40111
 Alpha  occ. eigenvalues --  -14.36541 -14.35311 -14.33163 -14.33037 -14.32916
 Alpha  occ. eigenvalues --  -14.31686 -10.31609 -10.28340 -10.28201 -10.27199
 Alpha  occ. eigenvalues --  -10.26474 -10.26253 -10.26150 -10.24732 -10.24193
 Alpha  occ. eigenvalues --  -10.23717 -10.22989 -10.22854 -10.22049 -10.21785
 Alpha  occ. eigenvalues --  -10.21714 -10.21640 -10.21072 -10.20972 -10.20904
 Alpha  occ. eigenvalues --  -10.20808 -10.20453 -10.19624 -10.19292 -10.18871
 Alpha  occ. eigenvalues --  -10.18318 -10.18236  -1.26503  -1.09184  -1.05361
 Alpha  occ. eigenvalues --   -1.03589  -0.97725  -0.94996  -0.93665  -0.92669
 Alpha  occ. eigenvalues --   -0.92136  -0.89792  -0.87459  -0.84962  -0.82567
 Alpha  occ. eigenvalues --   -0.82173  -0.80260  -0.78697  -0.77758  -0.75433
 Alpha  occ. eigenvalues --   -0.75184  -0.74771  -0.71844  -0.69904  -0.69301
 Alpha  occ. eigenvalues --   -0.68062  -0.65901  -0.65366  -0.63800  -0.63263
 Alpha  occ. eigenvalues --   -0.61915  -0.61655  -0.61101  -0.60905  -0.59551
 Alpha  occ. eigenvalues --   -0.59275  -0.56395  -0.55490  -0.55083  -0.52861
 Alpha  occ. eigenvalues --   -0.52798  -0.52470  -0.51364  -0.51017  -0.50778
 Alpha  occ. eigenvalues --   -0.50415  -0.49031  -0.48780  -0.48542  -0.47852
 Alpha  occ. eigenvalues --   -0.47292  -0.46265  -0.46244  -0.45841  -0.45449
 Alpha  occ. eigenvalues --   -0.45076  -0.44390  -0.43440  -0.43049  -0.42181
 Alpha  occ. eigenvalues --   -0.41767  -0.41666  -0.41461  -0.41134  -0.40666
 Alpha  occ. eigenvalues --   -0.40408  -0.39517  -0.39010  -0.38233  -0.37937
 Alpha  occ. eigenvalues --   -0.37596  -0.36682  -0.35310  -0.34970  -0.34753
 Alpha  occ. eigenvalues --   -0.33943  -0.33629  -0.33333  -0.32708  -0.31598
 Alpha  occ. eigenvalues --   -0.31165  -0.30549  -0.29448  -0.29071  -0.28450
 Alpha  occ. eigenvalues --   -0.28285  -0.25874  -0.25654  -0.25383  -0.24911
 Alpha  occ. eigenvalues --   -0.24192  -0.23457  -0.22760  -0.21527
 Alpha virt. eigenvalues --   -0.08013  -0.05920  -0.04706  -0.02027  -0.01457
 Alpha virt. eigenvalues --    0.00126   0.00941   0.01949   0.02998   0.05070
 Alpha virt. eigenvalues --    0.05748   0.06547   0.07993   0.08551   0.09137

 Mulliken charges:
               1
     1  C   -0.452438
     2  C   -0.251335
     3  C   -0.283385
     4  C    0.260401
     5  O   -0.624034
     6  N   -0.683134
     7  C    0.341866
     8  C   -0.008570
     9  N   -0.422454
    10  C   -0.020704
    11  C    0.109358
    12  C    0.169429
    13  N   -0.496182
    14  C    0.042748
    15  C    0.366280
    16  N   -0.551351
    17  N   -0.302304
    18  C    0.257864
    19  C    0.559057
    20  N   -0.571522
    21  C    0.217296
    22  C    0.039989
    23  C    0.111569
    24  C   -0.167470
    25  C    0.029079
    26  N   -0.410262
    27  C    0.032325
    28  C   -0.183289
    29  C   -0.029376
    30  N   -0.433576
    31  C    0.011880
    32  C    0.344325
    33  N   -0.816096
    34  C   -0.006781
    35  C    0.252414
    36  F   -0.289232
    37  C   -0.195597
    38  H    0.153435
    39  H    0.147179
    40  H    0.150257
    41  H    0.141433
    42  H    0.139201
    43  H    0.153780
    44  H    0.129619
    45  H    0.149167
    46  H    0.394204
    47  H    0.321249
    48  H    0.140671
    49  H    0.138249
    50  H    0.157793
    51  H    0.358419
    52  H    0.168757
    53  H    0.137090
    54  H    0.136715
    55  H    0.138517
    56  H    0.144996
    57  H    0.145063
    58  H    0.354867
    59  H    0.152551
 Sum of Mulliken charges =  -0.00000

 Dipole moment (field-independent basis, Debye):
    X=              7.9413    Y=             -4.6180    Z=              1.5706  Tot=              9.3197
 Quadrupole moment (field-independent basis, Debye-Ang):
   XX=           -259.3018   YY=           -195.8216   ZZ=           -210.6304
   XY=             -1.4667   XZ=             13.6185   YZ=              2.6866

 Normal termination of Gaussian 16 at Sat Nov  5 12:08:28 2022.
