 Gaussian 16, Revision B.01,
 Gaussian 16:  ES64L-G16RevB.01 20-Dec-2017

 -----------------------------
 #p b3lyp/6-31g(d) opt SCF=XQC
 -----------------------------

 ------------------------------
 Gaussian input prepared by ASE
 ------------------------------
 Symbolic Z-matrix:
 Charge =  0 Multiplicity = 1

 SCF Done:  E(RB3LYP) =  -1609.82934923     A.U. after   15 cycles
 SCF Done:  E(RB3LYP) =  -1609.83725487     A.U. after   13 cycles
 SCF Done:  E(RB3LYP) =  -1609.83818913     A.U. after   12 cycles
 SCF Done:  E(RB3LYP) =  -1609.83850020     A.U. after   11 cycles
 SCF Done:  E(RB3LYP) =  -1609.83864626     A.U. after   11 cycles
 SCF Done:  E(RB3LYP) =  -1609.83871978     A.U. after   10 cycles
 SCF Done:  E(RB3LYP) =  -1609.83875689     A.U. after   11 cycles
 SCF Done:  E(RB3LYP) =  -1609.83877187     A.U. after   10 cycles
 SCF Done:  E(RB3LYP) =  -1609.83877882     A.U. after    9 cycles
 SCF Done:  E(RB3LYP) =  -1609.83878393     A.U. after    9 cycles
 SCF Done:  E(RB3LYP) =  -1609.83879766     A.U. after    9 cycles
 SCF Done:  E(RB3LYP) =  -1609.83879820     A.U. after    8 cycles
 SCF Done:  E(RB3LYP) =  -1609.83879897     A.U. after    7 cycles
 SCF Done:  E(RB3LYP) =  -1609.83879964     A.U. after    8 cycles
 SCF Done:  E(RB3LYP) =  -1609.83880018     A.U. after    7 cycles
 SCF Done:  E(RB3LYP) =  -1609.83880069     A.U. after    8 cycles
 SCF Done:  E(RB3LYP) =  -1609.83880087     A.U. after    7 cycles
 SCF Done:  E(RB3LYP) =  -1609.83880107     A.U. after    7 cycles
 SCF Done:  E(RB3LYP) =  -1609.83880116     A.U. after    7 cycles
 SCF Done:  E(RB3LYP) =  -1609.83880120     A.U. after    7 cycles
 Optimization completed.
    -- Stationary point found.

                         Standard orientation:
 ---------------------------------------------------------------------
 Center     Atomic      Atomic             Coordinates (Angstroms)
 Number     Number       Type             X           Y           Z
 ---------------------------------------------------------------------
      1          6           0        5.894232   -1.526319   -1.368159
      2          6           0        5.780366   -0.566571   -0.227585
      3          6           0        4.672990    0.015346    0.403026
      4          6           0        3.254295   -0.252396    0.113237
      5          7           0        2.957976   -1.480283   -0.299007
      6          6           0        1.670292   -1.812473   -0.588273
      7          6           0        1.412387   -3.145383   -1.005857
      8          6           0        0.126630   -3.535121   -1.297084
      9          6           0       -0.945378   -2.620442   -1.191060
     10          6           0       -0.752218   -1.308187   -0.780331
     11          6           0       -1.909903   -0.408845   -0.648760
     12          7           0       -1.863373    0.941656   -0.943431
     13          6           0       -3.062948    1.428684   -0.695119
     14          6           0       -3.453757    2.842497   -0.865373
     15          6           0       -2.411605    3.927436   -0.651755
     16          6           0       -2.889148    3.627813   -2.039787
     17          7           0       -3.907923    0.438629   -0.250266
     18          6           0       -3.182642   -0.733750   -0.214107
     19          6           0       -3.828684   -1.972324    0.308062
     20          7           0       -4.882857   -1.665356    1.279888
     21          6           0       -5.265852   -2.744067    2.181388
     22          6           0       -5.664462   -0.546073    1.212942
     23          8           0       -6.648622   -0.357657    1.919456
     24          6           0       -5.305929    0.521105    0.164015
     25          6           0       -6.274056    0.428381   -1.028393
     26          6           0        0.587694   -0.884910   -0.472161
     27          6           0        0.929803    0.419918   -0.045403
     28          6           0        2.234591    0.751096    0.240165
     29          6           0        2.543593    2.164032    0.657004
     30          9           0        2.602828    2.259661    2.033841
     31          9           0        1.552818    3.020979    0.254632
     32          6           0        5.245411    0.855597    1.398294
     33          7           0        6.571002    0.810344    1.392670
     34          7           0        6.877290   -0.055578    0.391644
     35          6           0        8.270160   -0.318836    0.084395
     36          1           0        6.346140   -2.474685   -1.048636
     37          1           0        6.516655   -1.120887   -2.176367
     38          1           0        4.901780   -1.754054   -1.755667
     39          1           0        2.254132   -3.826069   -1.082471
     40          1           0       -0.075010   -4.551126   -1.626296
     41          1           0       -1.941147   -2.946099   -1.477607
     42          1           0       -4.470376    3.083031   -0.568579
     43          1           0       -2.740219    4.845913   -0.173297
     44          1           0       -1.414595    3.595736   -0.378191
     45          1           0       -3.547832    4.336794   -2.534112
     46          1           0       -2.215770    3.084823   -2.695660
     47          1           0       -3.070792   -2.589332    0.803926
     48          1           0       -4.251243   -2.594445   -0.500808
     49          1           0       -6.072217   -2.384925    2.819540
     50          1           0       -4.408313   -3.041773    2.795556
     51          1           0       -5.614125   -3.619562    1.616754
     52          1           0       -5.455750    1.475056    0.675471
     53          1           0       -7.303410    0.492476   -0.665404
     54          1           0       -6.091439    1.245844   -1.732685
     55          1           0       -6.146836   -0.518705   -1.563878
     56          1           0        0.158114    1.175030    0.006758
     57          1           0        3.492233    2.537193    0.262294
     58          1           0        4.737016    1.459286    2.135824
     59          1           0        8.478774   -1.393166    0.116838
     60          1           0        8.536782    0.064924   -0.906950
     61          1           0        8.865626    0.191093    0.841350
 ---------------------------------------------------------------------

 The electronic state is 1-A.
 Alpha  occ. eigenvalues --  -24.69538 -24.68984 -19.12196 -14.40671 -14.39941
 Alpha  occ. eigenvalues --  -14.38307 -14.33870 -14.32085 -14.31259 -10.33855
 Alpha  occ. eigenvalues --  -10.30003 -10.25769 -10.25368 -10.25046 -10.23797
 Alpha  occ. eigenvalues --  -10.22971 -10.22740 -10.22571 -10.22566 -10.22274
 Alpha  occ. eigenvalues --  -10.21312 -10.21042 -10.20867 -10.20196 -10.20112
 Alpha  occ. eigenvalues --  -10.20065 -10.19717 -10.19666 -10.19546 -10.19494
 Alpha  occ. eigenvalues --  -10.19338 -10.19178 -10.18947 -10.18770 -10.18216
 Alpha  occ. eigenvalues --   -1.23216  -1.17456  -1.04839  -1.04048  -1.02585
 Alpha  occ. eigenvalues --   -0.95212  -0.94105  -0.89946  -0.86590  -0.85084
 Alpha  occ. eigenvalues --   -0.84017  -0.81457  -0.80238  -0.79705  -0.78119
 Alpha  occ. eigenvalues --   -0.76165  -0.75050  -0.72059  -0.71453  -0.70645
 Alpha  occ. eigenvalues --   -0.69762  -0.68960  -0.66545  -0.64497  -0.64061
 Alpha  occ. eigenvalues --   -0.61834  -0.61515  -0.60235  -0.58983  -0.57990
 Alpha  occ. eigenvalues --   -0.56769  -0.55694  -0.54836  -0.53523  -0.53421
 Alpha  occ. eigenvalues --   -0.52902  -0.52609  -0.51905  -0.50467  -0.50033
 Alpha  occ. eigenvalues --   -0.49305  -0.48527  -0.48185  -0.47973  -0.47528
 Alpha  occ. eigenvalues --   -0.46885  -0.46083  -0.45429  -0.44340  -0.43833
 Alpha  occ. eigenvalues --   -0.43427  -0.43233  -0.42914  -0.42609  -0.42033
 Alpha  occ. eigenvalues --   -0.41630  -0.41485  -0.41000  -0.40669  -0.40522
 Alpha  occ. eigenvalues --   -0.40124  -0.39873  -0.39617  -0.39435  -0.38871
 Alpha  occ. eigenvalues --   -0.38615  -0.38429  -0.38095  -0.37775  -0.37094
 Alpha  occ. eigenvalues --   -0.36872  -0.36516  -0.36174  -0.35201  -0.34284
 Alpha  occ. eigenvalues --   -0.33010  -0.31581  -0.30642  -0.30286  -0.28542
 Alpha  occ. eigenvalues --   -0.28154  -0.27305  -0.26534  -0.26017  -0.25309
 Alpha  occ. eigenvalues --   -0.24911  -0.24097  -0.23910  -0.21767  -0.20239
 Alpha virt. eigenvalues --   -0.05428  -0.02428   0.00346   0.00775   0.02231
 Alpha virt. eigenvalues --    0.02530   0.06216   0.06867   0.07434   0.08139
 Alpha virt. eigenvalues --    0.08874   0.09253   0.10422   0.10876   0.11297

 Mulliken charges:
               1
     1  C   -0.526141
     2  C    0.381006
     3  C   -0.096159
     4  C    0.234714
     5  N   -0.612584
     6  C    0.252544
     7  C   -0.146712
     8  C   -0.138724
     9  C   -0.215470
    10  C    0.079520
    11  C    0.086472
    12  N   -0.569478
    13  C    0.534958
    14  C   -0.190977
    15  C   -0.309524
    16  C   -0.304186
    17  N   -0.528535
    18  C    0.290757
    19  C   -0.193672
    20  N   -0.439696
    21  C   -0.324086
    22  C    0.603872
    23  O   -0.522169
    24  C   -0.077493
    25  C   -0.446268
    26  C    0.087133
    27  C   -0.190728
    28  C    0.006643
    29  C    0.405260
    30  F   -0.288478
    31  F   -0.289011
    32  C    0.002023
    33  N   -0.304642
    34  N   -0.298290
    35  C   -0.316506
    36  H    0.164969
    37  H    0.154329
    38  H    0.201136
    39  H    0.137751
    40  H    0.131897
    41  H    0.128385
    42  H    0.142752
    43  H    0.155758
    44  H    0.192407
    45  H    0.153264
    46  H    0.181733
    47  H    0.183357
    48  H    0.163986
    49  H    0.210232
    50  H    0.164505
    51  H    0.156668
    52  H    0.189684
    53  H    0.184377
    54  H    0.167320
    55  H    0.156905
    56  H    0.200503
    57  H    0.139235
    58  H    0.163910
    59  H    0.170518
    60  H    0.170255
    61  H    0.198791
 Sum of Mulliken charges =  -0.00000

 Dipole moment (field-independent basis, Debye):
    X=             -1.0178    Y=             -2.9671    Z=             -3.5744  Tot=              4.7557
 Quadrupole moment (field-independent basis, Debye-Ang):
   XX=           -180.9640   YY=           -185.8886   ZZ=           -207.7216
   XY=             -5.6476   XZ=             -2.2134   YZ=             -3.8047

 Normal termination of Gaussian 16 at Fri Nov  4 20:56:42 2022.
