 Gaussian 16, Revision B.01,
 Gaussian 16:  ES64L-G16RevB.01 20-Dec-2017

 -------------------------------------------------------------------
 #p b3lyp/6-31g(d) 6D 10F nosymm GFInput td=(50-50,nstate=2) SCF=XQC
 -------------------------------------------------------------------

 ------------------------------
 Gaussian input prepared by ASE
 ------------------------------
 Symbolic Z-matrix:
 Charge =  0 Multiplicity = 1

                          Input orientation:
 ---------------------------------------------------------------------
 Center     Atomic      Atomic             Coordinates (Angstroms)
 Number     Number       Type             X           Y           Z
 ---------------------------------------------------------------------
      1          6           0        6.052557    1.170864   -1.448217
      2          6           0        5.943616    0.286536   -0.247764
      3          6           0        4.838736   -0.247133    0.428265
      4          6           0        3.423015   -0.107019    0.048182
      5          7           0        3.167775   -0.015113   -1.252535
      6          6           0        1.885893    0.116321   -1.690322
      7          6           0        1.673771    0.190545   -3.092832
      8          6           0        0.396477    0.310312   -3.586853
      9          6           0       -0.712296    0.366398   -2.712463
     10          6           0       -0.564098    0.290387   -1.333956
     11          6           0       -1.756498    0.313383   -0.471394
     12          7           0       -1.787734    0.922587    0.769872
     13          6           0       -2.997036    0.732113    1.258897
     14          6           0       -3.462189    1.211863    2.575732
     15          6           0       -2.464676    1.319272    3.716889
     16          6           0       -2.988435    2.568212    3.076360
     17          7           0       -3.773124    0.019389    0.374703
     18          6           0       -2.991707   -0.254717   -0.728050
     19          6           0       -3.553970   -1.090633   -1.827687
     20          7           0       -4.577476   -2.017653   -1.334711
     21          6           0       -4.868073   -3.169137   -2.178893
     22          6           0       -5.413922   -1.729374   -0.292870
     23          8           0       -6.373662   -2.423438    0.024003
     24          6           0       -5.153722   -0.438985    0.503908
     25          6           0       -6.168241    0.642658    0.093413
     26          6           0        0.766384    0.165108   -0.801394
     27          6           0        1.064280    0.079903    0.579089
     28          6           0        2.363115   -0.047253    1.015622
     29          6           0        2.622363   -0.098955    2.497426
     30          9           0        2.737966   -1.408305    2.922363
     31          9           0        1.574863    0.440899    3.196851
     32          6           0        5.413891   -0.981532    1.502556
     33          7           0        6.738574   -0.914588    1.504826
     34          7           0        7.041229   -0.132818    0.435750
     35          6           0        8.430096    0.178517    0.156628
     36          1           0        6.563038    0.660271   -2.275512
     37          1           0        6.618415    2.084943   -1.226292
     38          1           0        5.055925    1.438484   -1.797628
     39          1           0        2.542883    0.148986   -3.741411
     40          1           0        0.229261    0.377195   -4.658707
     41          1           0       -1.703077    0.512656   -3.132796
     42          1           0       -4.474984    0.925772    2.843793
     43          1           0       -2.815301    1.055575    4.710889
     44          1           0       -1.441790    1.029481    3.496397
     45          1           0       -3.701554    3.180186    3.622094
     46          1           0       -2.319610    3.111978    2.416483
     47          1           0       -2.746185   -1.676840   -2.280266
     48          1           0       -3.981748   -0.477014   -2.640299
     49          1           0       -5.661594   -3.746647   -1.706399
     50          1           0       -3.970880   -3.788779   -2.289760
     51          1           0       -5.198772   -2.848539   -3.176116
     52          1           0       -5.326168   -0.716511    1.546643
     53          1           0       -7.182368    0.249753    0.205706
     54          1           0       -6.056351    1.529890    0.724226
     55          1           0       -6.019742    0.943889   -0.949232
     56          1           0        0.260430    0.166680    1.296525
     57          1           0        3.533627    0.424211    2.798854
     58          1           0        4.910416   -1.581078    2.246810
     59          1           0        8.691092   -0.096845   -0.870415
     60          1           0        8.633824    1.245669    0.300871
     61          1           0        9.033477   -0.401988    0.854147
 ---------------------------------------------------------------------

 SCF Done:  E(RB3LYP) =  -1609.83880463     A.U. after   15 cycles

 Excitation energies and oscillator strengths:

 Excited state symmetry could not be determined.
 Excited State   1:      Triplet-?Sym    2.5345 eV  489.18 nm  f=0.0000  <S**2>=2.000
     123 ->126        -0.24366
     124 ->126         0.12789
     124 ->127        -0.11477
     125 ->126         0.60250
     125 ->128         0.10059
 This state for optimization and/or second-order correction.
 Total Energy, E(TD-HF/TD-DFT) =  -1609.74566231
 Copying the excited state density for this state as the 1-particle RhoCI density.

 Excited state symmetry could not be determined.
 Excited State   2:      Triplet-?Sym    3.3303 eV  372.29 nm  f=0.0000  <S**2>=2.000
     124 ->126         0.62961
     124 ->127        -0.12481
     125 ->126        -0.14185
     125 ->127        -0.10770
     125 ->128        -0.13126

 Excited state symmetry could not be determined.
 Excited State   3:      Singlet-?Sym    3.5427 eV  349.97 nm  f=0.1580  <S**2>=0.000
     124 ->126        -0.12284
     125 ->126         0.68918

 Excited state symmetry could not be determined.
 Excited State   4:      Singlet-?Sym    3.8319 eV  323.56 nm  f=0.0793  <S**2>=0.000
     124 ->126         0.63515
     125 ->126         0.10171
     125 ->127         0.25090

 Alpha  occ. eigenvalues --  -24.69538 -24.68984 -19.12196 -14.40671 -14.39941
 Alpha  occ. eigenvalues --  -14.38307 -14.33870 -14.32085 -14.31259 -10.33855
 Alpha  occ. eigenvalues --  -10.30003 -10.25770 -10.25367 -10.25046 -10.23797
 Alpha  occ. eigenvalues --  -10.22971 -10.22740 -10.22571 -10.22566 -10.22274
 Alpha  occ. eigenvalues --  -10.21311 -10.21042 -10.20867 -10.20196 -10.20112
 Alpha  occ. eigenvalues --  -10.20065 -10.19717 -10.19666 -10.19546 -10.19494
 Alpha  occ. eigenvalues --  -10.19338 -10.19178 -10.18947 -10.18770 -10.18216
 Alpha  occ. eigenvalues --   -1.23216  -1.17456  -1.04839  -1.04048  -1.02585
 Alpha  occ. eigenvalues --   -0.95212  -0.94105  -0.89946  -0.86590  -0.85084
 Alpha  occ. eigenvalues --   -0.84017  -0.81457  -0.80238  -0.79705  -0.78119
 Alpha  occ. eigenvalues --   -0.76165  -0.75050  -0.72059  -0.71453  -0.70645
 Alpha  occ. eigenvalues --   -0.69761  -0.68960  -0.66545  -0.64497  -0.64061
 Alpha  occ. eigenvalues --   -0.61834  -0.61515  -0.60235  -0.58983  -0.57990
 Alpha  occ. eigenvalues --   -0.56769  -0.55694  -0.54836  -0.53523  -0.53421
 Alpha  occ. eigenvalues --   -0.52902  -0.52609  -0.51905  -0.50467  -0.50033
 Alpha  occ. eigenvalues --   -0.49305  -0.48527  -0.48185  -0.47973  -0.47528
 Alpha  occ. eigenvalues --   -0.46885  -0.46083  -0.45429  -0.44340  -0.43833
 Alpha  occ. eigenvalues --   -0.43427  -0.43233  -0.42914  -0.42609  -0.42033
 Alpha  occ. eigenvalues --   -0.41630  -0.41485  -0.41000  -0.40669  -0.40522
 Alpha  occ. eigenvalues --   -0.40124  -0.39873  -0.39617  -0.39435  -0.38871
 Alpha  occ. eigenvalues --   -0.38614  -0.38429  -0.38095  -0.37775  -0.37094
 Alpha  occ. eigenvalues --   -0.36872  -0.36516  -0.36174  -0.35201  -0.34284
 Alpha  occ. eigenvalues --   -0.33010  -0.31581  -0.30642  -0.30286  -0.28542
 Alpha  occ. eigenvalues --   -0.28154  -0.27305  -0.26534  -0.26017  -0.25309
 Alpha  occ. eigenvalues --   -0.24911  -0.24097  -0.23910  -0.21767  -0.20239
 Alpha virt. eigenvalues --   -0.05428  -0.02428   0.00346   0.00775   0.02231
 Alpha virt. eigenvalues --    0.02530   0.06216   0.06867   0.07434   0.08139
 Alpha virt. eigenvalues --    0.08874   0.09253   0.10422   0.10876   0.11297

 Mulliken charges:
               1
     1  C   -0.526144
     2  C    0.380998
     3  C   -0.096143
     4  C    0.234741
     5  N   -0.612582
     6  C    0.252531
     7  C   -0.146705
     8  C   -0.138729
     9  C   -0.215469
    10  C    0.079515
    11  C    0.086492
    12  N   -0.569484
    13  C    0.534971
    14  C   -0.190987
    15  C   -0.309524
    16  C   -0.304184
    17  N   -0.528492
    18  C    0.290702
    19  C   -0.193660
    20  N   -0.439688
    21  C   -0.324093
    22  C    0.603876
    23  O   -0.522176
    24  C   -0.077512
    25  C   -0.446266
    26  C    0.087133
    27  C   -0.190712
    28  C    0.006620
    29  C    0.405225
    30  F   -0.288466
    31  F   -0.289008
    32  C    0.002022
    33  N   -0.304643
    34  N   -0.298293
    35  C   -0.316505
    36  H    0.164969
    37  H    0.154331
    38  H    0.201140
    39  H    0.137745
    40  H    0.131899
    41  H    0.128387
    42  H    0.142753
    43  H    0.155758
    44  H    0.192408
    45  H    0.153264
    46  H    0.181733
    47  H    0.183353
    48  H    0.163982
    49  H    0.210232
    50  H    0.164506
    51  H    0.156669
    52  H    0.189688
    53  H    0.184379
    54  H    0.167321
    55  H    0.156904
    56  H    0.200503
    57  H    0.139240
    58  H    0.163913
    59  H    0.170518
    60  H    0.170255
    61  H    0.198791
 Sum of Mulliken charges =  -0.00000

 Dipole moment (field-independent basis, Debye):
    X=             -1.0323    Y=              2.7062    Z=             -3.7719  Tot=              4.7557
 Quadrupole moment (field-independent basis, Debye-Ang):
   XX=           -180.9964   YY=           -205.1884   ZZ=           -190.4629
   XY=              2.3501   XZ=             -6.9190   YZ=              8.9858

 Normal termination of Gaussian 16 at Sat Nov  5 12:13:30 2022.
