 Gaussian 16, Revision B.01,
 Gaussian 16:  ES64L-G16RevB.01 20-Dec-2017

 -----------------------------
 #p b3lyp/6-31g(d) opt SCF=XQC
 -----------------------------

 ------------------------------
 Gaussian input prepared by ASE
 ------------------------------
 Symbolic Z-matrix:
 Charge =  0 Multiplicity = 1

 SCF Done:  E(RB3LYP) =  -1722.58234805     A.U. after   15 cycles
 SCF Done:  E(RB3LYP) =  -1722.58704450     A.U. after   12 cycles
 SCF Done:  E(RB3LYP) =  -1722.58832487     A.U. after   11 cycles
 SCF Done:  E(RB3LYP) =  -1722.58873071     A.U. after   11 cycles
 SCF Done:  E(RB3LYP) =  -1722.58876685     A.U. after    9 cycles
 SCF Done:  E(RB3LYP) =  -1722.58877732     A.U. after    8 cycles
 SCF Done:  E(RB3LYP) =  -1722.58878360     A.U. after    9 cycles
 SCF Done:  E(RB3LYP) =  -1722.58878637     A.U. after    8 cycles
 SCF Done:  E(RB3LYP) =  -1722.58878738     A.U. after    8 cycles
 SCF Done:  E(RB3LYP) =  -1722.58878771     A.U. after    7 cycles
 SCF Done:  E(RB3LYP) =  -1722.58878783     A.U. after    7 cycles
 SCF Done:  E(RB3LYP) =  -1722.58878788     A.U. after    7 cycles
 SCF Done:  E(RB3LYP) =  -1722.58878791     A.U. after    7 cycles
 SCF Done:  E(RB3LYP) =  -1722.58878794     A.U. after    6 cycles
 SCF Done:  E(RB3LYP) =  -1722.58878795     A.U. after    6 cycles
 SCF Done:  E(RB3LYP) =  -1722.58878796     A.U. after    6 cycles
 Optimization completed.
    -- Stationary point found.

                         Standard orientation:
 ---------------------------------------------------------------------
 Center     Atomic      Atomic             Coordinates (Angstroms)
 Number     Number       Type             X           Y           Z
 ---------------------------------------------------------------------
      1          6           0        9.637361    2.601385    0.194420
      2          8           0        8.222720    2.557496    0.170342
      3          6           0        7.605312    1.338791    0.105515
      4          6           0        6.208462    1.389784    0.086623
      5          6           0        5.491559    0.191008    0.021360
      6          7           0        4.085294    0.127033   -0.002516
      7          6           0        3.200371    1.171995    0.029193
      8          8           0        3.476501    2.363403    0.084261
      9          7           0        1.844183    0.796634   -0.006903
     10          6           0        1.228939   -0.443744   -0.067030
     11          7           0        1.893497   -1.586986   -0.105944
     12          7           0        0.948142   -2.575029   -0.158882
     13          6           0       -0.322446   -2.072476   -0.155408
     14          6           0       -1.583571   -2.680354   -0.197315
     15          6           0       -2.702123   -1.857978   -0.177985
     16          6           0       -2.580760   -0.446778   -0.118140
     17          8           0       -3.652943    0.408018   -0.096137
     18          6           0       -4.962537   -0.135412   -0.141758
     19          6           0       -5.967463    0.993321   -0.119566
     20          6           0       -5.599603    2.338987   -0.135559
     21          6           0       -6.567371    3.346595   -0.108830
     22          6           0       -7.919485    3.013756   -0.080292
     23          6           0       -8.313596    1.673252   -0.078339
     24          6           0       -7.334225    0.681852   -0.084975
     25          8           0       -7.635178   -0.679077   -0.092988
     26          6           0       -8.767230   -1.097853    0.561372
     27          9           0       -8.621742   -2.416723    0.785268
     28          9           0       -9.869503   -0.935587   -0.225695
     29          6           0       -1.328087    0.156125   -0.076251
     30          6           0       -0.192313   -0.663681   -0.095046
     31          6           0        6.167135   -1.037546   -0.024122
     32          6           0        7.560243   -1.063110   -0.004207
     33          8           0        8.123178   -2.310191   -0.052344
     34          6           0        9.535596   -2.414024   -0.036907
     35          6           0        8.302557    0.123930    0.060940
     36          1           0       10.045970    2.083465    1.073037
     37          1           0       10.073952    2.164871   -0.714433
     38          1           0        9.903106    3.659145    0.246718
     39          1           0        5.702786    2.342845    0.122122
     40          1           0        3.677830   -0.804907   -0.048788
     41          1           0        1.242744    1.607684    0.018833
     42          1           0        1.253350   -3.533283   -0.197872
     43          1           0       -1.695259   -3.759378   -0.243594
     44          1           0       -3.682758   -2.317458   -0.209926
     45          1           0       -5.094608   -0.739702   -1.051550
     46          1           0       -5.130947   -0.805814    0.713466
     47          1           0       -4.545301    2.588061   -0.160706
     48          1           0       -6.260778    4.388442   -0.116705
     49          1           0       -8.677798    3.791424   -0.072408
     50          1           0       -9.363347    1.404571   -0.099164
     51          1           0       -8.934354   -0.566579    1.504344
     52          1           0       -1.266986    1.239276   -0.030443
     53          1           0        5.626874   -1.977572   -0.075108
     54          1           0        9.989614   -1.914053   -0.903243
     55          1           0        9.964168   -1.995774    0.883994
     56          1           0        9.757990   -3.482118   -0.082545
     57          1           0        9.382583    0.101933    0.076296
 ---------------------------------------------------------------------

 The electronic state is 1-A.
 Alpha  occ. eigenvalues --  -24.72358 -24.71844 -19.21182 -19.18740 -19.16953
 Alpha  occ. eigenvalues --  -19.16547 -19.10348 -14.40840 -14.37230 -14.36603
 Alpha  occ. eigenvalues --  -14.35633 -10.41109 -10.31313 -10.26791 -10.26615
 Alpha  occ. eigenvalues --  -10.25948 -10.25943 -10.23923 -10.23883 -10.23627
 Alpha  occ. eigenvalues --  -10.23625 -10.23277 -10.22438 -10.21381 -10.21244
 Alpha  occ. eigenvalues --  -10.20846 -10.20759 -10.20560 -10.20472 -10.20440
 Alpha  occ. eigenvalues --  -10.20103 -10.19896 -10.17100 -10.16569 -10.15600
 Alpha  occ. eigenvalues --   -1.27646  -1.20925  -1.09820  -1.07505  -1.05542
 Alpha  occ. eigenvalues --   -1.05517  -1.05144  -1.03964  -0.94232  -0.92150
 Alpha  occ. eigenvalues --   -0.87393  -0.86500  -0.83063  -0.82391  -0.79596
 Alpha  occ. eigenvalues --   -0.77223  -0.76710  -0.75405  -0.75206  -0.73484
 Alpha  occ. eigenvalues --   -0.71032  -0.70776  -0.69514  -0.67363  -0.65782
 Alpha  occ. eigenvalues --   -0.64935  -0.63605  -0.62583  -0.61936  -0.60256
 Alpha  occ. eigenvalues --   -0.59156  -0.58025  -0.57106  -0.56540  -0.56200
 Alpha  occ. eigenvalues --   -0.56101  -0.54620  -0.53723  -0.52839  -0.51374
 Alpha  occ. eigenvalues --   -0.49836  -0.49121  -0.48924  -0.48511  -0.47880
 Alpha  occ. eigenvalues --   -0.47495  -0.46848  -0.46447  -0.46299  -0.46129
 Alpha  occ. eigenvalues --   -0.46046  -0.45715  -0.45382  -0.44761  -0.44701
 Alpha  occ. eigenvalues --   -0.43563  -0.43234  -0.43031  -0.42853  -0.42264
 Alpha  occ. eigenvalues --   -0.41436  -0.41139  -0.40949  -0.39647  -0.39601
 Alpha  occ. eigenvalues --   -0.38476  -0.38135  -0.37825  -0.37543  -0.37452
 Alpha  occ. eigenvalues --   -0.37097  -0.36639  -0.35644  -0.34423  -0.34390
 Alpha  occ. eigenvalues --   -0.33796  -0.33420  -0.33314  -0.32157  -0.31677
 Alpha  occ. eigenvalues --   -0.31187  -0.31140  -0.26855  -0.26122  -0.25746
 Alpha  occ. eigenvalues --   -0.25711  -0.24671  -0.23889  -0.20600  -0.19797
 Alpha  occ. eigenvalues --   -0.19601
 Alpha virt. eigenvalues --   -0.04092  -0.01470  -0.00955   0.01313   0.01850
 Alpha virt. eigenvalues --    0.02917   0.05540   0.06962   0.07816   0.08332
 Alpha virt. eigenvalues --    0.09356   0.09812   0.10049   0.10314   0.11435

 Mulliken charges:
               1
     1  C   -0.209142
     2  O   -0.507289
     3  C    0.381193
     4  C   -0.235789
     5  C    0.384020
     6  N   -0.785926
     7  C    0.786168
     8  O   -0.528188
     9  N   -0.763624
    10  C    0.564512
    11  N   -0.401193
    12  N   -0.577783
    13  C    0.404147
    14  C   -0.160524
    15  C   -0.209787
    16  C    0.393322
    17  O   -0.542304
    18  C   -0.066468
    19  C    0.055573
    20  C   -0.176767
    21  C   -0.126993
    22  C   -0.137575
    23  C   -0.176637
    24  C    0.295386
    25  O   -0.518019
    26  C    0.604434
    27  F   -0.262275
    28  F   -0.274368
    29  C   -0.267428
    30  C    0.028635
    31  C   -0.279214
    32  C    0.391818
    33  O   -0.516760
    34  C   -0.209829
    35  C   -0.285506
    36  H    0.146827
    37  H    0.146865
    38  H    0.168140
    39  H    0.186436
    40  H    0.390589
    41  H    0.347764
    42  H    0.340884
    43  H    0.141583
    44  H    0.151538
    45  H    0.165808
    46  H    0.158815
    47  H    0.157247
    48  H    0.137551
    49  H    0.140025
    50  H    0.158054
    51  H    0.131411
    52  H    0.141550
    53  H    0.129010
    54  H    0.149103
    55  H    0.149032
    56  H    0.166039
    57  H    0.125909
 Sum of Mulliken charges =  -0.00000

 Dipole moment (field-independent basis, Debye):
    X=             -1.5540    Y=             -2.8645    Z=              0.7508  Tot=              3.3442
 Quadrupole moment (field-independent basis, Debye-Ang):
   XX=           -153.7571   YY=           -186.1569   ZZ=           -202.8274
   XY=            -23.9750   XZ=             -8.8601   YZ=              0.4372

 Normal termination of Gaussian 16 at Fri Nov  4 20:29:28 2022.
