 Gaussian 16, Revision B.01,
 Gaussian 16:  ES64L-G16RevB.01 20-Dec-2017

 -------------------------------------------------------------------
 #p b3lyp/6-31g(d) 6D 10F nosymm GFInput td=(50-50,nstate=2) SCF=XQC
 -------------------------------------------------------------------

 ------------------------------
 Gaussian input prepared by ASE
 ------------------------------
 Symbolic Z-matrix:
 Charge =  0 Multiplicity = 1

                          Input orientation:
 ---------------------------------------------------------------------
 Center     Atomic      Atomic             Coordinates (Angstroms)
 Number     Number       Type             X           Y           Z
 ---------------------------------------------------------------------
      1          6           0       -8.745396    2.913007    2.013085
      2          8           0       -7.412486    2.775249    1.556917
      3          6           0       -6.718371    1.645116    1.891044
      4          6           0       -5.411276    1.592986    1.398164
      5          6           0       -4.625645    0.473606    1.689796
      6          7           0       -3.299063    0.318117    1.244544
      7          6           0       -2.565110    1.189276    0.483996
      8          8           0       -2.934985    2.272569    0.049942
      9          7           0       -1.256778    0.759072    0.193071
     10          6           0       -0.564636   -0.392540    0.532792
     11          7           0       -1.082630   -1.367005    1.262350
     12          7           0       -0.104368   -2.316914    1.378127
     13          6           0        1.041842   -1.957428    0.727025
     14          6           0        2.281533   -2.589728    0.568692
     15          6           0        3.255321   -1.933951   -0.172611
     16          6           0        3.011194   -0.664268   -0.754077
     17          8           0        3.938220    0.023464   -1.494604
     18          6           0        5.219452   -0.552337   -1.692922
     19          6           0        6.062271    0.389832   -2.521404
     20          6           0        5.619522    1.649437   -2.926080
     21          6           0        6.435488    2.482312   -3.696197
     22          6           0        7.714144    2.064848   -4.057543
     23          6           0        8.185907    0.813655   -3.652284
     24          6           0        7.350829   -0.011752   -2.901662
     25          8           0        7.740663   -1.270403   -2.447138
     26          6           0        8.602069   -2.003847   -3.225047
     27          9           0        8.490766   -3.284552   -2.827405
     28          9           0        9.893523   -1.619906   -3.011636
     29          6           0        1.779789   -0.037132   -0.596662
     30          6           0        0.789532   -0.689478    0.149163
     31          6           0       -5.144990   -0.575020    2.463410
     32          6           0       -6.450928   -0.500438    2.943787
     33          8           0       -6.862713   -1.573420    3.687808
     34          6           0       -8.179026   -1.566807    4.210512
     35          6           0       -7.259336    0.610236    2.665900
     36          1           0       -9.393317    2.115287    1.624483
     37          1           0       -8.801897    2.918366    3.110331
     38          1           0       -9.094197    3.874961    1.632041
     39          1           0       -5.025654    2.407778    0.804277
     40          1           0       -2.829817   -0.542516    1.519860
     41          1           0       -0.767260    1.441261   -0.368340
     42          1           0       -0.301156   -3.150263    1.907021
     43          1           0        2.486021   -3.561771    1.007127
     44          1           0        4.218037   -2.413867   -0.301634
     45          1           0        5.707401   -0.742593   -0.725431
     46          1           0        5.130431   -1.523254   -2.201455
     47          1           0        4.624323    1.966610   -2.637630
     48          1           0        6.070783    3.457352   -4.005698
     49          1           0        8.358993    2.711974   -4.645137
     50          1           0        9.194428    0.497670   -3.892363
     51          1           0        8.387634   -1.916314   -4.295437
     52          1           0        1.622385    0.935012   -1.054052
     53          1           0       -4.549454   -1.451198    2.699587
     54          1           0       -8.339574   -0.724814    4.897473
     55          1           0       -8.933256   -1.527893    3.412835
     56          1           0       -8.287602   -2.503751    4.760707
     57          1           0       -8.271583    0.666107    3.039275
 ---------------------------------------------------------------------

 SCF Done:  E(RB3LYP) =  -1722.58879497     A.U. after   15 cycles

 Excitation energies and oscillator strengths:

 Excited state symmetry could not be determined.
 Excited State   1:      Triplet-?Sym    2.7125 eV  457.08 nm  f=0.0000  <S**2>=2.000
     118 ->127         0.14762
     124 ->127         0.36820
     125 ->127         0.55473
     126 ->127         0.10711
 This state for optimization and/or second-order correction.
 Total Energy, E(TD-HF/TD-DFT) =  -1722.48911182
 Copying the excited state density for this state as the 1-particle RhoCI density.

 Excited state symmetry could not be determined.
 Excited State   2:      Triplet-?Sym    3.6044 eV  343.98 nm  f=0.0000  <S**2>=2.000
     124 ->127         0.26013
     124 ->130        -0.29907
     125 ->127        -0.18901
     125 ->130         0.27500
     126 ->132         0.43848

 Excited state symmetry could not be determined.
 Excited State   3:      Singlet-?Sym    3.7904 eV  327.10 nm  f=0.1426  <S**2>=0.000
     125 ->127         0.67417
     126 ->127         0.17835

 Excited state symmetry could not be determined.
 Excited State   4:      Singlet-?Sym    3.8421 eV  322.70 nm  f=0.0014  <S**2>=0.000
     125 ->127        -0.17986
     126 ->127         0.68188

 Alpha  occ. eigenvalues --  -24.72358 -24.71844 -19.21182 -19.18740 -19.16953
 Alpha  occ. eigenvalues --  -19.16547 -19.10348 -14.40840 -14.37230 -14.36603
 Alpha  occ. eigenvalues --  -14.35633 -10.41109 -10.31313 -10.26791 -10.26615
 Alpha  occ. eigenvalues --  -10.25948 -10.25943 -10.23923 -10.23884 -10.23627
 Alpha  occ. eigenvalues --  -10.23625 -10.23277 -10.22438 -10.21381 -10.21244
 Alpha  occ. eigenvalues --  -10.20846 -10.20759 -10.20560 -10.20472 -10.20440
 Alpha  occ. eigenvalues --  -10.20103 -10.19896 -10.17100 -10.16569 -10.15600
 Alpha  occ. eigenvalues --   -1.27646  -1.20925  -1.09820  -1.07505  -1.05542
 Alpha  occ. eigenvalues --   -1.05517  -1.05144  -1.03964  -0.94232  -0.92150
 Alpha  occ. eigenvalues --   -0.87393  -0.86500  -0.83063  -0.82391  -0.79596
 Alpha  occ. eigenvalues --   -0.77223  -0.76710  -0.75405  -0.75206  -0.73484
 Alpha  occ. eigenvalues --   -0.71032  -0.70776  -0.69514  -0.67363  -0.65782
 Alpha  occ. eigenvalues --   -0.64935  -0.63605  -0.62583  -0.61936  -0.60256
 Alpha  occ. eigenvalues --   -0.59156  -0.58025  -0.57106  -0.56540  -0.56200
 Alpha  occ. eigenvalues --   -0.56101  -0.54620  -0.53723  -0.52839  -0.51374
 Alpha  occ. eigenvalues --   -0.49836  -0.49121  -0.48924  -0.48511  -0.47880
 Alpha  occ. eigenvalues --   -0.47495  -0.46848  -0.46447  -0.46299  -0.46129
 Alpha  occ. eigenvalues --   -0.46046  -0.45715  -0.45382  -0.44761  -0.44701
 Alpha  occ. eigenvalues --   -0.43563  -0.43234  -0.43031  -0.42853  -0.42264
 Alpha  occ. eigenvalues --   -0.41436  -0.41139  -0.40949  -0.39647  -0.39601
 Alpha  occ. eigenvalues --   -0.38476  -0.38135  -0.37825  -0.37543  -0.37452
 Alpha  occ. eigenvalues --   -0.37097  -0.36639  -0.35644  -0.34423  -0.34390
 Alpha  occ. eigenvalues --   -0.33796  -0.33420  -0.33314  -0.32157  -0.31677
 Alpha  occ. eigenvalues --   -0.31187  -0.31140  -0.26855  -0.26122  -0.25747
 Alpha  occ. eigenvalues --   -0.25711  -0.24671  -0.23889  -0.20600  -0.19797
 Alpha  occ. eigenvalues --   -0.19601
 Alpha virt. eigenvalues --   -0.04092  -0.01470  -0.00955   0.01313   0.01850
 Alpha virt. eigenvalues --    0.02917   0.05540   0.06962   0.07816   0.08332
 Alpha virt. eigenvalues --    0.09356   0.09812   0.10049   0.10314   0.11435

 Mulliken charges:
               1
     1  C   -0.209145
     2  O   -0.507286
     3  C    0.381181
     4  C   -0.235773
     5  C    0.384000
     6  N   -0.785910
     7  C    0.786157
     8  O   -0.528178
     9  N   -0.763630
    10  C    0.564498
    11  N   -0.401193
    12  N   -0.577784
    13  C    0.404155
    14  C   -0.160525
    15  C   -0.209788
    16  C    0.393322
    17  O   -0.542299
    18  C   -0.066479
    19  C    0.055573
    20  C   -0.176758
    21  C   -0.126992
    22  C   -0.137580
    23  C   -0.176646
    24  C    0.295389
    25  O   -0.518016
    26  C    0.604438
    27  F   -0.262277
    28  F   -0.274370
    29  C   -0.267430
    30  C    0.028644
    31  C   -0.279215
    32  C    0.391793
    33  O   -0.516754
    34  C   -0.209829
    35  C   -0.285482
    36  H    0.146827
    37  H    0.146867
    38  H    0.168140
    39  H    0.186434
    40  H    0.390588
    41  H    0.347764
    42  H    0.340884
    43  H    0.141583
    44  H    0.151539
    45  H    0.165811
    46  H    0.158818
    47  H    0.157249
    48  H    0.137551
    49  H    0.140026
    50  H    0.158054
    51  H    0.131412
    52  H    0.141548
    53  H    0.129011
    54  H    0.149104
    55  H    0.149034
    56  H    0.166039
    57  H    0.125910
 Sum of Mulliken charges =  -0.00000

 Dipole moment (field-independent basis, Debye):
    X=              1.4123    Y=             -3.0313    Z=             -0.0132  Tot=              3.3442
 Quadrupole moment (field-independent basis, Debye-Ang):
   XX=           -167.6879   YY=           -191.1592   ZZ=           -181.7451
   XY=             10.8581   XZ=            -29.9394   YZ=             -9.7784

 Normal termination of Gaussian 16 at Sat Nov  5 12:08:39 2022.
