 Gaussian 16, Revision B.01,
 Gaussian 16:  ES64L-G16RevB.01 20-Dec-2017

 -------------------------------------------------------------------
 #p b3lyp/6-31g(d) 6D 10F nosymm GFInput td=(50-50,nstate=2) SCF=XQC
 -------------------------------------------------------------------

 ------------------------------
 Gaussian input prepared by ASE
 ------------------------------
 Symbolic Z-matrix:
 Charge =  0 Multiplicity = 1

                          Input orientation:
 ---------------------------------------------------------------------
 Center     Atomic      Atomic             Coordinates (Angstroms)
 Number     Number       Type             X           Y           Z
 ---------------------------------------------------------------------
      1          6           0       -0.412144   -1.492166   -1.307946
      2          8           0       -1.656414   -2.153024   -1.208287
      3          6           0       -2.235085   -2.088402    0.101766
      4          6           0       -2.869433   -0.734873    0.383666
      5          6           0       -2.300250    0.245006    1.233253
      6          6           0       -1.050972   -0.020002    2.032260
      7          8           0       -0.815967   -1.087852    2.595466
      8          7           0       -0.189650    1.044096    2.124118
      9          6           0        1.036945    0.977957    2.911060
     10          6           0        2.240966    0.384534    2.164121
     11          6           0        2.687488    1.212469    0.944009
     12          6           0        3.898812    0.634793    0.240964
     13          6           0        5.172596    1.170265    0.455519
     14          6           0        6.325049    0.637040   -0.152376
     15          6           0        6.145231   -0.453196   -0.977767
     16          6           0        4.882075   -0.996805   -1.202164
     17          6           0        3.746472   -0.479836   -0.615031
     18          8           0        4.982088   -2.045825   -2.086881
     19          6           0        6.386096   -2.266140   -2.260926
     20          8           0        7.082963   -1.141807   -1.714056
     21          6           0       -2.945364    1.477766    1.384471
     22          6           0       -4.136132    1.768202    0.719805
     23          6           0       -4.706355    0.811055   -0.120536
     24          8           0       -5.869529    0.973469   -0.808726
     25          6           0       -6.581998    2.190222   -0.643165
     26          6           0       -4.062359   -0.436544   -0.287243
     27          8           0       -4.668137   -1.400671   -1.050658
     28          6           0       -4.535638   -1.249703   -2.469911
     29          1           0       -0.050472   -1.646155   -2.328610
     30          1           0       -0.495816   -0.409619   -1.123005
     31          1           0        0.322678   -1.908917   -0.600394
     32          1           0       -3.012712   -2.854056    0.103526
     33          1           0       -1.490504   -2.331036    0.863392
     34          1           0       -0.349436    1.844049    1.530022
     35          1           0        0.818542    0.364442    3.788911
     36          1           0        1.266107    1.993980    3.256180
     37          1           0        1.991142   -0.637055    1.855462
     38          1           0        3.077656    0.304372    2.870888
     39          1           0        2.911397    2.238312    1.267342
     40          1           0        1.851197    1.283045    0.235048
     41          1           0        5.280244    2.028445    1.113897
     42          1           0        7.308023    1.064320    0.014437
     43          1           0        2.771056   -0.916400   -0.807206
     44          1           0        6.611183   -2.349726   -3.327811
     45          1           0        6.682823   -3.178891   -1.724187
     46          1           0       -2.535260    2.217258    2.066108
     47          1           0       -4.617490    2.726214    0.879355
     48          1           0       -5.993193    3.053035   -0.981773
     49          1           0       -6.878383    2.342492    0.402643
     50          1           0       -7.475946    2.097718   -1.262157
     51          1           0       -5.100378   -2.074236   -2.910978
     52          1           0       -4.960778   -0.298012   -2.806870
     53          1           0       -3.483030   -1.328363   -2.759025
 ---------------------------------------------------------------------

 SCF Done:  E(RB3LYP) =  -1321.33276376     A.U. after   15 cycles

 Excitation energies and oscillator strengths:

 Excited state symmetry could not be determined.
 Excited State   1:      Triplet-?Sym    3.4610 eV  358.23 nm  f=0.0000  <S**2>=2.000
      98 ->105        -0.14398
      99 ->104        -0.10186
      99 ->105        -0.17298
     101 ->104         0.12691
     101 ->105         0.17291
     102 ->104         0.51975
     102 ->105        -0.27450
     102 ->108         0.12809
 This state for optimization and/or second-order correction.
 Total Energy, E(TD-HF/TD-DFT) =  -1321.20557304
 Copying the excited state density for this state as the 1-particle RhoCI density.

 Excited state symmetry could not be determined.
 Excited State   2:      Triplet-?Sym    3.5751 eV  346.80 nm  f=0.0000  <S**2>=2.000
      98 ->106         0.10461
      99 ->106        -0.11512
     100 ->106         0.31442
     103 ->107         0.58951

 Excited state symmetry could not be determined.
 Excited State   3:      Singlet-?Sym    4.6092 eV  269.00 nm  f=0.0170  <S**2>=0.000
     103 ->104         0.70490

 Excited state symmetry could not be determined.
 Excited State   4:      Singlet-?Sym    4.7459 eV  261.25 nm  f=0.0029  <S**2>=0.000
      97 ->104        -0.19276
      99 ->104         0.18941
     101 ->104         0.58950
     102 ->105        -0.21039

 Alpha  occ. eigenvalues --  -19.19075 -19.19041 -19.18764 -19.15465 -19.13966
 Alpha  occ. eigenvalues --  -19.10800 -14.35871 -10.30491 -10.28500 -10.25475
 Alpha  occ. eigenvalues --  -10.24886 -10.24671 -10.24525 -10.24035 -10.22127
 Alpha  occ. eigenvalues --  -10.21932 -10.21877 -10.21548 -10.19983 -10.19926
 Alpha  occ. eigenvalues --  -10.19785 -10.19704 -10.19630 -10.19414 -10.19191
 Alpha  occ. eigenvalues --  -10.19157 -10.18777 -10.18492  -1.12355  -1.07673
 Alpha  occ. eigenvalues --   -1.03911  -1.03226  -1.02705  -1.01678  -0.91829
 Alpha  occ. eigenvalues --   -0.86026  -0.85638  -0.79779  -0.77340  -0.76603
 Alpha  occ. eigenvalues --   -0.75385  -0.74886  -0.71775  -0.70721  -0.69615
 Alpha  occ. eigenvalues --   -0.67637  -0.66244  -0.64025  -0.62754  -0.62041
 Alpha  occ. eigenvalues --   -0.60641  -0.59176  -0.58373  -0.57165  -0.53707
 Alpha  occ. eigenvalues --   -0.52513  -0.52046  -0.51788  -0.51518  -0.50937
 Alpha  occ. eigenvalues --   -0.48775  -0.48546  -0.47947  -0.46947  -0.46441
 Alpha  occ. eigenvalues --   -0.45945  -0.45474  -0.44843  -0.44360  -0.44332
 Alpha  occ. eigenvalues --   -0.43964  -0.43272  -0.43168  -0.42483  -0.41648
 Alpha  occ. eigenvalues --   -0.40789  -0.40456  -0.39606  -0.39022  -0.38841
 Alpha  occ. eigenvalues --   -0.38479  -0.38027  -0.37676  -0.36842  -0.36369
 Alpha  occ. eigenvalues --   -0.36125  -0.35495  -0.35302  -0.34826  -0.34471
 Alpha  occ. eigenvalues --   -0.33566  -0.32754  -0.32124  -0.30509  -0.30330
 Alpha  occ. eigenvalues --   -0.26789  -0.25922  -0.24845  -0.24698  -0.24112
 Alpha  occ. eigenvalues --   -0.23614  -0.22038  -0.20320
 Alpha virt. eigenvalues --   -0.02056  -0.00989   0.00070   0.01347   0.05541
 Alpha virt. eigenvalues --    0.06798   0.08029   0.08614   0.09492   0.09809
 Alpha virt. eigenvalues --    0.11061   0.11306   0.11606   0.11886   0.13033

 Mulliken charges:
               1
     1  C   -0.204507
     2  O   -0.457639
     3  C   -0.121520
     4  C    0.062785
     5  C    0.007333
     6  C    0.536010
     7  O   -0.524022
     8  N   -0.593679
     9  C   -0.135145
    10  C   -0.251140
    11  C   -0.356044
    12  C    0.161618
    13  C   -0.202342
    14  C   -0.182175
    15  C    0.328965
    16  C    0.330912
    17  C   -0.237934
    18  O   -0.532219
    19  C    0.191575
    20  O   -0.531298
    21  C   -0.191900
    22  C   -0.207903
    23  C    0.368283
    24  O   -0.501074
    25  C   -0.217904
    26  C    0.261747
    27  O   -0.522087
    28  C   -0.213534
    29  H    0.155467
    30  H    0.125387
    31  H    0.139366
    32  H    0.164075
    33  H    0.179839
    34  H    0.324223
    35  H    0.181061
    36  H    0.136453
    37  H    0.165848
    38  H    0.140399
    39  H    0.132758
    40  H    0.138642
    41  H    0.122027
    42  H    0.143025
    43  H    0.145056
    44  H    0.164613
    45  H    0.153402
    46  H    0.133231
    47  H    0.136885
    48  H    0.152084
    49  H    0.157283
    50  H    0.175033
    51  H    0.157015
    52  H    0.146614
    53  H    0.165048
 Sum of Mulliken charges =  -0.00000

 Dipole moment (field-independent basis, Debye):
    X=              0.0624    Y=              5.0988    Z=             -1.2131  Tot=              5.2415
 Quadrupole moment (field-independent basis, Debye-Ang):
   XX=           -147.4273   YY=           -154.5695   ZZ=           -163.0246
   XY=            -21.2453   XZ=              4.5444   YZ=             10.1620

 Normal termination of Gaussian 16 at Sat Nov  5 11:57:25 2022.
