 Gaussian 16, Revision B.01,
 Gaussian 16:  ES64L-G16RevB.01 20-Dec-2017

 -----------------------------
 #p b3lyp/6-31g(d) opt SCF=XQC
 -----------------------------

 ------------------------------
 Gaussian input prepared by ASE
 ------------------------------
 Symbolic Z-matrix:
 Charge =  0 Multiplicity = 1

 SCF Done:  E(RB3LYP) =  -1321.32645189     A.U. after   15 cycles
 SCF Done:  E(RB3LYP) =  -1321.33141096     A.U. after   13 cycles
 SCF Done:  E(RB3LYP) =  -1321.33178056     A.U. after   12 cycles
 SCF Done:  E(RB3LYP) =  -1321.33238737     A.U. after   12 cycles
 SCF Done:  E(RB3LYP) =  -1321.33249157     A.U. after   11 cycles
 SCF Done:  E(RB3LYP) =  -1321.33252963     A.U. after   11 cycles
 SCF Done:  E(RB3LYP) =  -1321.33255797     A.U. after   10 cycles
 SCF Done:  E(RB3LYP) =  -1321.33259818     A.U. after   11 cycles
 SCF Done:  E(RB3LYP) =  -1321.33261254     A.U. after   11 cycles
 SCF Done:  E(RB3LYP) =  -1321.33263026     A.U. after   11 cycles
 SCF Done:  E(RB3LYP) =  -1321.33271878     A.U. after   11 cycles
 SCF Done:  E(RB3LYP) =  -1321.33273132     A.U. after    9 cycles
 SCF Done:  E(RB3LYP) =  -1321.33274678     A.U. after   10 cycles
 SCF Done:  E(RB3LYP) =  -1321.33274389     A.U. after   11 cycles
 SCF Done:  E(RB3LYP) =  -1321.33275129     A.U. after   11 cycles
 SCF Done:  E(RB3LYP) =  -1321.33275681     A.U. after   10 cycles
 SCF Done:  E(RB3LYP) =  -1321.33275862     A.U. after    9 cycles
 SCF Done:  E(RB3LYP) =  -1321.33275981     A.U. after    9 cycles
 SCF Done:  E(RB3LYP) =  -1321.33275984     A.U. after    6 cycles
 SCF Done:  E(RB3LYP) =  -1321.33275986     A.U. after    6 cycles
 Optimization completed.
    -- Stationary point found.

                         Standard orientation:
 ---------------------------------------------------------------------
 Center     Atomic      Atomic             Coordinates (Angstroms)
 Number     Number       Type             X           Y           Z
 ---------------------------------------------------------------------
      1          6           0        0.353758    1.861948    0.289347
      2          8           0        1.538449    2.295329    0.924614
      3          6           0        2.185407    1.269789    1.689458
      4          6           0        2.949750    0.292368    0.809497
      5          6           0        2.512273   -1.023701    0.522255
      6          6           0        1.286082   -1.615569    1.166837
      7          8           0        0.986478   -1.443765    2.347282
      8          7           0        0.527455   -2.407504    0.342251
      9          6           0       -0.659267   -3.107062    0.822352
     10          6           0       -1.946724   -2.269578    0.793842
     11          6           0       -2.379142   -1.838997   -0.620777
     12          6           0       -3.670281   -1.046512   -0.635522
     13          6           0       -4.879643   -1.656958   -0.982062
     14          6           0       -6.103537   -0.961259   -0.972187
     15          6           0       -6.061926    0.365598   -0.598098
     16          6           0       -4.864347    0.987757   -0.251471
     17          6           0       -3.659687    0.316739   -0.261666
     18          8           0       -5.100471    2.310946    0.042780
     19          6           0       -6.525367    2.450767    0.056555
     20          8           0       -7.092309    1.276551   -0.533878
     21          6           0        3.270156   -1.823816   -0.340396
     22          6           0        4.447099   -1.359370   -0.926190
     23          6           0        4.888075   -0.064196   -0.651378
     24          8           0        6.025120    0.493222   -1.150750
     25          6           0        6.849319   -0.302408   -1.989307
     26          6           0        4.129224    0.757236    0.213735
     27          8           0        4.608807    1.998805    0.542086
     28          6           0        4.419239    3.023193   -0.442453
     29          1           0       -0.070698    2.731467   -0.220604
     30          1           0        0.541551    1.072961   -0.455868
     31          1           0       -0.378555    1.481706    1.019693
     32          1           0        2.891727    1.800409    2.330151
     33          1           0        1.461417    0.741160    2.313748
     34          1           0        0.727099   -2.400950   -0.646943
     35          1           0       -0.452053   -3.415729    1.850218
     36          1           0       -0.780541   -4.012467    0.214519
     37          1           0       -1.803560   -1.387871    1.428997
     38          1           0       -2.750793   -2.860740    1.252096
     39          1           0       -2.495415   -2.732502   -1.249397
     40          1           0       -1.576424   -1.240375   -1.072756
     41          1           0       -4.878240   -2.705125   -1.269925
     42          1           0       -7.035496   -1.441762   -1.250035
     43          1           0       -2.737332    0.822259    0.007905
     44          1           0       -6.810057    3.327449   -0.531896
     45          1           0       -6.874049    2.544740    1.095228
     46          1           0        2.961373   -2.847362   -0.531892
     47          1           0        5.018300   -2.016411   -1.571928
     48          1           0        6.322543   -0.606211   -2.903639
     49          1           0        7.209932   -1.196944   -1.465370
     50          1           0        7.699547    0.328016   -2.254884
     51          1           0        4.886418    3.921093   -0.031545
     52          1           0        4.909101    2.759105   -1.386007
     53          1           0        3.350646    3.202088   -0.596934
 ---------------------------------------------------------------------

 The electronic state is 1-A.
 Alpha  occ. eigenvalues --  -19.19075 -19.19041 -19.18764 -19.15465 -19.13966
 Alpha  occ. eigenvalues --  -19.10800 -14.35870 -10.30491 -10.28500 -10.25475
 Alpha  occ. eigenvalues --  -10.24886 -10.24671 -10.24525 -10.24035 -10.22127
 Alpha  occ. eigenvalues --  -10.21932 -10.21877 -10.21548 -10.19983 -10.19926
 Alpha  occ. eigenvalues --  -10.19785 -10.19704 -10.19630 -10.19414 -10.19191
 Alpha  occ. eigenvalues --  -10.19157 -10.18777 -10.18492  -1.12355  -1.07673
 Alpha  occ. eigenvalues --   -1.03912  -1.03226  -1.02705  -1.01678  -0.91829
 Alpha  occ. eigenvalues --   -0.86026  -0.85638  -0.79779  -0.77340  -0.76603
 Alpha  occ. eigenvalues --   -0.75385  -0.74886  -0.71775  -0.70721  -0.69615
 Alpha  occ. eigenvalues --   -0.67638  -0.66244  -0.64025  -0.62754  -0.62041
 Alpha  occ. eigenvalues --   -0.60641  -0.59176  -0.58373  -0.57165  -0.53707
 Alpha  occ. eigenvalues --   -0.52513  -0.52046  -0.51788  -0.51518  -0.50937
 Alpha  occ. eigenvalues --   -0.48775  -0.48546  -0.47947  -0.46947  -0.46441
 Alpha  occ. eigenvalues --   -0.45945  -0.45474  -0.44843  -0.44360  -0.44332
 Alpha  occ. eigenvalues --   -0.43964  -0.43272  -0.43168  -0.42483  -0.41648
 Alpha  occ. eigenvalues --   -0.40789  -0.40456  -0.39606  -0.39022  -0.38841
 Alpha  occ. eigenvalues --   -0.38479  -0.38027  -0.37676  -0.36842  -0.36369
 Alpha  occ. eigenvalues --   -0.36125  -0.35495  -0.35302  -0.34826  -0.34471
 Alpha  occ. eigenvalues --   -0.33566  -0.32754  -0.32124  -0.30509  -0.30330
 Alpha  occ. eigenvalues --   -0.26789  -0.25922  -0.24845  -0.24698  -0.24112
 Alpha  occ. eigenvalues --   -0.23614  -0.22038  -0.20320
 Alpha virt. eigenvalues --   -0.02056  -0.00989   0.00070   0.01347   0.05541
 Alpha virt. eigenvalues --    0.06798   0.08029   0.08614   0.09491   0.09809
 Alpha virt. eigenvalues --    0.11061   0.11306   0.11606   0.11886   0.13033

 Mulliken charges:
               1
     1  C   -0.204513
     2  O   -0.457638
     3  C   -0.121511
     4  C    0.062791
     5  C    0.007340
     6  C    0.536003
     7  O   -0.524016
     8  N   -0.593678
     9  C   -0.135125
    10  C   -0.251149
    11  C   -0.356049
    12  C    0.161654
    13  C   -0.202347
    14  C   -0.182179
    15  C    0.328986
    16  C    0.330901
    17  C   -0.237961
    18  O   -0.532218
    19  C    0.191575
    20  O   -0.531306
    21  C   -0.191912
    22  C   -0.207883
    23  C    0.368254
    24  O   -0.501066
    25  C   -0.217902
    26  C    0.261738
    27  O   -0.522085
    28  C   -0.213540
    29  H    0.155469
    30  H    0.125391
    31  H    0.139363
    32  H    0.164073
    33  H    0.179837
    34  H    0.324223
    35  H    0.181059
    36  H    0.136447
    37  H    0.165852
    38  H    0.140398
    39  H    0.132758
    40  H    0.138640
    41  H    0.122027
    42  H    0.143026
    43  H    0.145060
    44  H    0.164614
    45  H    0.153402
    46  H    0.133233
    47  H    0.136884
    48  H    0.152084
    49  H    0.157283
    50  H    0.175032
    51  H    0.157015
    52  H    0.146614
    53  H    0.165054
 Sum of Mulliken charges =  -0.00000

 Dipole moment (field-independent basis, Debye):
    X=              0.3260    Y=             -2.1032    Z=             -4.7899  Tot=              5.2415
 Quadrupole moment (field-independent basis, Debye-Ang):
   XX=           -144.0721   YY=           -151.3859   ZZ=           -167.8420
   XY=             -9.2947   XZ=            -20.0211   YZ=              5.4105

 Normal termination of Gaussian 16 at Fri Nov  4 20:08:53 2022.
