 Gaussian 16, Revision B.01,
 Gaussian 16:  ES64L-G16RevB.01 20-Dec-2017

 -------------------------------------------------------------------
 #p b3lyp/6-31g(d) 6D 10F nosymm GFInput td=(50-50,nstate=2) SCF=XQC
 -------------------------------------------------------------------

 ------------------------------
 Gaussian input prepared by ASE
 ------------------------------
 Symbolic Z-matrix:
 Charge =  0 Multiplicity = 1

                          Input orientation:
 ---------------------------------------------------------------------
 Center     Atomic      Atomic             Coordinates (Angstroms)
 Number     Number       Type             X           Y           Z
 ---------------------------------------------------------------------
      1          6           0       -6.167496    0.149307   -0.580290
      2          6           0       -5.550826   -0.762199    0.469792
      3          8           0       -4.114577   -0.566896    0.545012
      4          6           0       -3.361443   -1.227963   -0.358183
      5          8           0       -3.800101   -2.058765   -1.127674
      6          6           0       -1.908988   -0.867907   -0.275262
      7          6           0       -1.015388   -1.857497   -0.709351
      8          6           0        0.356439   -1.655602   -0.671345
      9          6           0        0.863635   -0.433232   -0.207957
     10          6           0        2.307232   -0.226006   -0.168930
     11          7           0        3.235390   -1.066847   -0.518305
     12          6           0        4.427631   -0.387176   -0.289847
     13          6           0        5.760158   -0.769360   -0.474217
     14          6           0        6.743130    0.161391   -0.143364
     15          6           0        6.415720    1.436530    0.356694
     16          6           0        5.089501    1.832322    0.546163
     17          6           0        4.130043    0.889591    0.210124
     18          8           0        2.764176    0.992771    0.288128
     19          6           0       -0.023531    0.572856    0.200881
     20          6           0       -1.402232    0.370733    0.174146
     21          6           0       -2.307795    1.516231    0.585091
     22          9           0       -1.565514    2.625634    0.891018
     23          9           0       -3.129419    1.857166   -0.460953
     24          1           0       -5.840129   -0.141037   -1.582511
     25          1           0       -7.260213    0.076097   -0.540033
     26          1           0       -5.877830    1.189740   -0.405466
     27          1           0       -5.903394   -0.518835    1.474760
     28          1           0       -5.749281   -1.815379    0.259316
     29          1           0       -1.426697   -2.791041   -1.077556
     30          1           0        1.045622   -2.427696   -0.995630
     31          1           0        6.008106   -1.752787   -0.860046
     32          1           0        7.789425   -0.099667   -0.273311
     33          1           0        7.213964    2.131130    0.601513
     34          1           0        4.825839    2.811843    0.930167
     35          1           0        0.365711    1.523954    0.539317
     36          1           0       -2.936870    1.288598    1.445878
 ---------------------------------------------------------------------

 SCF Done:  E(RB3LYP) =  -1135.76876337     A.U. after   15 cycles

 Excitation energies and oscillator strengths:

 Excited state symmetry could not be determined.
 Excited State   1:      Triplet-?Sym    2.6680 eV  464.70 nm  f=0.0000  <S**2>=2.000
      78 -> 83        -0.11703
      79 -> 83         0.11754
      80 -> 84        -0.10354
      82 -> 83         0.65048
 This state for optimization and/or second-order correction.
 Total Energy, E(TD-HF/TD-DFT) =  -1135.67071533
 Copying the excited state density for this state as the 1-particle RhoCI density.

 Excited state symmetry could not be determined.
 Excited State   2:      Triplet-?Sym    3.5101 eV  353.22 nm  f=0.0000  <S**2>=2.000
      78 -> 83         0.16513
      79 -> 83        -0.22661
      80 -> 84         0.11265
      81 -> 83         0.47058
      81 -> 84        -0.11335
      81 -> 85         0.23779
      81 -> 86        -0.14585
      82 -> 84        -0.13793
      82 -> 85         0.19343

 Excited state symmetry could not be determined.
 Excited State   3:      Singlet-?Sym    3.8658 eV  320.72 nm  f=0.8051  <S**2>=0.000
      82 -> 83         0.70170

 Excited state symmetry could not be determined.
 Excited State   4:      Singlet-?Sym    4.1902 eV  295.89 nm  f=0.0082  <S**2>=0.000
      81 -> 83         0.69430

 Alpha  occ. eigenvalues --  -24.70555 -24.69955 -19.23100 -19.19949 -19.14315
 Alpha  occ. eigenvalues --  -14.34135 -10.34940 -10.32648 -10.29526 -10.25570
 Alpha  occ. eigenvalues --  -10.24982 -10.22855 -10.22631 -10.22619 -10.22582
 Alpha  occ. eigenvalues --  -10.21389 -10.21171 -10.21106 -10.20760 -10.20388
 Alpha  occ. eigenvalues --  -10.20218 -10.19969 -10.18511  -1.24347  -1.18620
 Alpha  occ. eigenvalues --   -1.13573  -1.10857  -1.02136  -0.93586  -0.88812
 Alpha  occ. eigenvalues --   -0.86083  -0.80993  -0.78387  -0.77540  -0.75956
 Alpha  occ. eigenvalues --   -0.74431  -0.70320  -0.68424  -0.65528  -0.63418
 Alpha  occ. eigenvalues --   -0.61622  -0.61027  -0.59697  -0.57424  -0.55256
 Alpha  occ. eigenvalues --   -0.54454  -0.53820  -0.52415  -0.51974  -0.51142
 Alpha  occ. eigenvalues --   -0.48828  -0.48693  -0.48499  -0.47579  -0.46117
 Alpha  occ. eigenvalues --   -0.45454  -0.45432  -0.44965  -0.43714  -0.41743
 Alpha  occ. eigenvalues --   -0.41643  -0.41264  -0.40692  -0.39667  -0.39468
 Alpha  occ. eigenvalues --   -0.39086  -0.38317  -0.38011  -0.37767  -0.37122
 Alpha  occ. eigenvalues --   -0.36217  -0.36040  -0.34798  -0.33946  -0.33387
 Alpha  occ. eigenvalues --   -0.30617  -0.29778  -0.29058  -0.28012  -0.27318
 Alpha  occ. eigenvalues --   -0.25133  -0.23115
 Alpha virt. eigenvalues --   -0.07859  -0.02744  -0.01516   0.00264   0.02287
 Alpha virt. eigenvalues --    0.06778   0.08753   0.09957   0.10873   0.11554
 Alpha virt. eigenvalues --    0.12443   0.13272   0.13740   0.14347   0.15139

 Mulliken charges:
               1
     1  C   -0.464558
     2  C   -0.048324
     3  O   -0.477931
     4  C    0.580526
     5  O   -0.480785
     6  C    0.053151
     7  C   -0.170926
     8  C   -0.158187
     9  C    0.089177
    10  C    0.492157
    11  N   -0.538972
    12  C    0.250671
    13  C   -0.170860
    14  C   -0.142941
    15  C   -0.143955
    16  C   -0.184169
    17  C    0.337515
    18  O   -0.526892
    19  C   -0.228806
    20  C   -0.012800
    21  C    0.440966
    22  F   -0.287776
    23  F   -0.288992
    24  H    0.178746
    25  H    0.151144
    26  H    0.168125
    27  H    0.154603
    28  H    0.175832
    29  H    0.172639
    30  H    0.176328
    31  H    0.149507
    32  H    0.136686
    33  H    0.138839
    34  H    0.152239
    35  H    0.179310
    36  H    0.148712
 Sum of Mulliken charges =  -0.00000

 Dipole moment (field-independent basis, Debye):
    X=              0.5581    Y=              0.5420    Z=              1.9598  Tot=              2.1086
 Quadrupole moment (field-independent basis, Debye-Ang):
   XX=           -102.0498   YY=           -131.0048   ZZ=           -131.1757
   XY=              3.2097   XZ=             -6.4378   YZ=              0.1564

 Normal termination of Gaussian 16 at Sat Nov  5 12:00:24 2022.
