 Gaussian 16, Revision B.01,
 Gaussian 16:  ES64L-G16RevB.01 20-Dec-2017

 -----------------------------
 #p b3lyp/6-31g(d) opt SCF=XQC
 -----------------------------

 ------------------------------
 Gaussian input prepared by ASE
 ------------------------------
 Symbolic Z-matrix:
 Charge =  0 Multiplicity = 1

 SCF Done:  E(RB3LYP) =  -1135.76437624     A.U. after   15 cycles
 SCF Done:  E(RB3LYP) =  -1135.76812724     A.U. after   12 cycles
 SCF Done:  E(RB3LYP) =  -1135.76750422     A.U. after   13 cycles
 SCF Done:  E(RB3LYP) =  -1135.76843600     A.U. after   12 cycles
 SCF Done:  E(RB3LYP) =  -1135.76870274     A.U. after   11 cycles
 SCF Done:  E(RB3LYP) =  -1135.76875225     A.U. after   10 cycles
 SCF Done:  E(RB3LYP) =  -1135.76876256     A.U. after   10 cycles
 SCF Done:  E(RB3LYP) =  -1135.76876354     A.U. after    8 cycles
 SCF Done:  E(RB3LYP) =  -1135.76876369     A.U. after    6 cycles
 SCF Done:  E(RB3LYP) =  -1135.76876372     A.U. after    7 cycles
 SCF Done:  E(RB3LYP) =  -1135.76876373     A.U. after    6 cycles
 Optimization completed.
    -- Stationary point found.

                         Standard orientation:
 ---------------------------------------------------------------------
 Center     Atomic      Atomic             Coordinates (Angstroms)
 Number     Number       Type             X           Y           Z
 ---------------------------------------------------------------------
      1          6           0       -6.262521    0.333535   -0.559527
      2          6           0       -5.692784   -0.257637    0.720986
      3          8           0       -4.245989   -0.144199    0.743967
      4          6           0       -3.549557   -1.095127    0.087689
      5          8           0       -4.051579   -2.088351   -0.398366
      6          6           0       -2.075747   -0.823733    0.068419
      7          6           0       -1.254387   -1.954991   -0.040508
      8          6           0        0.128068   -1.842243   -0.055451
      9          6           0        0.719965   -0.573401    0.021118
     10          6           0        2.174391   -0.460022    0.006049
     11          7           0        3.041052   -1.426539   -0.066749
     12          6           0        4.277986   -0.790043   -0.045550
     13          6           0        5.580206   -1.297299   -0.096553
     14          6           0        6.626060   -0.377269   -0.054973
     15          6           0        6.389125    1.008030    0.034710
     16          6           0        5.094155    1.529350    0.086512
     17          6           0        4.070913    0.594806    0.043771
     18          8           0        2.715830    0.806818    0.077311
     19          6           0       -0.094233    0.565511    0.101039
     20          6           0       -1.483412    0.456397    0.126748
     21          6           0       -2.306849    1.729763    0.166485
     22          9           0       -1.489833    2.828127    0.128688
     23          9           0       -3.118237    1.793003   -0.939481
     24          1           0       -5.968047   -0.266469   -1.425090
     25          1           0       -7.357059    0.348321   -0.506816
     26          1           0       -5.903345    1.356708   -0.704718
     27          1           0       -6.015431    0.300175    1.603162
     28          1           0       -5.962253   -1.309718    0.836678
     29          1           0       -1.730520   -2.926755   -0.112796
     30          1           0        0.761096   -2.719997   -0.126769
     31          1           0        5.758384   -2.365434   -0.165912
     32          1           0        7.651298   -0.733971   -0.092668
     33          1           0        7.234126    1.689722    0.064206
     34          1           0        4.900018    2.594259    0.155199
     35          1           0        0.360633    1.546455    0.139493
     36          1           0       -2.938006    1.814398    1.051350
 ---------------------------------------------------------------------

 The electronic state is 1-A.
 Alpha  occ. eigenvalues --  -24.70555 -24.69956 -19.23100 -19.19949 -19.14315
 Alpha  occ. eigenvalues --  -14.34135 -10.34940 -10.32647 -10.29526 -10.25570
 Alpha  occ. eigenvalues --  -10.24982 -10.22855 -10.22631 -10.22619 -10.22582
 Alpha  occ. eigenvalues --  -10.21389 -10.21171 -10.21106 -10.20760 -10.20388
 Alpha  occ. eigenvalues --  -10.20218 -10.19969 -10.18511  -1.24347  -1.18620
 Alpha  occ. eigenvalues --   -1.13573  -1.10856  -1.02136  -0.93586  -0.88812
 Alpha  occ. eigenvalues --   -0.86083  -0.80993  -0.78387  -0.77540  -0.75956
 Alpha  occ. eigenvalues --   -0.74431  -0.70320  -0.68424  -0.65528  -0.63418
 Alpha  occ. eigenvalues --   -0.61622  -0.61027  -0.59697  -0.57424  -0.55256
 Alpha  occ. eigenvalues --   -0.54454  -0.53820  -0.52415  -0.51974  -0.51142
 Alpha  occ. eigenvalues --   -0.48828  -0.48692  -0.48499  -0.47579  -0.46117
 Alpha  occ. eigenvalues --   -0.45454  -0.45432  -0.44965  -0.43714  -0.41743
 Alpha  occ. eigenvalues --   -0.41643  -0.41264  -0.40692  -0.39667  -0.39468
 Alpha  occ. eigenvalues --   -0.39086  -0.38317  -0.38011  -0.37767  -0.37122
 Alpha  occ. eigenvalues --   -0.36217  -0.36040  -0.34798  -0.33946  -0.33387
 Alpha  occ. eigenvalues --   -0.30617  -0.29778  -0.29058  -0.28011  -0.27318
 Alpha  occ. eigenvalues --   -0.25133  -0.23115
 Alpha virt. eigenvalues --   -0.07859  -0.02744  -0.01516   0.00264   0.02287
 Alpha virt. eigenvalues --    0.06778   0.08753   0.09957   0.10873   0.11554
 Alpha virt. eigenvalues --    0.12443   0.13272   0.13740   0.14347   0.15139

 Mulliken charges:
               1
     1  C   -0.464557
     2  C   -0.048326
     3  O   -0.477925
     4  C    0.580530
     5  O   -0.480779
     6  C    0.053136
     7  C   -0.170925
     8  C   -0.158187
     9  C    0.089172
    10  C    0.492160
    11  N   -0.538965
    12  C    0.250667
    13  C   -0.170864
    14  C   -0.142943
    15  C   -0.143949
    16  C   -0.184175
    17  C    0.337522
    18  O   -0.526892
    19  C   -0.228817
    20  C   -0.012769
    21  C    0.440928
    22  F   -0.287775
    23  F   -0.288986
    24  H    0.178746
    25  H    0.151145
    26  H    0.168124
    27  H    0.154603
    28  H    0.175832
    29  H    0.172639
    30  H    0.176327
    31  H    0.149508
    32  H    0.136685
    33  H    0.138838
    34  H    0.152240
    35  H    0.179312
    36  H    0.148720
 Sum of Mulliken charges =  -0.00000

 Dipole moment (field-independent basis, Debye):
    X=              0.6181    Y=              1.0696    Z=              1.7089  Tot=              2.1086
 Quadrupole moment (field-independent basis, Debye-Ang):
   XX=           -102.0669   YY=           -131.0397   ZZ=           -131.0674
   XY=             -0.9498   XZ=             -7.0157   YZ=              0.5602

 Normal termination of Gaussian 16 at Fri Nov  4 19:40:14 2022.
