 Gaussian 16, Revision B.01,
 Gaussian 16:  ES64L-G16RevB.01 20-Dec-2017

 -----------------------------
 #p b3lyp/6-31g(d) opt SCF=XQC
 -----------------------------

 ------------------------------
 Gaussian input prepared by ASE
 ------------------------------
 Symbolic Z-matrix:
 Charge =  0 Multiplicity = 1

 SCF Done:  E(RB3LYP) =  -2141.27158263     A.U. after   15 cycles
 SCF Done:  E(RB3LYP) =  -2141.28276339     A.U. after   15 cycles
 SCF Done:  E(RB3LYP) =  -2141.28530556     A.U. after   12 cycles
 SCF Done:  E(RB3LYP) =  -2141.28912989     A.U. after   12 cycles
 SCF Done:  E(RB3LYP) =  -2141.28984742     A.U. after   12 cycles
 SCF Done:  E(RB3LYP) =  -2141.29025663     A.U. after   12 cycles
 SCF Done:  E(RB3LYP) =  -2141.29051664     A.U. after   12 cycles
 SCF Done:  E(RB3LYP) =  -2141.29068748     A.U. after   11 cycles
 SCF Done:  E(RB3LYP) =  -2141.29078403     A.U. after   10 cycles
 SCF Done:  E(RB3LYP) =  -2141.29083531     A.U. after   11 cycles
 SCF Done:  E(RB3LYP) =  -2141.29087050     A.U. after   11 cycles
 SCF Done:  E(RB3LYP) =  -2141.29088826     A.U. after   11 cycles
 SCF Done:  E(RB3LYP) =  -2141.29089702     A.U. after    9 cycles
 SCF Done:  E(RB3LYP) =  -2141.29089866     A.U. after    8 cycles
 SCF Done:  E(RB3LYP) =  -2141.29089865     A.U. after    9 cycles
 SCF Done:  E(RB3LYP) =  -2141.29089901     A.U. after    7 cycles
 SCF Done:  E(RB3LYP) =  -2141.29089938     A.U. after    7 cycles
 SCF Done:  E(RB3LYP) =  -2141.29089970     A.U. after    7 cycles
 SCF Done:  E(RB3LYP) =  -2141.29089980     A.U. after    6 cycles
 SCF Done:  E(RB3LYP) =  -2141.29089980     A.U. after    5 cycles
 Optimization completed.
    -- Stationary point found.

                         Standard orientation:
 ---------------------------------------------------------------------
 Center     Atomic      Atomic             Coordinates (Angstroms)
 Number     Number       Type             X           Y           Z
 ---------------------------------------------------------------------
      1          8           0      -10.974384    0.303395   -2.493970
      2          6           0      -11.263194    0.778860   -1.408501
      3          7           0      -12.437709    1.369318   -0.995608
      4          7           0      -12.421511    1.827832    0.301680
      5          6           0      -11.234712    1.511531    0.721120
      6          7           0      -10.472199    0.873820   -0.236829
      7          6           0       -9.155426    0.361379   -0.078232
      8          6           0       -8.733442   -0.113262    1.170120
      9          6           0       -7.440852   -0.589675    1.340962
     10          6           0       -6.523201   -0.619964    0.271234
     11          7           0       -5.231272   -1.151934    0.468613
     12          6           0       -4.449534   -0.619627    1.594606
     13          6           0       -3.283792   -1.557067    1.935600
     14          7           0       -2.426871   -1.806517    0.776040
     15          6           0       -1.309813   -0.969417    0.545487
     16          6           0       -1.003495   -0.422649   -0.716627
     17          6           0        0.141243    0.342342   -0.915757
     18          6           0        1.015722    0.612329    0.140685
     19          8           0        2.103622    1.393412   -0.156789
     20          6           0        3.032004    1.688174    0.879746
     21          6           0        4.115254    2.594388    0.286238
     22          6           0        5.116855    3.055013    1.357874
     23          8           0        6.091525    2.059736    1.671783
     24          6           0        6.884161    1.730642    0.531183
     25          6           0        8.104251    0.962756    1.058380
     26          7           0        9.071632    0.697535    0.006565
     27          6           0        9.465812   -0.480885   -0.528754
     28          7           0       10.362369   -0.284103   -1.480696
     29          6           0       10.481771    1.072670   -1.490215
     30          7           0        9.725506    1.717984   -0.612613
     31          6           0        6.041212    1.032429   -0.552417
     32          6           0        5.601444   -0.393215   -0.238928
     33          6           0        5.391741   -0.920704    1.045748
     34          6           0        5.000981   -2.245514    1.250802
     35          6           0        4.807037   -3.063341    0.144582
     36          9           0        4.429869   -4.343414    0.326071
     37          6           0        4.990800   -2.597660   -1.151229
     38          6           0        5.381195   -1.273797   -1.305135
     39          9           0        5.555997   -0.815954   -2.565737
     40          6           0        4.868417    1.989370   -0.921128
     41          6           0        0.727870    0.083852    1.403355
     42          6           0       -0.408465   -0.702833    1.590788
     43          6           0       -3.222742   -2.303474   -0.338635
     44          6           0       -4.400634   -1.388379   -0.711729
     45          6           0       -6.972314   -0.156091   -0.978474
     46          6           0       -8.267917    0.326521   -1.154962
     47          1           0      -13.251418    1.505667   -1.574429
     48          1           0      -10.864322    1.744900    1.708263
     49          1           0       -9.426167   -0.144357    2.006156
     50          1           0       -7.154188   -0.987981    2.308836
     51          1           0       -4.051004    0.382227    1.351399
     52          1           0       -5.095299   -0.512339    2.468781
     53          1           0       -3.686987   -2.517521    2.284429
     54          1           0       -2.698260   -1.123930    2.748234
     55          1           0       -1.665696   -0.580253   -1.560625
     56          1           0        0.363285    0.756671   -1.894624
     57          1           0        3.449774    0.761363    1.287551
     58          1           0        2.522139    2.219328    1.698724
     59          1           0        3.590830    3.491304   -0.071576
     60          1           0        4.616959    3.292406    2.302829
     61          1           0        5.633537    3.963793    1.009762
     62          1           0        7.267556    2.662508    0.084680
     63          1           0        7.818745    0.002142    1.490172
     64          1           0        8.582096    1.563987    1.836784
     65          1           0        9.079172   -1.434880   -0.196274
     66          1           0       11.146949    1.601755   -2.159413
     67          1           0        6.668917    0.970282   -1.448365
     68          1           0        5.528740   -0.272355    1.904199
     69          1           0        4.841849   -2.642175    2.247604
     70          1           0        4.835297   -3.237318   -2.011812
     71          1           0        4.162340    1.483905   -1.585039
     72          1           0        5.301519    2.819829   -1.494520
     73          1           0        1.389009    0.255813    2.245282
     74          1           0       -0.577087   -1.140841    2.569914
     75          1           0       -3.635275   -3.277412   -0.041165
     76          1           0       -2.580109   -2.474340   -1.205617
     77          1           0       -5.007583   -1.887896   -1.473576
     78          1           0       -4.026524   -0.442484   -1.143927
     79          1           0       -6.304686   -0.147596   -1.832006
     80          1           0       -8.592029    0.672010   -2.128603
 ---------------------------------------------------------------------

 The electronic state is 1-A.
 Alpha  occ. eigenvalues --  -24.71739 -24.71408 -19.17520 -19.16900 -19.11427
 Alpha  occ. eigenvalues --  -14.42670 -14.40204 -14.40177 -14.37003 -14.35807
 Alpha  occ. eigenvalues --  -14.35227 -14.34545 -14.32459 -10.31756 -10.28607
 Alpha  occ. eigenvalues --  -10.28598 -10.26259 -10.25620 -10.25598 -10.24823
 Alpha  occ. eigenvalues --  -10.24582 -10.24388 -10.24066 -10.23768 -10.23329
 Alpha  occ. eigenvalues --  -10.23268 -10.22424 -10.22398 -10.22387 -10.22279
 Alpha  occ. eigenvalues --  -10.22247 -10.21374 -10.21131 -10.21116 -10.20833
 Alpha  occ. eigenvalues --  -10.20591 -10.20577 -10.20313 -10.19665 -10.19633
 Alpha  occ. eigenvalues --  -10.19512 -10.19286 -10.18952 -10.18787 -10.18745
 Alpha  occ. eigenvalues --  -10.18540  -1.22809  -1.22626  -1.08883  -1.07905
 Alpha  occ. eigenvalues --   -1.06118  -1.05303  -1.01449  -0.96548  -0.94838
 Alpha  occ. eigenvalues --   -0.92946  -0.90764  -0.87985  -0.85237  -0.84602
 Alpha  occ. eigenvalues --   -0.84407  -0.82813  -0.82434  -0.80640  -0.78024
 Alpha  occ. eigenvalues --   -0.76760  -0.76742  -0.76034  -0.75538  -0.74807
 Alpha  occ. eigenvalues --   -0.74274  -0.72761  -0.70274  -0.68216  -0.66802
 Alpha  occ. eigenvalues --   -0.66232  -0.65696  -0.64935  -0.64483  -0.63621
 Alpha  occ. eigenvalues --   -0.62779  -0.61946  -0.61492  -0.60778  -0.60360
 Alpha  occ. eigenvalues --   -0.59180  -0.58763  -0.56962  -0.56491  -0.55416
 Alpha  occ. eigenvalues --   -0.55388  -0.54613  -0.54302  -0.53523  -0.52825
 Alpha  occ. eigenvalues --   -0.51680  -0.50765  -0.50582  -0.49708  -0.49356
 Alpha  occ. eigenvalues --   -0.49240  -0.48815  -0.48719  -0.47737  -0.47637
 Alpha  occ. eigenvalues --   -0.47537  -0.47318  -0.47238  -0.47076  -0.46254
 Alpha  occ. eigenvalues --   -0.46109  -0.45357  -0.44947  -0.44708  -0.44650
 Alpha  occ. eigenvalues --   -0.44532  -0.44241  -0.43817  -0.43622  -0.43306
 Alpha  occ. eigenvalues --   -0.43005  -0.42635  -0.42274  -0.41862  -0.41717
 Alpha  occ. eigenvalues --   -0.40885  -0.40502  -0.40075  -0.39733  -0.39008
 Alpha  occ. eigenvalues --   -0.38567  -0.38507  -0.38282  -0.37739  -0.37319
 Alpha  occ. eigenvalues --   -0.37101  -0.36773  -0.36597  -0.36360  -0.36246
 Alpha  occ. eigenvalues --   -0.35675  -0.35389  -0.35065  -0.34298  -0.33970
 Alpha  occ. eigenvalues --   -0.33313  -0.33005  -0.32867  -0.32394  -0.32134
 Alpha  occ. eigenvalues --   -0.31531  -0.28880  -0.28069  -0.27731  -0.26984
 Alpha  occ. eigenvalues --   -0.26635  -0.26557  -0.26451  -0.25765  -0.25549
 Alpha  occ. eigenvalues --   -0.25039  -0.24548  -0.23118  -0.20072  -0.18287
 Alpha virt. eigenvalues --   -0.02195  -0.01264  -0.01011  -0.00854  -0.00343
 Alpha virt. eigenvalues --    0.00443   0.02094   0.02372   0.05348   0.06453
 Alpha virt. eigenvalues --    0.06659   0.07564   0.07872   0.08649   0.08793

 Mulliken charges:
               1
     1  O   -0.531519
     2  C    0.775588
     3  N   -0.501901
     4  N   -0.272428
     5  C    0.242131
     6  N   -0.599554
     7  C    0.315564
     8  C   -0.174584
     9  C   -0.184494
    10  C    0.351346
    11  N   -0.505597
    12  C   -0.138496
    13  C   -0.155102
    14  N   -0.480340
    15  C    0.327002
    16  C   -0.190624
    17  C   -0.189126
    18  C    0.379123
    19  O   -0.537344
    20  C   -0.032349
    21  C   -0.127491
    22  C   -0.047553
    23  O   -0.493643
    24  C    0.121362
    25  C   -0.164594
    26  N   -0.242715
    27  C    0.211278
    28  N   -0.435253
    29  C    0.160700
    30  N   -0.275017
    31  C   -0.178500
    32  C    0.077710
    33  C   -0.223921
    34  C   -0.199679
    35  C    0.391077
    36  F   -0.293036
    37  C   -0.271186
    38  C    0.341343
    39  F   -0.292378
    40  C   -0.289413
    41  C   -0.195965
    42  C   -0.187461
    43  C   -0.155510
    44  C   -0.137873
    45  C   -0.205565
    46  C   -0.159136
    47  H    0.356398
    48  H    0.182945
    49  H    0.137118
    50  H    0.134521
    51  H    0.141666
    52  H    0.149818
    53  H    0.149500
    54  H    0.153101
    55  H    0.125890
    56  H    0.135177
    57  H    0.154685
    58  H    0.130868
    59  H    0.145588
    60  H    0.148051
    61  H    0.135759
    62  H    0.152254
    63  H    0.170803
    64  H    0.187638
    65  H    0.174256
    66  H    0.158296
    67  H    0.165745
    68  H    0.168157
    69  H    0.150292
    70  H    0.166215
    71  H    0.177392
    72  H    0.142101
    73  H    0.130710
    74  H    0.129320
    75  H    0.154478
    76  H    0.158133
    77  H    0.157611
    78  H    0.136503
    79  H    0.138383
    80  H    0.175753
 Sum of Mulliken charges =  -0.00000

 Dipole moment (field-independent basis, Debye):
    X=             -0.3053    Y=              1.4352    Z=              4.6886  Tot=              4.9129
 Quadrupole moment (field-independent basis, Debye-Ang):
   XX=           -330.4255   YY=           -265.2553   ZZ=           -257.5453
   XY=              4.1395   XZ=             -1.9353   YZ=             -2.9708

 Normal termination of Gaussian 16 at Fri Nov  4 07:31:28 2022.
