 Gaussian 16, Revision B.01,
 Gaussian 16:  ES64L-G16RevB.01 20-Dec-2017

 -------------------------------------------------------------------
 #p b3lyp/6-31g(d) 6D 10F nosymm GFInput td=(50-50,nstate=2) SCF=XQC
 -------------------------------------------------------------------

 ------------------------------
 Gaussian input prepared by ASE
 ------------------------------
 Symbolic Z-matrix:
 Charge =  0 Multiplicity = 1

                          Input orientation:
 ---------------------------------------------------------------------
 Center     Atomic      Atomic             Coordinates (Angstroms)
 Number     Number       Type             X           Y           Z
 ---------------------------------------------------------------------
      1          8           0       11.019856    1.038884    2.404043
      2          6           0       11.323491    1.085683    1.223645
      3          7           0       12.509425    1.473739    0.639195
      4          7           0       12.509408    1.431300   -0.736178
      5          6           0       11.321284    0.997374   -1.026932
      6          7           0       10.542601    0.758281    0.087634
      7          6           0        9.219766    0.237447    0.109454
      8          6           0        8.800172   -0.652595   -0.887292
      9          6           0        7.502126   -1.144547   -0.889638
     10          6           0        6.576280   -0.775346    0.107266
     11          7           0        5.278287   -1.328698    0.100313
     12          6           0        4.512637   -1.232040   -1.151389
     13          6           0        3.336014   -2.216685   -1.143838
     14          7           0        2.467061   -2.019858    0.016894
     15          6           0        1.360548   -1.144084   -0.084875
     16          6           0        1.052876   -0.173966    0.889767
     17          6           0       -0.082124    0.623517    0.784489
     18          6           0       -0.944807    0.501887   -0.308517
     19          8           0       -2.023468    1.349381   -0.327274
     20          6           0       -2.939835    1.258636   -1.411349
     21          6           0       -4.014220    2.329945   -1.199446
     22          6           0       -5.001141    2.381861   -2.377188
     23          8           0       -5.987752    1.351059   -2.321136
     24          6           0       -6.793439    1.466093   -1.148455
     25          6           0       -8.020582    0.572608   -1.376513
     26          7           0       -8.999414    0.716897   -0.311829
     27          6           0       -9.414512   -0.183226    0.609090
     28          7           0      -10.315118    0.354711    1.414238
     29          6           0      -10.414970    1.623981    0.930334
     30          7           0       -9.643017    1.899336   -0.112173
     31          6           0       -5.968670    1.198788    0.124556
     32          6           0       -5.547251   -0.248247    0.353962
     33          6           0       -5.335736   -1.207526   -0.649860
     34          6           0       -4.962661   -2.520771   -0.356496
     35          6           0       -4.788706   -2.884354    0.973062
     36          9           0       -4.428748   -4.147220    1.272025
     37          6           0       -4.975259   -1.978927    2.009959
     38          6           0       -5.347607   -0.685097    1.669270
     39          9           0       -5.525054    0.200173    2.676297
     40          6           0       -4.784917    2.211573    0.135862
     41          6           0       -0.655330   -0.451185   -1.290525
     42          6           0        0.470869   -1.264559   -1.166590
     43          6           0        3.247438   -2.087824    1.245418
     44          6           0        4.435650   -1.112507    1.276024
     45          6           0        7.022833    0.104859    1.109504
     46          6           0        8.323940    0.604600    1.114905
     47          1           0       13.320734    1.801713    1.139153
     48          1           0       10.961584    0.861276   -2.035989
     49          1           0        9.498513   -0.991921   -1.646877
     50          1           0        7.216872   -1.863300   -1.650972
     51          1           0        4.126844   -0.205889   -1.292335
     52          1           0        5.166304   -1.455699   -1.997203
     53          1           0        3.727846   -3.242564   -1.116274
     54          1           0        2.762802   -2.101055   -2.065189
     55          1           0        1.706497   -0.022262    1.741499
     56          1           0       -0.305359    1.366680    1.544111
     57          1           0       -3.367939    0.251615   -1.460869
     58          1           0       -2.416331    1.451490   -2.360856
     59          1           0       -3.479539    3.289841   -1.184404
     60          1           0       -4.490921    2.255397   -3.337851
     61          1           0       -5.507187    3.360545   -2.388080
     62          1           0       -7.166607    2.500496   -1.074390
     63          1           0       -7.745814   -0.482203   -1.427640
     64          1           0       -8.483944    0.856140   -2.325529
     65          1           0       -9.039259   -1.196984    0.649352
     66          1           0      -11.077343    2.366704    1.354411
     67          1           0       -6.603788    1.472212    0.974534
     68          1           0       -5.457027   -0.912757   -1.686424
     69          1           0       -4.801940   -3.253285   -1.139995
     70          1           0       -4.835357   -2.265022    3.045587
     71          1           0       -4.091126    1.973355    0.946246
     72          1           0       -5.210185    3.197968    0.364314
     73          1           0       -1.307697   -0.588770   -2.145513
     74          1           0        0.640350   -2.029308   -1.918525
     75          1           0        3.648034   -3.107765    1.325847
     76          1           0        2.596036   -1.926060    2.107588
     77          1           0        5.029691   -1.308633    2.174337
     78          1           0        4.072074   -0.070310    1.331787
     79          1           0        6.349130    0.429187    1.893884
     80          1           0        8.645831    1.275812    1.901193
 ---------------------------------------------------------------------

 SCF Done:  E(RB3LYP) =  -2141.29089175     A.U. after   15 cycles

 Excitation energies and oscillator strengths:

 Excited state symmetry could not be determined.
 Excited State   1:      Triplet-?Sym    3.3238 eV  373.02 nm  f=0.0000  <S**2>=2.000
     153 ->167        -0.10117
     157 ->168         0.10454
     159 ->168        -0.18286
     160 ->168         0.11448
     164 ->167         0.55526
     164 ->168         0.17516
     164 ->173         0.10788
     165 ->167        -0.22648
 This state for optimization and/or second-order correction.
 Total Energy, E(TD-HF/TD-DFT) =  -2141.16874445
 Copying the excited state density for this state as the 1-particle RhoCI density.

 Excited state symmetry could not be determined.
 Excited State   2:      Triplet-?Sym    3.3385 eV  371.38 nm  f=0.0000  <S**2>=2.000
     161 ->170         0.20456
     164 ->170         0.12805
     165 ->169         0.11189
     165 ->170         0.56581
     165 ->172        -0.29290

 Excited state symmetry could not be determined.
 Excited State   3:      Singlet-?Sym    3.9307 eV  315.42 nm  f=0.0101  <S**2>=0.000
     165 ->166         0.70294

 Excited state symmetry could not be determined.
 Excited State   4:      Singlet-?Sym    4.2082 eV  294.62 nm  f=0.0553  <S**2>=0.000
     165 ->167         0.69394
     165 ->170         0.10200

 Alpha  occ. eigenvalues --  -24.71738 -24.71408 -19.17520 -19.16900 -19.11427
 Alpha  occ. eigenvalues --  -14.42670 -14.40204 -14.40177 -14.37003 -14.35807
 Alpha  occ. eigenvalues --  -14.35227 -14.34545 -14.32459 -10.31756 -10.28607
 Alpha  occ. eigenvalues --  -10.28598 -10.26259 -10.25620 -10.25598 -10.24823
 Alpha  occ. eigenvalues --  -10.24582 -10.24388 -10.24066 -10.23768 -10.23329
 Alpha  occ. eigenvalues --  -10.23269 -10.22424 -10.22397 -10.22387 -10.22278
 Alpha  occ. eigenvalues --  -10.22247 -10.21374 -10.21131 -10.21116 -10.20833
 Alpha  occ. eigenvalues --  -10.20591 -10.20577 -10.20314 -10.19665 -10.19633
 Alpha  occ. eigenvalues --  -10.19512 -10.19287 -10.18951 -10.18787 -10.18745
 Alpha  occ. eigenvalues --  -10.18540  -1.22809  -1.22626  -1.08883  -1.07905
 Alpha  occ. eigenvalues --   -1.06118  -1.05303  -1.01449  -0.96548  -0.94838
 Alpha  occ. eigenvalues --   -0.92946  -0.90764  -0.87985  -0.85237  -0.84602
 Alpha  occ. eigenvalues --   -0.84407  -0.82813  -0.82434  -0.80640  -0.78024
 Alpha  occ. eigenvalues --   -0.76760  -0.76742  -0.76034  -0.75538  -0.74807
 Alpha  occ. eigenvalues --   -0.74274  -0.72761  -0.70274  -0.68216  -0.66802
 Alpha  occ. eigenvalues --   -0.66232  -0.65696  -0.64935  -0.64483  -0.63621
 Alpha  occ. eigenvalues --   -0.62779  -0.61946  -0.61492  -0.60778  -0.60360
 Alpha  occ. eigenvalues --   -0.59180  -0.58763  -0.56962  -0.56491  -0.55417
 Alpha  occ. eigenvalues --   -0.55388  -0.54613  -0.54302  -0.53523  -0.52825
 Alpha  occ. eigenvalues --   -0.51680  -0.50765  -0.50582  -0.49708  -0.49356
 Alpha  occ. eigenvalues --   -0.49240  -0.48815  -0.48719  -0.47737  -0.47637
 Alpha  occ. eigenvalues --   -0.47537  -0.47318  -0.47238  -0.47076  -0.46254
 Alpha  occ. eigenvalues --   -0.46109  -0.45357  -0.44947  -0.44708  -0.44650
 Alpha  occ. eigenvalues --   -0.44532  -0.44241  -0.43817  -0.43622  -0.43306
 Alpha  occ. eigenvalues --   -0.43005  -0.42635  -0.42274  -0.41862  -0.41717
 Alpha  occ. eigenvalues --   -0.40885  -0.40502  -0.40074  -0.39733  -0.39008
 Alpha  occ. eigenvalues --   -0.38568  -0.38507  -0.38283  -0.37739  -0.37319
 Alpha  occ. eigenvalues --   -0.37101  -0.36773  -0.36597  -0.36360  -0.36246
 Alpha  occ. eigenvalues --   -0.35675  -0.35389  -0.35065  -0.34298  -0.33970
 Alpha  occ. eigenvalues --   -0.33313  -0.33005  -0.32867  -0.32394  -0.32134
 Alpha  occ. eigenvalues --   -0.31531  -0.28880  -0.28069  -0.27731  -0.26984
 Alpha  occ. eigenvalues --   -0.26635  -0.26558  -0.26451  -0.25765  -0.25549
 Alpha  occ. eigenvalues --   -0.25039  -0.24548  -0.23118  -0.20072  -0.18287
 Alpha virt. eigenvalues --   -0.02195  -0.01264  -0.01011  -0.00854  -0.00342
 Alpha virt. eigenvalues --    0.00443   0.02094   0.02372   0.05348   0.06453
 Alpha virt. eigenvalues --    0.06659   0.07564   0.07872   0.08649   0.08793

 Mulliken charges:
               1
     1  O   -0.531520
     2  C    0.775575
     3  N   -0.501901
     4  N   -0.272427
     5  C    0.242132
     6  N   -0.599532
     7  C    0.315524
     8  C   -0.174572
     9  C   -0.184480
    10  C    0.351320
    11  N   -0.505634
    12  C   -0.138471
    13  C   -0.155061
    14  N   -0.480398
    15  C    0.327037
    16  C   -0.190651
    17  C   -0.189113
    18  C    0.379147
    19  O   -0.537364
    20  C   -0.032327
    21  C   -0.127497
    22  C   -0.047540
    23  O   -0.493645
    24  C    0.121353
    25  C   -0.164615
    26  N   -0.242690
    27  C    0.211266
    28  N   -0.435255
    29  C    0.160712
    30  N   -0.275026
    31  C   -0.178550
    32  C    0.077770
    33  C   -0.223940
    34  C   -0.199675
    35  C    0.391077
    36  F   -0.293035
    37  C   -0.271186
    38  C    0.341325
    39  F   -0.292376
    40  C   -0.289404
    41  C   -0.195978
    42  C   -0.187458
    43  C   -0.155483
    44  C   -0.137836
    45  C   -0.205563
    46  C   -0.159113
    47  H    0.356399
    48  H    0.182945
    49  H    0.137118
    50  H    0.134520
    51  H    0.141659
    52  H    0.149815
    53  H    0.149491
    54  H    0.153095
    55  H    0.125889
    56  H    0.135173
    57  H    0.154678
    58  H    0.130866
    59  H    0.145586
    60  H    0.148053
    61  H    0.135756
    62  H    0.152259
    63  H    0.170808
    64  H    0.187641
    65  H    0.174257
    66  H    0.158297
    67  H    0.165749
    68  H    0.168158
    69  H    0.150292
    70  H    0.166215
    71  H    0.177391
    72  H    0.142102
    73  H    0.130711
    74  H    0.129318
    75  H    0.154471
    76  H    0.158128
    77  H    0.157605
    78  H    0.136496
    79  H    0.138385
    80  H    0.175751
 Sum of Mulliken charges =  -0.00000

 Dipole moment (field-independent basis, Debye):
    X=              0.3605    Y=             -0.3640    Z=             -4.8861  Tot=              4.9129
 Quadrupole moment (field-independent basis, Debye-Ang):
   XX=           -330.4539   YY=           -262.1255   ZZ=           -261.1336
   XY=             -3.9127   XZ=             -1.3757   YZ=              4.8710

 Normal termination of Gaussian 16 at Sat Nov  5 12:16:32 2022.
