 Gaussian 16, Revision B.01,
 Gaussian 16:  ES64L-G16RevB.01 20-Dec-2017

 -------------------------------------------------------------------
 #p b3lyp/6-31g(d) 6D 10F nosymm GFInput td=(50-50,nstate=2) SCF=XQC
 -------------------------------------------------------------------

 ------------------------------
 Gaussian input prepared by ASE
 ------------------------------
 Symbolic Z-matrix:
 Charge =  0 Multiplicity = 1

                          Input orientation:
 ---------------------------------------------------------------------
 Center     Atomic      Atomic             Coordinates (Angstroms)
 Number     Number       Type             X           Y           Z
 ---------------------------------------------------------------------
      1          6           0       -2.430592   -2.462176    1.019801
      2          6           0       -0.997555   -1.907490    1.008091
      3          6           0       -0.819520   -0.395897    1.321787
      4          6           0       -1.699474    0.042650    2.504675
      5          6           0       -1.003321    0.600408    0.119922
      6          6           0       -2.081556    0.193789   -0.855219
      7          6           0       -3.244178    0.812111   -1.112250
      8          6           0       -3.808856    2.082937   -0.522765
      9          6           0       -4.079402    3.111820   -1.638700
     10          6           0       -5.099789    1.787434    0.265534
     11          6           0        0.355684    0.961756   -0.594545
     12          6           0        0.169025    2.166757   -1.546610
     13          6           0       -0.293420    1.748264   -2.901719
     14          9           0       -1.017354    2.639873   -3.584999
     15          6           0        0.044217    0.561937   -3.446974
     16          6           0       -0.349368    0.195376   -4.767453
     17          7           0       -0.669474   -0.097912   -5.846407
     18          6           0        0.861122   -0.348619   -2.626954
     19          9           0        1.445756   -1.319666   -3.345519
     20          6           0        1.070719   -0.193136   -1.305414
     21          6           0        2.004551   -1.086511   -0.564612
     22          6           0        2.946329   -0.537536    0.313502
     23          6           0        3.849752   -1.375714    1.004389
     24          7           0        4.781265   -0.872699    1.885168
     25          6           0        5.778856   -1.759516    2.463496
     26          6           0        4.927713    0.564433    2.045773
     27          6           0        3.743176   -2.758805    0.735895
     28          6           0        2.774864   -3.196111   -0.158716
     29          7           0        1.909625   -2.408776   -0.805578
     30          1           0       -2.418282   -3.525430    0.753066
     31          1           0       -2.891113   -2.380902    2.010874
     32          1           0       -3.083857   -1.948170    0.309190
     33          1           0       -0.520556   -2.147889    0.052522
     34          1           0       -0.419689   -2.459456    1.762293
     35          1           0        0.222930   -0.279689    1.648403
     36          1           0       -2.761020    0.061204    2.232470
     37          1           0       -1.586822   -0.640432    3.355214
     38          1           0       -1.426454    1.048172    2.847732
     39          1           0       -1.299854    1.555068    0.573712
     40          1           0       -1.873332   -0.718686   -1.411812
     41          1           0       -3.894154    0.350414   -1.859519
     42          1           0       -3.083628    2.520425    0.175329
     43          1           0       -3.171722    3.332925   -2.209933
     44          1           0       -4.827298    2.730161   -2.345309
     45          1           0       -4.464217    4.050064   -1.221211
     46          1           0       -4.910015    1.099843    1.096923
     47          1           0       -5.527765    2.710590    0.674830
     48          1           0       -5.856334    1.327331   -0.382625
     49          1           0        1.011979    1.307487    0.211082
     50          1           0       -0.545670    2.883628   -1.129156
     51          1           0        1.122904    2.704831   -1.668777
     52          1           0        2.997017    0.536885    0.434191
     53          1           0        5.307464   -2.563755    3.041889
     54          1           0        6.413072   -1.188801    3.143776
     55          1           0        6.422061   -2.220114    1.699165
     56          1           0        5.248118    1.061628    1.117658
     57          1           0        5.676225    0.764096    2.814300
     58          1           0        3.985916    1.024089    2.370936
     59          1           0        4.397123   -3.482591    1.206127
     60          1           0        2.688176   -4.261905   -0.366938
 ---------------------------------------------------------------------

 SCF Done:  E(RB3LYP) =  -1297.08194772     A.U. after   15 cycles

 Excitation energies and oscillator strengths:

 Excited state symmetry could not be determined.
 Excited State   1:      Triplet-?Sym    2.2340 eV  554.99 nm  f=0.0000  <S**2>=2.000
     103 ->108         0.16713
     107 ->108         0.66114
     107 <-108         0.10540
 This state for optimization and/or second-order correction.
 Total Energy, E(TD-HF/TD-DFT) =  -1296.99985069
 Copying the excited state density for this state as the 1-particle RhoCI density.

 Excited state symmetry could not be determined.
 Excited State   2:      Triplet-?Sym    3.3940 eV  365.30 nm  f=0.0000  <S**2>=2.000
     103 ->108        -0.11240
     106 ->108         0.52842
     106 ->109         0.20520
     106 ->110        -0.20159
     107 ->109         0.25603

 Excited state symmetry could not be determined.
 Excited State   3:      Singlet-?Sym    3.6494 eV  339.74 nm  f=0.1107  <S**2>=0.000
     105 ->108         0.11067
     107 ->108         0.68680

 Excited state symmetry could not be determined.
 Excited State   4:      Singlet-?Sym    3.7698 eV  328.89 nm  f=0.0065  <S**2>=0.000
     106 ->108         0.69539

 Alpha  occ. eigenvalues --  -24.74028 -24.70737 -14.37346 -14.32937 -14.31359
 Alpha  occ. eigenvalues --  -10.31016 -10.28535 -10.24687 -10.23754 -10.23538
 Alpha  occ. eigenvalues --  -10.23384 -10.23220 -10.22535 -10.22082 -10.22043
 Alpha  occ. eigenvalues --  -10.21696 -10.20357 -10.19872 -10.19396 -10.19307
 Alpha  occ. eigenvalues --  -10.18998 -10.18838 -10.18251 -10.18131 -10.17548
 Alpha  occ. eigenvalues --  -10.17425 -10.17280 -10.16819 -10.16105  -1.25283
 Alpha  occ. eigenvalues --   -1.22099  -0.96748  -0.93151  -0.90032  -0.87555
 Alpha  occ. eigenvalues --   -0.82733  -0.80567  -0.79587  -0.79262  -0.78113
 Alpha  occ. eigenvalues --   -0.75315  -0.74807  -0.73219  -0.71898  -0.69365
 Alpha  occ. eigenvalues --   -0.69022  -0.68126  -0.65067  -0.64229  -0.62776
 Alpha  occ. eigenvalues --   -0.62248  -0.59906  -0.59527  -0.57322  -0.55766
 Alpha  occ. eigenvalues --   -0.55281  -0.53534  -0.53256  -0.51747  -0.50597
 Alpha  occ. eigenvalues --   -0.50088  -0.49080  -0.48149  -0.48003  -0.47330
 Alpha  occ. eigenvalues --   -0.46494  -0.46337  -0.45694  -0.45100  -0.44838
 Alpha  occ. eigenvalues --   -0.44043  -0.43622  -0.43515  -0.42982  -0.42579
 Alpha  occ. eigenvalues --   -0.41759  -0.41250  -0.40664  -0.40640  -0.40288
 Alpha  occ. eigenvalues --   -0.39687  -0.38870  -0.38529  -0.38284  -0.38071
 Alpha  occ. eigenvalues --   -0.37572  -0.37314  -0.36522  -0.36136  -0.35662
 Alpha  occ. eigenvalues --   -0.35206  -0.34910  -0.34485  -0.34110  -0.33307
 Alpha  occ. eigenvalues --   -0.32535  -0.32432  -0.31865  -0.31168  -0.30892
 Alpha  occ. eigenvalues --   -0.30083  -0.29323  -0.26760  -0.24777  -0.24363
 Alpha  occ. eigenvalues --   -0.21595  -0.21186
 Alpha virt. eigenvalues --   -0.05910  -0.01402  -0.00421   0.01916   0.03543
 Alpha virt. eigenvalues --    0.04192   0.06296   0.07244   0.08334   0.08799
 Alpha virt. eigenvalues --    0.09585   0.10010   0.10663   0.11297   0.11790

 Mulliken charges:
               1
     1  C   -0.453150
     2  C   -0.276721
     3  C   -0.077862
     4  C   -0.466233
     5  C   -0.115787
     6  C   -0.130913
     7  C   -0.100520
     8  C   -0.114909
     9  C   -0.450624
    10  C   -0.444246
    11  C   -0.187576
    12  C   -0.380687
    13  C    0.378225
    14  F   -0.249506
    15  C   -0.006072
    16  C    0.278457
    17  N   -0.474283
    18  C    0.342631
    19  F   -0.259259
    20  C   -0.023342
    21  C    0.263604
    22  C   -0.249477
    23  C    0.407277
    24  N   -0.477050
    25  C   -0.315487
    26  C   -0.313403
    27  C   -0.209142
    28  C    0.032594
    29  N   -0.476502
    30  H    0.141405
    31  H    0.137525
    32  H    0.151888
    33  H    0.171561
    34  H    0.127362
    35  H    0.124017
    36  H    0.159093
    37  H    0.143672
    38  H    0.131583
    39  H    0.122815
    40  H    0.144104
    41  H    0.125010
    42  H    0.122632
    43  H    0.149858
    44  H    0.146080
    45  H    0.139936
    46  H    0.152480
    47  H    0.140863
    48  H    0.144069
    49  H    0.140690
    50  H    0.178979
    51  H    0.179031
    52  H    0.128862
    53  H    0.168313
    54  H    0.160231
    55  H    0.163540
    56  H    0.161105
    57  H    0.161505
    58  H    0.163949
    59  H    0.130672
    60  H    0.137131
 Sum of Mulliken charges =  -0.00000

 Dipole moment (field-independent basis, Debye):
    X=              4.4349    Y=              2.9950    Z=              8.1574  Tot=              9.7561
 Quadrupole moment (field-independent basis, Debye-Ang):
   XX=           -146.1992   YY=           -167.5773   ZZ=           -208.9913
   XY=             -2.0592   XZ=              9.9911   YZ=             -6.9324

 Normal termination of Gaussian 16 at Sat Nov  5 12:03:58 2022.
