 Gaussian 16, Revision B.01,
 Gaussian 16:  ES64L-G16RevB.01 20-Dec-2017

 -----------------------------
 #p b3lyp/6-31g(d) opt SCF=XQC
 -----------------------------

 ------------------------------
 Gaussian input prepared by ASE
 ------------------------------
 Symbolic Z-matrix:
 Charge =  0 Multiplicity = 1

 SCF Done:  E(RB3LYP) =  -1297.07171610     A.U. after   16 cycles
 SCF Done:  E(RB3LYP) =  -1297.07873809     A.U. after   13 cycles
 SCF Done:  E(RB3LYP) =  -1297.08046864     A.U. after   13 cycles
 SCF Done:  E(RB3LYP) =  -1297.08157428     A.U. after   12 cycles
 SCF Done:  E(RB3LYP) =  -1297.08152679     A.U. after   12 cycles
 SCF Done:  E(RB3LYP) =  -1297.08164538     A.U. after   12 cycles
 SCF Done:  E(RB3LYP) =  -1297.08185816     A.U. after   12 cycles
 SCF Done:  E(RB3LYP) =  -1297.08188135     A.U. after   10 cycles
 SCF Done:  E(RB3LYP) =  -1297.08189461     A.U. after   10 cycles
 SCF Done:  E(RB3LYP) =  -1297.08190189     A.U. after   10 cycles
 SCF Done:  E(RB3LYP) =  -1297.08192270     A.U. after    8 cycles
 SCF Done:  E(RB3LYP) =  -1297.08192429     A.U. after    9 cycles
 SCF Done:  E(RB3LYP) =  -1297.08192661     A.U. after   10 cycles
 SCF Done:  E(RB3LYP) =  -1297.08192834     A.U. after    9 cycles
 SCF Done:  E(RB3LYP) =  -1297.08193239     A.U. after    9 cycles
 SCF Done:  E(RB3LYP) =  -1297.08193258     A.U. after   10 cycles
 SCF Done:  E(RB3LYP) =  -1297.08193346     A.U. after   10 cycles
 SCF Done:  E(RB3LYP) =  -1297.08193495     A.U. after    9 cycles
 SCF Done:  E(RB3LYP) =  -1297.08193515     A.U. after    7 cycles
 SCF Done:  E(RB3LYP) =  -1297.08193520     A.U. after    7 cycles
 Optimization completed.
    -- Stationary point found.

                         Standard orientation:
 ---------------------------------------------------------------------
 Center     Atomic      Atomic             Coordinates (Angstroms)
 Number     Number       Type             X           Y           Z
 ---------------------------------------------------------------------
      1          6           0        0.830336   -2.708810    2.737862
      2          6           0       -0.187825   -2.088770    1.768170
      3          6           0        0.114056   -2.211569    0.248696
      4          6           0        0.616601   -3.619041   -0.115090
      5          6           0        1.067377   -1.126245   -0.371093
      6          6           0        2.183891   -0.692987    0.547881
      7          6           0        3.503152   -0.887194    0.399854
      8          6           0        4.255229   -1.574963   -0.714915
      9          6           0        5.264907   -0.601003   -1.354491
     10          6           0        4.974931   -2.831745   -0.187875
     11          6           0        0.287885    0.094429   -0.995815
     12          6           0        1.233728    0.963092   -1.858429
     13          6           0        1.951189    1.990113   -1.048619
     14          9           0        3.146261    2.378266   -1.503656
     15          6           0        1.409947    2.551457    0.051664
     16          6           0        2.075543    3.577656    0.784356
     17          7           0        2.620447    4.417134    1.376794
     18          6           0        0.079873    2.074526    0.466779
     19          9           0       -0.531812    2.906578    1.323866
     20          6           0       -0.507132    0.960578   -0.011885
     21          6           0       -1.903223    0.604040    0.365946
     22          6           0       -2.815270    0.213348   -0.621441
     23          6           0       -4.147059   -0.106417   -0.274849
     24          7           0       -5.068418   -0.506474   -1.216956
     25          6           0       -6.459565   -0.688541   -0.832694
     26          6           0       -4.713368   -0.506614   -2.626399
     27          6           0       -4.478134    0.011625    1.093670
     28          6           0       -3.495766    0.413560    1.989546
     29          7           0       -2.231248    0.705322    1.668867
     30          1           0        0.516197   -2.525094    3.771967
     31          1           0        0.906948   -3.794405    2.609318
     32          1           0        1.833229   -2.290376    2.615204
     33          1           0       -0.350564   -1.038723    2.031515
     34          1           0       -1.155559   -2.579632    1.941265
     35          1           0       -0.851990   -2.084324   -0.258696
     36          1           0        1.630257   -3.795441    0.262675
     37          1           0       -0.034879   -4.392759    0.308753
     38          1           0        0.637453   -3.761451   -1.202558
     39          1           0        1.518945   -1.601659   -1.251604
     40          1           0        1.860064   -0.156517    1.438441
     41          1           0        4.151372   -0.493559    1.186559
     42          1           0        3.550700   -1.894923   -1.493344
     43          1           0        4.769827    0.298983   -1.733965
     44          1           0        6.012755   -0.278952   -0.618750
     45          1           0        5.798872   -1.079698   -2.184199
     46          1           0        4.262331   -3.557270    0.219333
     47          1           0        5.543175   -3.321208   -0.988142
     48          1           0        5.680296   -2.571373    0.611394
     49          1           0       -0.429656   -0.357081   -1.689040
     50          1           0        1.968007    0.338437   -2.377659
     51          1           0        0.659397    1.490644   -2.636997
     52          1           0       -2.499593    0.189067   -1.656465
     53          1           0       -6.559371   -1.455504   -0.054649
     54          1           0       -7.029921   -1.020630   -1.701681
     55          1           0       -6.914569    0.240040   -0.457496
     56          1           0       -4.475662    0.500532   -3.001116
     57          1           0       -5.551583   -0.896118   -3.206445
     58          1           0       -3.847883   -1.153846   -2.816193
     59          1           0       -5.475405   -0.199696    1.458945
     60          1           0       -3.746508    0.503899    3.045838
 ---------------------------------------------------------------------

 The electronic state is 1-A.
 Alpha  occ. eigenvalues --  -24.74029 -24.70737 -14.37346 -14.32937 -14.31359
 Alpha  occ. eigenvalues --  -10.31016 -10.28535 -10.24687 -10.23754 -10.23538
 Alpha  occ. eigenvalues --  -10.23384 -10.23220 -10.22535 -10.22082 -10.22043
 Alpha  occ. eigenvalues --  -10.21696 -10.20357 -10.19872 -10.19396 -10.19307
 Alpha  occ. eigenvalues --  -10.18998 -10.18838 -10.18251 -10.18131 -10.17548
 Alpha  occ. eigenvalues --  -10.17425 -10.17280 -10.16819 -10.16105  -1.25283
 Alpha  occ. eigenvalues --   -1.22099  -0.96748  -0.93150  -0.90032  -0.87555
 Alpha  occ. eigenvalues --   -0.82733  -0.80567  -0.79587  -0.79262  -0.78113
 Alpha  occ. eigenvalues --   -0.75315  -0.74807  -0.73219  -0.71898  -0.69365
 Alpha  occ. eigenvalues --   -0.69022  -0.68126  -0.65067  -0.64229  -0.62776
 Alpha  occ. eigenvalues --   -0.62248  -0.59906  -0.59527  -0.57322  -0.55766
 Alpha  occ. eigenvalues --   -0.55281  -0.53534  -0.53256  -0.51747  -0.50597
 Alpha  occ. eigenvalues --   -0.50088  -0.49080  -0.48149  -0.48003  -0.47330
 Alpha  occ. eigenvalues --   -0.46494  -0.46337  -0.45694  -0.45100  -0.44838
 Alpha  occ. eigenvalues --   -0.44043  -0.43622  -0.43515  -0.42982  -0.42579
 Alpha  occ. eigenvalues --   -0.41759  -0.41250  -0.40664  -0.40640  -0.40288
 Alpha  occ. eigenvalues --   -0.39687  -0.38870  -0.38529  -0.38284  -0.38071
 Alpha  occ. eigenvalues --   -0.37572  -0.37314  -0.36522  -0.36136  -0.35662
 Alpha  occ. eigenvalues --   -0.35206  -0.34910  -0.34486  -0.34110  -0.33307
 Alpha  occ. eigenvalues --   -0.32535  -0.32432  -0.31865  -0.31168  -0.30892
 Alpha  occ. eigenvalues --   -0.30083  -0.29323  -0.26760  -0.24777  -0.24363
 Alpha  occ. eigenvalues --   -0.21595  -0.21186
 Alpha virt. eigenvalues --   -0.05910  -0.01402  -0.00421   0.01916   0.03543
 Alpha virt. eigenvalues --    0.04192   0.06296   0.07244   0.08334   0.08799
 Alpha virt. eigenvalues --    0.09585   0.10010   0.10663   0.11297   0.11790

 Mulliken charges:
               1
     1  C   -0.453157
     2  C   -0.276740
     3  C   -0.077811
     4  C   -0.466247
     5  C   -0.115773
     6  C   -0.130938
     7  C   -0.100541
     8  C   -0.114884
     9  C   -0.450626
    10  C   -0.444248
    11  C   -0.187553
    12  C   -0.380676
    13  C    0.378251
    14  F   -0.249500
    15  C   -0.006118
    16  C    0.278440
    17  N   -0.474273
    18  C    0.342629
    19  F   -0.259258
    20  C   -0.023331
    21  C    0.263600
    22  C   -0.249482
    23  C    0.407274
    24  N   -0.477038
    25  C   -0.315490
    26  C   -0.313410
    27  C   -0.209142
    28  C    0.032594
    29  N   -0.476492
    30  H    0.141409
    31  H    0.137528
    32  H    0.151887
    33  H    0.171558
    34  H    0.127364
    35  H    0.124008
    36  H    0.159094
    37  H    0.143671
    38  H    0.131583
    39  H    0.122812
    40  H    0.144105
    41  H    0.125015
    42  H    0.122632
    43  H    0.149856
    44  H    0.146079
    45  H    0.139936
    46  H    0.152480
    47  H    0.140862
    48  H    0.144068
    49  H    0.140684
    50  H    0.178971
    51  H    0.179026
    52  H    0.128863
    53  H    0.168312
    54  H    0.160231
    55  H    0.163541
    56  H    0.161105
    57  H    0.161506
    58  H    0.163951
    59  H    0.130672
    60  H    0.137130
 Sum of Mulliken charges =  -0.00000

 Dipole moment (field-independent basis, Debye):
    X=             -5.5577    Y=             -5.4904    Z=             -5.8436  Tot=              9.7560
 Quadrupole moment (field-independent basis, Debye-Ang):
   XX=           -148.0570   YY=           -198.2284   ZZ=           -168.2969
   XY=             -8.4704   XZ=              3.1411   YZ=             -8.8571

 Normal termination of Gaussian 16 at Fri Nov  4 07:26:16 2022.
