 Gaussian 16, Revision B.01,
 Gaussian 16:  ES64L-G16RevB.01 20-Dec-2017

 -------------------------------------------------------------------
 #p b3lyp/6-31g(d) 6D 10F nosymm GFInput td=(50-50,nstate=2) SCF=XQC
 -------------------------------------------------------------------

 ------------------------------
 Gaussian input prepared by ASE
 ------------------------------
 Symbolic Z-matrix:
 Charge =  0 Multiplicity = 1

                          Input orientation:
 ---------------------------------------------------------------------
 Center     Atomic      Atomic             Coordinates (Angstroms)
 Number     Number       Type             X           Y           Z
 ---------------------------------------------------------------------
      1          6           0        6.642584    0.879438    0.677771
      2          6           0        5.461736    1.125672    0.030666
      3          7           0        4.722903   -0.040622    0.153527
      4          6           0        3.379679   -0.258041   -0.292939
      5          8           0        2.489349    0.314824    0.652628
      6          6           0        1.142132    0.235310    0.405193
      7          6           0        0.314610    0.845413    1.352022
      8          6           0       -1.064225    0.819960    1.178585
      9          6           0       -1.647932    0.191024    0.072959
     10          6           0       -3.158636    0.150964   -0.116380
     11          7           0       -3.918607    0.891096    0.878732
     12          6           0       -4.152300    2.253765    0.901352
     13          6           0       -4.852499    2.489566    2.058281
     14          7           0       -5.055504    1.317189    2.752491
     15          6           0       -4.481524    0.386903    2.020445
     16          6           0       -0.816187   -0.434202   -0.876219
     17          6           0       -1.412821   -1.107819   -2.077596
     18          6           0       -2.043078   -2.487116   -1.978081
     19          6           0       -0.764027   -2.291320   -2.751037
     20          6           0        0.574948   -0.399842   -0.704418
     21          6           0        5.496879   -0.913343    0.880191
     22          7           0        6.657741   -0.398297    1.203057
     23          1           0        7.489131    1.542632    0.793776
     24          1           0        5.073516    1.989468   -0.488110
     25          1           0        3.242129    0.206817   -1.276968
     26          1           0        3.211010   -1.338424   -0.379917
     27          1           0        0.766500    1.332187    2.210153
     28          1           0       -1.697391    1.300931    1.917109
     29          1           0       -3.432044    0.541949   -1.103688
     30          1           0       -3.515330   -0.885160   -0.096926
     31          1           0       -3.804860    2.900878    0.109380
     32          1           0       -5.229474    3.434067    2.427539
     33          1           0       -4.440782   -0.669558    2.254023
     34          1           0       -1.933173   -0.427658   -2.753421
     35          1           0       -2.962188   -2.676151   -2.526066
     36          1           0       -1.973695   -3.003061   -1.024014
     37          1           0        0.145152   -2.698631   -2.317959
     38          1           0       -0.799670   -2.343700   -3.835447
     39          1           0        1.196979   -0.868663   -1.457792
     40          1           0        5.148968   -1.908446    1.127095
 ---------------------------------------------------------------------

 SCF Done:  E(RB3LYP) =  -952.813984342     A.U. after   14 cycles

 Excitation energies and oscillator strengths:

 Excited state symmetry could not be determined.
 Excited State   1:      Triplet-?Sym    3.6073 eV  343.70 nm  f=0.0000  <S**2>=2.000
      75 -> 79        -0.32193
      75 -> 80        -0.16515
      76 -> 79        -0.28238
      76 -> 80         0.20650
      77 -> 79         0.32420
      77 -> 80        -0.24039
      78 -> 79         0.17313
      78 -> 80        -0.20322
 This state for optimization and/or second-order correction.
 Total Energy, E(TD-HF/TD-DFT) =  -952.681418248
 Copying the excited state density for this state as the 1-particle RhoCI density.

 Excited state symmetry could not be determined.
 Excited State   2:      Triplet-?Sym    4.1520 eV  298.62 nm  f=0.0000  <S**2>=2.000
      76 -> 81         0.50973
      77 -> 81         0.44476

 Excited state symmetry could not be determined.
 Excited State   3:      Singlet-?Sym    4.9628 eV  249.83 nm  f=0.0390  <S**2>=0.000
      75 -> 79         0.10696
      75 -> 80        -0.17651
      77 -> 80         0.11846
      78 -> 79         0.64243

 Excited state symmetry could not be determined.
 Excited State   4:      Singlet-?Sym    5.1404 eV  241.20 nm  f=0.0106  <S**2>=0.000
      75 -> 79         0.16613
      75 -> 80        -0.19470
      76 -> 79        -0.23261
      76 -> 80        -0.10045
      77 -> 79         0.54160
      77 -> 80         0.13133
      78 -> 79        -0.23885

 Alpha  occ. eigenvalues --  -19.19572 -14.40109 -14.39265 -14.31415 -14.30643
 Alpha  occ. eigenvalues --  -10.30538 -10.26172 -10.24814 -10.24195 -10.23265
 Alpha  occ. eigenvalues --  -10.21710 -10.21497 -10.21398 -10.20939 -10.20668
 Alpha  occ. eigenvalues --  -10.20533 -10.20485 -10.20196 -10.20011 -10.19986
 Alpha  occ. eigenvalues --  -10.19557 -10.19338  -1.08988  -1.01839  -1.01387
 Alpha  occ. eigenvalues --   -0.89550  -0.89009  -0.87889  -0.85213  -0.78316
 Alpha  occ. eigenvalues --   -0.76254  -0.75483  -0.74069  -0.72396  -0.69462
 Alpha  occ. eigenvalues --   -0.65023  -0.62244  -0.60885  -0.60412  -0.59371
 Alpha  occ. eigenvalues --   -0.58961  -0.58056  -0.57176  -0.55295  -0.54990
 Alpha  occ. eigenvalues --   -0.53335  -0.50597  -0.49822  -0.49443  -0.48360
 Alpha  occ. eigenvalues --   -0.46838  -0.45900  -0.45006  -0.43958  -0.43745
 Alpha  occ. eigenvalues --   -0.42593  -0.42450  -0.42029  -0.41304  -0.40859
 Alpha  occ. eigenvalues --   -0.40128  -0.39613  -0.38818  -0.38261  -0.38215
 Alpha  occ. eigenvalues --   -0.37386  -0.34630  -0.33525  -0.31295  -0.30801
 Alpha  occ. eigenvalues --   -0.28153  -0.26845  -0.26726  -0.26154  -0.25802
 Alpha  occ. eigenvalues --   -0.23417  -0.22954  -0.22324
 Alpha virt. eigenvalues --   -0.01756  -0.00289   0.01532   0.02815   0.06721
 Alpha virt. eigenvalues --    0.07022   0.07494   0.07864   0.08872   0.09736
 Alpha virt. eigenvalues --    0.10796   0.11299   0.12097   0.12159   0.12647

 Mulliken charges:
               1
     1  C   -0.037943
     2  C    0.019638
     3  N   -0.390498
     4  C    0.082678
     5  O   -0.509155
     6  C    0.383151
     7  C   -0.175897
     8  C   -0.188068
     9  C    0.092389
    10  C   -0.222750
    11  N   -0.371327
    12  C   -0.002085
    13  C   -0.036026
    14  N   -0.434055
    15  C    0.188962
    16  C    0.115842
    17  C   -0.200858
    18  C   -0.302567
    19  C   -0.319977
    20  C   -0.266553
    21  C    0.206898
    22  N   -0.430370
    23  H    0.140330
    24  H    0.158037
    25  H    0.162340
    26  H    0.158979
    27  H    0.149148
    28  H    0.163791
    29  H    0.169059
    30  H    0.179702
    31  H    0.150388
    32  H    0.134587
    33  H    0.151348
    34  H    0.157835
    35  H    0.156963
    36  H    0.161304
    37  H    0.154992
    38  H    0.157232
    39  H    0.134761
    40  H    0.157773
 Sum of Mulliken charges =  -0.00000

 Dipole moment (field-independent basis, Debye):
    X=             -0.8910    Y=             -1.0406    Z=             -5.7790  Tot=              5.9391
 Quadrupole moment (field-independent basis, Debye-Ang):
   XX=           -170.6218   YY=           -119.3736   ZZ=           -135.6228
   XY=              9.6173   XZ=              4.8799   YZ=             -2.1634

 Normal termination of Gaussian 16 at Sat Nov  5 12:00:57 2022.
