 Gaussian 16, Revision B.01,
 Gaussian 16:  ES64L-G16RevB.01 20-Dec-2017

 -----------------------------
 #p b3lyp/6-31g(d) opt SCF=XQC
 -----------------------------

 ------------------------------
 Gaussian input prepared by ASE
 ------------------------------
 Symbolic Z-matrix:
 Charge =  0 Multiplicity = 1

 SCF Done:  E(RB3LYP) =  -952.808975257     A.U. after   14 cycles
 SCF Done:  E(RB3LYP) =  -952.813737482     A.U. after   12 cycles
 SCF Done:  E(RB3LYP) =  -952.813897866     A.U. after   10 cycles
 SCF Done:  E(RB3LYP) =  -952.813943293     A.U. after   10 cycles
 SCF Done:  E(RB3LYP) =  -952.813960990     A.U. after    9 cycles
 SCF Done:  E(RB3LYP) =  -952.813971665     A.U. after    9 cycles
 SCF Done:  E(RB3LYP) =  -952.813974568     A.U. after    9 cycles
 SCF Done:  E(RB3LYP) =  -952.813976568     A.U. after    8 cycles
 SCF Done:  E(RB3LYP) =  -952.813980978     A.U. after    9 cycles
 SCF Done:  E(RB3LYP) =  -952.813983687     A.U. after    9 cycles
 SCF Done:  E(RB3LYP) =  -952.813985213     A.U. after    9 cycles
 SCF Done:  E(RB3LYP) =  -952.813985784     A.U. after    8 cycles
 SCF Done:  E(RB3LYP) =  -952.813985971     A.U. after    7 cycles
 SCF Done:  E(RB3LYP) =  -952.813986019     A.U. after    6 cycles
 SCF Done:  E(RB3LYP) =  -952.813986041     A.U. after    6 cycles
 SCF Done:  E(RB3LYP) =  -952.813986053     A.U. after    6 cycles
 SCF Done:  E(RB3LYP) =  -952.813986062     A.U. after    6 cycles
 SCF Done:  E(RB3LYP) =  -952.813986067     A.U. after    6 cycles
 SCF Done:  E(RB3LYP) =  -952.813986069     A.U. after    6 cycles
 Optimization completed.
    -- Stationary point found.

                         Standard orientation:
 ---------------------------------------------------------------------
 Center     Atomic      Atomic             Coordinates (Angstroms)
 Number     Number       Type             X           Y           Z
 ---------------------------------------------------------------------
      1          6           0       -6.371037   -1.404255   -0.458220
      2          6           0       -5.209459   -0.967153   -1.035676
      3          7           0       -4.560602   -0.236094   -0.052951
      4          6           0       -3.263952    0.364938   -0.144118
      5          8           0       -2.282954   -0.639833    0.063337
      6          6           0       -0.961014   -0.278278   -0.002159
      7          6           0       -0.039505   -1.313889    0.176258
      8          6           0        1.322057   -1.040426    0.118998
      9          6           0        1.795645    0.256252   -0.111271
     10          6           0        3.286490    0.563247   -0.164347
     11          7           0        4.153625   -0.599352   -0.054629
     12          6           0        4.496086   -1.478909   -1.065119
     13          6           0        5.271896   -2.442144   -0.469581
     14          7           0        5.416493   -2.187803    0.876527
     15          6           0        4.732982   -1.083676    1.087461
     16          6           0        0.868606    1.303063   -0.279887
     17          6           0        1.346536    2.702254   -0.538509
     18          6           0        1.869114    3.579190    0.587316
     19          6           0        0.571398    3.919496   -0.099630
     20          6           0       -0.504576    1.023935   -0.230765
     21          6           0       -5.362982   -0.289835    1.061508
     22          7           0       -6.460774   -0.973853    0.851538
     23          1           0       -7.154851   -1.999345   -0.907027
     24          1           0       -4.781019   -1.099936   -2.017916
     25          1           0       -3.140977    0.819578   -1.134827
     26          1           0       -3.186703    1.146781    0.621387
     27          1           0       -0.406042   -2.319308    0.356052
     28          1           0        2.028994   -1.852626    0.253981
     29          1           0        3.538646    1.080683   -1.097662
     30          1           0        3.559959    1.253127    0.642153
     31          1           0        4.160759   -1.331887   -2.081302
     32          1           0        5.741619   -3.299338   -0.933394
     33          1           0        4.620296   -0.578698    2.038580
     34          1           0        1.883723    2.819312   -1.480768
     35          1           0        2.740573    4.199801    0.397087
     36          1           0        1.808371    3.186549    1.598949
     37          1           0       -0.343684    3.773401    0.467246
     38          1           0        0.546480    4.776156   -0.767067
     39          1           0       -1.200229    1.840494   -0.384345
     40          1           0       -5.083194    0.200765    1.985231
 ---------------------------------------------------------------------

 The electronic state is 1-A.
 Alpha  occ. eigenvalues --  -19.19572 -14.40109 -14.39265 -14.31415 -14.30643
 Alpha  occ. eigenvalues --  -10.30538 -10.26172 -10.24814 -10.24195 -10.23265
 Alpha  occ. eigenvalues --  -10.21710 -10.21497 -10.21397 -10.20939 -10.20668
 Alpha  occ. eigenvalues --  -10.20533 -10.20485 -10.20196 -10.20011 -10.19986
 Alpha  occ. eigenvalues --  -10.19557 -10.19338  -1.08988  -1.01839  -1.01387
 Alpha  occ. eigenvalues --   -0.89550  -0.89009  -0.87889  -0.85213  -0.78316
 Alpha  occ. eigenvalues --   -0.76254  -0.75483  -0.74069  -0.72396  -0.69462
 Alpha  occ. eigenvalues --   -0.65023  -0.62244  -0.60885  -0.60412  -0.59371
 Alpha  occ. eigenvalues --   -0.58961  -0.58056  -0.57176  -0.55295  -0.54990
 Alpha  occ. eigenvalues --   -0.53335  -0.50597  -0.49822  -0.49443  -0.48360
 Alpha  occ. eigenvalues --   -0.46838  -0.45900  -0.45006  -0.43958  -0.43745
 Alpha  occ. eigenvalues --   -0.42593  -0.42450  -0.42029  -0.41304  -0.40859
 Alpha  occ. eigenvalues --   -0.40128  -0.39613  -0.38818  -0.38261  -0.38215
 Alpha  occ. eigenvalues --   -0.37386  -0.34630  -0.33525  -0.31295  -0.30801
 Alpha  occ. eigenvalues --   -0.28153  -0.26845  -0.26726  -0.26154  -0.25802
 Alpha  occ. eigenvalues --   -0.23417  -0.22954  -0.22324
 Alpha virt. eigenvalues --   -0.01756  -0.00289   0.01532   0.02814   0.06721
 Alpha virt. eigenvalues --    0.07022   0.07494   0.07864   0.08872   0.09736
 Alpha virt. eigenvalues --    0.10796   0.11299   0.12097   0.12159   0.12647

 Mulliken charges:
               1
     1  C   -0.037935
     2  C    0.019633
     3  N   -0.390489
     4  C    0.082664
     5  O   -0.509150
     6  C    0.383146
     7  C   -0.175893
     8  C   -0.188076
     9  C    0.092387
    10  C   -0.222732
    11  N   -0.371329
    12  C   -0.002093
    13  C   -0.036023
    14  N   -0.434054
    15  C    0.188961
    16  C    0.115842
    17  C   -0.200860
    18  C   -0.302565
    19  C   -0.319983
    20  C   -0.266545
    21  C    0.206894
    22  N   -0.430373
    23  H    0.140330
    24  H    0.158036
    25  H    0.162342
    26  H    0.158979
    27  H    0.149147
    28  H    0.163793
    29  H    0.169057
    30  H    0.179699
    31  H    0.150389
    32  H    0.134587
    33  H    0.151347
    34  H    0.157836
    35  H    0.156964
    36  H    0.161303
    37  H    0.154995
    38  H    0.157232
    39  H    0.134761
    40  H    0.157776
 Sum of Mulliken charges =  -0.00000

 Dipole moment (field-independent basis, Debye):
    X=              0.5043    Y=              5.1231    Z=             -2.9618  Tot=              5.9391
 Quadrupole moment (field-independent basis, Debye-Ang):
   XX=           -172.1127   YY=           -126.4691   ZZ=           -123.6359
   XY=              6.8097   XZ=              1.6793   YZ=              7.0675

 Normal termination of Gaussian 16 at Fri Nov  4 19:46:38 2022.
