 Gaussian 16, Revision B.01,
 Gaussian 16:  ES64L-G16RevB.01 20-Dec-2017

 -------------------------------------------------------------------
 #p b3lyp/6-31g(d) 6D 10F nosymm GFInput td=(50-50,nstate=2) SCF=XQC
 -------------------------------------------------------------------

 ------------------------------
 Gaussian input prepared by ASE
 ------------------------------
 Symbolic Z-matrix:
 Charge =  0 Multiplicity = 1

                          Input orientation:
 ---------------------------------------------------------------------
 Center     Atomic      Atomic             Coordinates (Angstroms)
 Number     Number       Type             X           Y           Z
 ---------------------------------------------------------------------
      1          6           0       -4.800967    2.844788   -0.338717
      2         16           0       -4.559660    1.209005   -0.223995
      3          7           0       -5.401817    0.140988    0.970478
      4          6           0       -6.784393   -0.301687    0.691027
      5          6           0       -7.044931   -1.399467    1.753095
      6          8           0       -8.383439   -1.879680    1.764519
      7          6           0       -7.875162    0.822189    0.770448
      8          6           0       -8.785124    0.615324   -0.452773
      9          6           0       -7.820307    0.093833   -1.530644
     10          6           0       -6.918329   -0.880751   -0.753371
     11          6           0       -3.026388    1.230766    0.860043
     12          8           0       -3.153758    1.547846    2.021267
     13          6           0       -1.729638    0.955242    0.201058
     14          6           0       -1.616715    0.501781   -1.119583
     15          6           0       -0.361024    0.235352   -1.661268
     16          6           0        0.804669    0.413145   -0.906455
     17          6           0        2.172297    0.142284   -1.510539
     18          6           0        3.009607   -0.864150   -0.738122
     19          6           0        2.531492   -2.170050   -0.516229
     20          6           0        3.286299   -3.097886    0.183220
     21          6           0        4.543702   -2.733839    0.672936
     22          8           0        5.225510   -3.695292    1.359763
     23          6           0        6.478409   -3.466676    1.919789
     24          8           0        7.005976   -4.366521    2.527594
     25          6           0        7.041280   -2.140404    1.695327
     26          6           0        6.391489   -1.173916    1.004254
     27          6           0        7.105718    0.148594    0.747209
     28          9           0        8.145215    0.276111    1.637267
     29          9           0        6.239599    1.187696    1.037753
     30          6           0        7.658893    0.290332   -0.669558
     31          6           0        8.480223    1.567503   -0.926549
     32          6           0        7.667642    2.864056   -1.027423
     33          6           0        5.065220   -1.441692    0.463780
     34          6           0        4.261496   -0.518668   -0.241864
     35          6           0        0.683287    0.861628    0.419499
     36          6           0       -0.562557    1.129671    0.967801
     37          1           0       -5.419463    3.168178   -1.168656
     38          1           0       -4.715334    3.478523    0.538545
     39          1           0       -5.354235    0.608340    1.879151
     40          1           0       -6.880920   -0.978952    2.751840
     41          1           0       -6.320399   -2.214522    1.612435
     42          1           0       -8.501903   -2.452701    0.992105
     43          1           0       -7.385909    1.799697    0.709188
     44          1           0       -8.428726    0.781642    1.713916
     45          1           0       -9.315113    1.526676   -0.751514
     46          1           0       -9.539728   -0.148604   -0.227340
     47          1           0       -7.223684    0.924983   -1.929841
     48          1           0       -8.326953   -0.379627   -2.379385
     49          1           0       -7.409007   -1.863412   -0.711621
     50          1           0       -5.941558   -1.045940   -1.216374
     51          1           0       -2.504920    0.354747   -1.724293
     52          1           0       -0.286315   -0.112192   -2.688708
     53          1           0        2.039607   -0.206211   -2.542871
     54          1           0        2.728626    1.086189   -1.577643
     55          1           0        1.550583   -2.452879   -0.888981
     56          1           0        2.928079   -4.105153    0.367615
     57          1           0        8.025328   -1.976794    2.114360
     58          1           0        8.289799   -0.590235   -0.838947
     59          1           0        6.823641    0.217117   -1.375492
     60          1           0        9.241935    1.661228   -0.144194
     61          1           0        9.024559    1.412643   -1.866541
     62          1           0        7.176847    3.110559   -0.082948
     63          1           0        6.891233    2.784560   -1.798902
     64          1           0        8.318735    3.701931   -1.299987
     65          1           0        4.623309    0.491930   -0.384849
     66          1           0        1.576922    0.994881    1.023697
     67          1           0       -0.658851    1.475941    1.991441
 ---------------------------------------------------------------------

 SCF Done:  E(RB3LYP) =  -2039.07342658     A.U. after   15 cycles

 Excitation energies and oscillator strengths:

 Excited state symmetry could not be determined.
 Excited State   1:      Triplet-?Sym    1.9178 eV  646.50 nm  f=0.0000  <S**2>=2.000
     136 ->137         0.27763
     136 ->138         0.63417
 This state for optimization and/or second-order correction.
 Total Energy, E(TD-HF/TD-DFT) =  -2039.00295005
 Copying the excited state density for this state as the 1-particle RhoCI density.

 Excited state symmetry could not be determined.
 Excited State   2:      Singlet-?Sym    2.3257 eV  533.10 nm  f=0.0700  <S**2>=0.000
     136 ->137         0.33304
     136 ->138         0.61465

 Excited state symmetry could not be determined.
 Excited State   3:      Triplet-?Sym    2.6285 eV  471.70 nm  f=0.0000  <S**2>=2.000
     135 ->137        -0.17742
     136 ->137         0.61850
     136 ->138        -0.26741

 Excited state symmetry could not be determined.
 Excited State   4:      Singlet-?Sym    2.6395 eV  469.72 nm  f=0.0002  <S**2>=0.000
     136 ->137         0.62280
     136 ->138        -0.33370

 Alpha  occ. eigenvalues --  -88.95823 -24.71870 -24.71853 -19.22158 -19.16830
 Alpha  occ. eigenvalues --  -19.14632 -19.13847 -14.32919 -10.37185 -10.32744
 Alpha  occ. eigenvalues --  -10.30965 -10.28146 -10.24849 -10.23342 -10.22656
 Alpha  occ. eigenvalues --  -10.22641 -10.22280 -10.22262 -10.22219 -10.22143
 Alpha  occ. eigenvalues --  -10.21899 -10.21857 -10.21828 -10.21799 -10.21453
 Alpha  occ. eigenvalues --  -10.21412 -10.21371 -10.21230 -10.20994 -10.20175
 Alpha  occ. eigenvalues --  -10.18414 -10.18392 -10.18000 -10.17508 -10.16978
 Alpha  occ. eigenvalues --  -10.16822  -8.00861  -5.97260  -5.97086  -5.96633
 Alpha  occ. eigenvalues --   -1.25942  -1.20134  -1.12343  -1.07015  -1.03454
 Alpha  occ. eigenvalues --   -1.01774  -0.90715  -0.89378  -0.88178  -0.85561
 Alpha  occ. eigenvalues --   -0.82932  -0.81703  -0.81277  -0.79098  -0.77535
 Alpha  occ. eigenvalues --   -0.76947  -0.76785  -0.74802  -0.72028  -0.70896
 Alpha  occ. eigenvalues --   -0.70779  -0.68745  -0.66748  -0.65059  -0.64849
 Alpha  occ. eigenvalues --   -0.63772  -0.62930  -0.62577  -0.60784  -0.60706
 Alpha  occ. eigenvalues --   -0.57838  -0.57321  -0.56843  -0.55571  -0.54665
 Alpha  occ. eigenvalues --   -0.54251  -0.52335  -0.52045  -0.52019  -0.50502
 Alpha  occ. eigenvalues --   -0.50121  -0.49504  -0.48961  -0.48059  -0.47863
 Alpha  occ. eigenvalues --   -0.47364  -0.47230  -0.46734  -0.45932  -0.45702
 Alpha  occ. eigenvalues --   -0.45276  -0.45021  -0.44542  -0.44250  -0.44090
 Alpha  occ. eigenvalues --   -0.43564  -0.43445  -0.43175  -0.43021  -0.42139
 Alpha  occ. eigenvalues --   -0.41789  -0.41371  -0.41197  -0.40404  -0.40168
 Alpha  occ. eigenvalues --   -0.40031  -0.39831  -0.39358  -0.38786  -0.37757
 Alpha  occ. eigenvalues --   -0.37531  -0.37192  -0.36751  -0.36427  -0.36068
 Alpha  occ. eigenvalues --   -0.35744  -0.35407  -0.35312  -0.34893  -0.34066
 Alpha  occ. eigenvalues --   -0.33463  -0.33422  -0.33063  -0.32951  -0.32236
 Alpha  occ. eigenvalues --   -0.32185  -0.31190  -0.28112  -0.27529  -0.27397
 Alpha  occ. eigenvalues --   -0.27109  -0.26809  -0.26652  -0.24582  -0.24346
 Alpha  occ. eigenvalues --   -0.18759
 Alpha virt. eigenvalues --   -0.08189  -0.07592  -0.02735  -0.02055  -0.01348
 Alpha virt. eigenvalues --    0.01460   0.02093   0.03953   0.06057   0.06179
 Alpha virt. eigenvalues --    0.07773   0.08428   0.09013   0.09467   0.09889

 Mulliken charges:
               1
     1  C   -0.588942
     2  S    0.503005
     3  N   -0.725655
     4  C    0.231518
     5  C   -0.058961
     6  O   -0.615889
     7  C   -0.290961
     8  C   -0.268177
     9  C   -0.276115
    10  C   -0.301042
    11  C    0.221192
    12  O   -0.433108
    13  C    0.093076
    14  C   -0.164994
    15  C   -0.207295
    16  C    0.193970
    17  C   -0.445640
    18  C    0.187968
    19  C   -0.174207
    20  C   -0.170480
    21  C    0.305600
    22  O   -0.511061
    23  C    0.613874
    24  O   -0.461546
    25  C   -0.293920
    26  C    0.059392
    27  C    0.613668
    28  F   -0.300857
    29  F   -0.297424
    30  C   -0.322936
    31  C   -0.265816
    32  C   -0.448472
    33  C    0.097688
    34  C   -0.286469
    35  C   -0.176009
    36  C   -0.150278
    37  H    0.160531
    38  H    0.164511
    39  H    0.326170
    40  H    0.141942
    41  H    0.135996
    42  H    0.394195
    43  H    0.150191
    44  H    0.148569
    45  H    0.134077
    46  H    0.138245
    47  H    0.143578
    48  H    0.132455
    49  H    0.112027
    50  H    0.158726
    51  H    0.168985
    52  H    0.136621
    53  H    0.164713
    54  H    0.170085
    55  H    0.146548
    56  H    0.163026
    57  H    0.183200
    58  H    0.162236
    59  H    0.154642
    60  H    0.158957
    61  H    0.144807
    62  H    0.164638
    63  H    0.137393
    64  H    0.148524
    65  H    0.152833
    66  H    0.146390
    67  H    0.170491
 Sum of Mulliken charges =  -0.00000

 Dipole moment (field-independent basis, Debye):
    X=              0.9550    Y=              1.3632    Z=             -6.0825  Tot=              6.3061
 Quadrupole moment (field-independent basis, Debye-Ang):
   XX=           -231.4601   YY=           -236.3393   ZZ=           -223.9782
   XY=             30.7546   XZ=            -10.7367   YZ=             13.5704

 Normal termination of Gaussian 16 at Sat Nov  5 12:07:19 2022.
