 Gaussian 16, Revision B.01,
 Gaussian 16:  ES64L-G16RevB.01 20-Dec-2017

 -----------------------------
 #p b3lyp/6-31g(d) opt SCF=XQC
 -----------------------------

 ------------------------------
 Gaussian input prepared by ASE
 ------------------------------
 Symbolic Z-matrix:
 Charge =  0 Multiplicity = 1

 SCF Done:  E(RB3LYP) =  -2039.04584878     A.U. after   16 cycles
 SCF Done:  E(RB3LYP) =  -2039.05829826     A.U. after   13 cycles
 SCF Done:  E(RB3LYP) =  -2039.06050401     A.U. after   13 cycles
 SCF Done:  E(RB3LYP) =  -2039.06189540     A.U. after   13 cycles
 SCF Done:  E(RB3LYP) =  -2039.06295585     A.U. after   14 cycles
 SCF Done:  E(RB3LYP) =  -2039.06435359     A.U. after   14 cycles
 SCF Done:  E(RB3LYP) =  -2039.06661627     A.U. after   14 cycles
 SCF Done:  E(RB3LYP) =  -2039.06892793     A.U. after   15 cycles
 SCF Done:  E(RB3LYP) =  -2039.07041893     A.U. after   14 cycles
 SCF Done:  E(RB3LYP) =  -2039.07229649     A.U. after   13 cycles
 SCF Done:  E(RB3LYP) =  -2039.07342138     A.U. after   11 cycles
 SCF Done:  E(RB3LYP) =  -2039.07342341     A.U. after   10 cycles
 SCF Done:  E(RB3LYP) =  -2039.07342466     A.U. after    9 cycles
 SCF Done:  E(RB3LYP) =  -2039.07342561     A.U. after    9 cycles
 SCF Done:  E(RB3LYP) =  -2039.07342582     A.U. after    7 cycles
 SCF Done:  E(RB3LYP) =  -2039.07342596     A.U. after    8 cycles
 SCF Done:  E(RB3LYP) =  -2039.07342598     A.U. after    7 cycles
 SCF Done:  E(RB3LYP) =  -2039.07342600     A.U. after    7 cycles
 SCF Done:  E(RB3LYP) =  -2039.07342602     A.U. after    7 cycles
 SCF Done:  E(RB3LYP) =  -2039.07342602     A.U. after    6 cycles
 Optimization completed.
    -- Stationary point found.

                         Standard orientation:
 ---------------------------------------------------------------------
 Center     Atomic      Atomic             Coordinates (Angstroms)
 Number     Number       Type             X           Y           Z
 ---------------------------------------------------------------------
      1          6           0       -5.456269   -2.654319   -0.538491
      2         16           0       -5.094198   -1.121349   -0.022656
      3          7           0       -5.831258    0.381258   -0.712270
      4          6           0       -7.183480    0.786773   -0.273382
      5          6           0       -7.341189    2.222605   -0.834187
      6          8           0       -8.640663    2.770205   -0.650228
      7          6           0       -8.351260   -0.136583   -0.766215
      8          6           0       -9.269097   -0.343461    0.451107
      9          6           0       -8.291602   -0.346100    1.638173
     10          6           0       -7.305047    0.780239    1.283769
     11          6           0       -3.544275   -0.843815   -1.046007
     12          8           0       -3.670108   -0.684066   -2.239260
     13          6           0       -2.244955   -0.938522   -0.342777
     14          6           0       -2.126929   -1.032234    1.049976
     15          6           0       -0.866762   -1.087548    1.641658
     16          6           0        0.298406   -1.051560    0.866235
     17          6           0        1.669207   -1.134983    1.516338
     18          6           0        2.593496    0.023721    1.179119
     19          6           0        2.216438    1.347653    1.476166
     20          6           0        3.051217    2.412339    1.177117
     21          6           0        4.288740    2.168800    0.574920
     22          8           0        5.052912    3.265150    0.300980
     23          6           0        6.297269    3.173538   -0.314514
     24          8           0        6.901510    4.194616   -0.537600
     25          6           0        6.757304    1.823477   -0.617676
     26          6           0        6.024600    0.718461   -0.342004
     27          6           0        6.635152   -0.651935   -0.614897
     28          9           0        7.680970   -0.508599   -1.495089
     29          9           0        5.701955   -1.433646   -1.272455
     30          6           0        7.146837   -1.363886    0.635954
     31          6           0        7.867483   -2.700538    0.379396
     32          6           0        6.960758   -3.872637   -0.015003
     33          6           0        4.710343    0.859129    0.270977
     34          6           0        3.827009   -0.199802    0.578003
     35          6           0        0.172418   -0.950601   -0.529458
     36          6           0       -1.077909   -0.894993   -1.127956
     37          1           0       -6.113859   -3.221956    0.110571
     38          1           0       -5.398689   -2.910580   -1.591846
     39          1           0       -5.798853    0.293154   -1.730876
     40          1           0       -7.187399    2.203214   -1.919175
     41          1           0       -6.562350    2.865602   -0.399432
     42          1           0       -8.733209    3.012927    0.283331
     43          1           0       -7.935839   -1.097537   -1.086583
     44          1           0       -8.880582    0.301845   -1.618158
     45          1           0       -9.870136   -1.257225    0.384136
     46          1           0       -9.961224    0.503180    0.540506
     47          1           0       -7.765524   -1.308995    1.685094
     48          1           0       -8.780056   -0.194993    2.607604
     49          1           0       -7.721921    1.738617    1.624149
     50          1           0       -6.328725    0.682590    1.766471
     51          1           0       -3.014510   -1.060266    1.672564
     52          1           0       -0.788427   -1.164296    2.723312
     53          1           0        1.540706   -1.197113    2.604635
     54          1           0        2.153835   -2.072245    1.213619
     55          1           0        1.251147    1.540099    1.936923
     56          1           0        2.771191    3.437765    1.393904
     57          1           0        7.735368    1.758289   -1.075767
     58          1           0        7.836486   -0.664417    1.123046
     59          1           0        6.304570   -1.502490    1.323503
     60          1           0        8.636523   -2.546189   -0.385994
     61          1           0        8.401898   -2.956875    1.302738
     62          1           0        6.473154   -3.703073   -0.977897
     63          1           0        6.176253   -4.034849    0.735031
     64          1           0        7.543305   -4.797587   -0.088163
     65          1           0        4.111240   -1.212793    0.321637
     66          1           0        1.066405   -0.910473   -1.146362
     67          1           0       -1.177753   -0.816895   -2.205428
 ---------------------------------------------------------------------

 The electronic state is 1-A.
 Alpha  occ. eigenvalues --  -88.95823 -24.71870 -24.71853 -19.22158 -19.16830
 Alpha  occ. eigenvalues --  -19.14632 -19.13847 -14.32919 -10.37185 -10.32744
 Alpha  occ. eigenvalues --  -10.30965 -10.28146 -10.24849 -10.23342 -10.22656
 Alpha  occ. eigenvalues --  -10.22641 -10.22280 -10.22262 -10.22219 -10.22143
 Alpha  occ. eigenvalues --  -10.21898 -10.21857 -10.21828 -10.21799 -10.21453
 Alpha  occ. eigenvalues --  -10.21412 -10.21371 -10.21230 -10.20994 -10.20175
 Alpha  occ. eigenvalues --  -10.18414 -10.18392 -10.18001 -10.17508 -10.16978
 Alpha  occ. eigenvalues --  -10.16822  -8.00861  -5.97260  -5.97086  -5.96633
 Alpha  occ. eigenvalues --   -1.25942  -1.20134  -1.12343  -1.07015  -1.03454
 Alpha  occ. eigenvalues --   -1.01774  -0.90715  -0.89378  -0.88178  -0.85561
 Alpha  occ. eigenvalues --   -0.82932  -0.81703  -0.81277  -0.79098  -0.77535
 Alpha  occ. eigenvalues --   -0.76947  -0.76785  -0.74802  -0.72028  -0.70896
 Alpha  occ. eigenvalues --   -0.70779  -0.68745  -0.66748  -0.65059  -0.64849
 Alpha  occ. eigenvalues --   -0.63772  -0.62930  -0.62577  -0.60784  -0.60706
 Alpha  occ. eigenvalues --   -0.57838  -0.57321  -0.56843  -0.55571  -0.54665
 Alpha  occ. eigenvalues --   -0.54251  -0.52335  -0.52045  -0.52019  -0.50502
 Alpha  occ. eigenvalues --   -0.50121  -0.49504  -0.48961  -0.48059  -0.47863
 Alpha  occ. eigenvalues --   -0.47364  -0.47230  -0.46734  -0.45932  -0.45702
 Alpha  occ. eigenvalues --   -0.45276  -0.45021  -0.44542  -0.44250  -0.44090
 Alpha  occ. eigenvalues --   -0.43564  -0.43445  -0.43175  -0.43021  -0.42139
 Alpha  occ. eigenvalues --   -0.41789  -0.41371  -0.41197  -0.40404  -0.40168
 Alpha  occ. eigenvalues --   -0.40031  -0.39831  -0.39358  -0.38786  -0.37757
 Alpha  occ. eigenvalues --   -0.37531  -0.37192  -0.36751  -0.36427  -0.36068
 Alpha  occ. eigenvalues --   -0.35744  -0.35407  -0.35312  -0.34893  -0.34066
 Alpha  occ. eigenvalues --   -0.33464  -0.33422  -0.33063  -0.32951  -0.32236
 Alpha  occ. eigenvalues --   -0.32185  -0.31190  -0.28112  -0.27529  -0.27397
 Alpha  occ. eigenvalues --   -0.27109  -0.26809  -0.26652  -0.24582  -0.24346
 Alpha  occ. eigenvalues --   -0.18759
 Alpha virt. eigenvalues --   -0.08189  -0.07592  -0.02735  -0.02055  -0.01348
 Alpha virt. eigenvalues --    0.01460   0.02093   0.03953   0.06057   0.06179
 Alpha virt. eigenvalues --    0.07773   0.08428   0.09012   0.09467   0.09889

 Mulliken charges:
               1
     1  C   -0.588945
     2  S    0.503000
     3  N   -0.725644
     4  C    0.231503
     5  C   -0.058973
     6  O   -0.615885
     7  C   -0.290951
     8  C   -0.268158
     9  C   -0.276108
    10  C   -0.301062
    11  C    0.221201
    12  O   -0.433113
    13  C    0.093085
    14  C   -0.164994
    15  C   -0.207295
    16  C    0.193968
    17  C   -0.445644
    18  C    0.187977
    19  C   -0.174210
    20  C   -0.170474
    21  C    0.305600
    22  O   -0.511066
    23  C    0.613885
    24  O   -0.461545
    25  C   -0.293925
    26  C    0.059392
    27  C    0.613644
    28  F   -0.300859
    29  F   -0.297421
    30  C   -0.322928
    31  C   -0.265805
    32  C   -0.448476
    33  C    0.097690
    34  C   -0.286470
    35  C   -0.176008
    36  C   -0.150283
    37  H    0.160529
    38  H    0.164510
    39  H    0.326170
    40  H    0.141943
    41  H    0.135997
    42  H    0.394195
    43  H    0.150189
    44  H    0.148568
    45  H    0.134073
    46  H    0.138240
    47  H    0.143576
    48  H    0.132454
    49  H    0.112033
    50  H    0.158732
    51  H    0.168986
    52  H    0.136621
    53  H    0.164713
    54  H    0.170085
    55  H    0.146545
    56  H    0.163025
    57  H    0.183199
    58  H    0.162235
    59  H    0.154642
    60  H    0.158955
    61  H    0.144805
    62  H    0.164638
    63  H    0.137390
    64  H    0.148526
    65  H    0.152840
    66  H    0.146390
    67  H    0.170492
 Sum of Mulliken charges =  -0.00000

 Dipole moment (field-independent basis, Debye):
    X=              0.7259    Y=             -3.6452    Z=              5.0943  Tot=              6.3061
 Quadrupole moment (field-independent basis, Debye-Ang):
   XX=           -237.0958   YY=           -237.2334   ZZ=           -214.2133
   XY=            -31.5921   XZ=             -3.4327   YZ=              3.5967

 Normal termination of Gaussian 16 at Fri Nov  4 20:26:30 2022.
