 Gaussian 16, Revision B.01,
 Gaussian 16:  ES64L-G16RevB.01 20-Dec-2017

 -----------------------------
 #p b3lyp/6-31g(d) opt SCF=XQC
 -----------------------------

 ------------------------------
 Gaussian input prepared by ASE
 ------------------------------
 Symbolic Z-matrix:
 Charge =  0 Multiplicity = 1

 SCF Done:  E(RB3LYP) =  -1462.98721491     A.U. after   14 cycles
 SCF Done:  E(RB3LYP) =  -1462.99481946     A.U. after   12 cycles
 SCF Done:  E(RB3LYP) =  -1462.99550015     A.U. after   11 cycles
 SCF Done:  E(RB3LYP) =  -1462.99562426     A.U. after   11 cycles
 SCF Done:  E(RB3LYP) =  -1462.99566914     A.U. after   10 cycles
 SCF Done:  E(RB3LYP) =  -1462.99569718     A.U. after   10 cycles
 SCF Done:  E(RB3LYP) =  -1462.99575491     A.U. after   11 cycles
 SCF Done:  E(RB3LYP) =  -1462.99581545     A.U. after   12 cycles
 SCF Done:  E(RB3LYP) =  -1462.99583411     A.U. after   11 cycles
 SCF Done:  E(RB3LYP) =  -1462.99585756     A.U. after   11 cycles
 SCF Done:  E(RB3LYP) =  -1462.99600319     A.U. after   12 cycles
 SCF Done:  E(RB3LYP) =  -1462.99601461     A.U. after   10 cycles
 SCF Done:  E(RB3LYP) =  -1462.99603001     A.U. after   10 cycles
 SCF Done:  E(RB3LYP) =  -1462.99604930     A.U. after   13 cycles
 SCF Done:  E(RB3LYP) =  -1462.99604142     A.U. after   12 cycles
 SCF Done:  E(RB3LYP) =  -1462.99608408     A.U. after   12 cycles
 SCF Done:  E(RB3LYP) =  -1462.99608724     A.U. after   10 cycles
 SCF Done:  E(RB3LYP) =  -1462.99608742     A.U. after    8 cycles
 SCF Done:  E(RB3LYP) =  -1462.99608746     A.U. after    8 cycles
 SCF Done:  E(RB3LYP) =  -1462.99608747     A.U. after    8 cycles
 Optimization completed on the basis of negligible forces.
    -- Stationary point found.

                         Standard orientation:
 ---------------------------------------------------------------------
 Center     Atomic      Atomic             Coordinates (Angstroms)
 Number     Number       Type             X           Y           Z
 ---------------------------------------------------------------------
      1          9           0        4.512655   -3.658271   -0.657397
      2          6           0        5.542765   -2.861775   -0.289128
      3          9           0        6.132832   -3.438063    0.784380
      4          9           0        6.451245   -2.907625   -1.294577
      5          6           0        5.100929   -1.456092    0.003666
      6          6           0        5.980879   -0.605817    0.708548
      7          6           0        5.649403    0.716849    0.968009
      8          6           0        4.412444    1.192361    0.512187
      9          7           0        3.841979    2.448726    0.632433
     10          6           0        2.675079    2.353410    0.032915
     11          6           0        1.662596    3.473133   -0.047598
     12          6           0        0.804553    3.359446   -1.292363
     13          6           0       -0.404930    2.776274   -1.252574
     14          6           0       -0.983515    2.247068    0.001133
     15          6           0       -2.155828    1.350644   -0.068191
     16          6           0       -2.331361    0.264037    0.805084
     17          7           0       -3.379610   -0.547786    0.785509
     18          6           0       -4.326795   -0.294922   -0.150345
     19          7           0       -5.425558   -1.105423   -0.175852
     20          6           0       -6.481378   -0.960592   -1.177916
     21          6           0       -7.860672   -0.886326   -0.508273
     22          6           0       -8.087557   -2.079135    0.431864
     23          6           0       -6.935307   -2.200341    1.439574
     24          6           0       -5.576691   -2.246843    0.726849
     25          7           0       -4.259324    0.704967   -1.061152
     26          6           0       -3.193778    1.495007   -1.002162
     27          6           0       -0.408296    2.603769    1.171477
     28          6           0        0.770338    3.539949    1.220816
     29          7           0        2.439533    1.098232   -0.482399
     30          6           0        3.544197    0.320724   -0.192461
     31          6           0        3.865582   -1.007927   -0.461180
     32          1           0        6.928210   -1.004628    1.056598
     33          1           0        6.321306    1.372347    1.512684
     34          1           0        2.258131    4.390813   -0.084275
     35          1           0        1.221790    3.703494   -2.235850
     36          1           0       -0.973982    2.657035   -2.171257
     37          1           0       -1.565291    0.033652    1.545890
     38          1           0       -6.447135   -1.831006   -1.853911
     39          1           0       -6.272195   -0.069572   -1.767418
     40          1           0       -8.634804   -0.851437   -1.285126
     41          1           0       -7.928565    0.051547    0.059108
     42          1           0       -9.046702   -1.979797    0.954402
     43          1           0       -8.147165   -3.002922   -0.162916
     44          1           0       -7.049307   -3.102885    2.053054
     45          1           0       -6.947558   -1.340512    2.122716
     46          1           0       -5.502934   -3.174895    0.136094
     47          1           0       -4.750117   -2.233690    1.435115
     48          1           0       -3.172815    2.303894   -1.732715
     49          1           0       -0.841660    2.282810    2.115639
     50          1           0        0.392854    4.571019    1.321389
     51          1           0        1.387305    3.354102    2.106447
     52          1           0        1.608286    0.829870   -0.989574
     53          1           0        3.196669   -1.672046   -0.997105
 ---------------------------------------------------------------------

 The electronic state is 1-A.
 Alpha  occ. eigenvalues --  -24.71708 -24.71255 -24.70834 -14.39439 -14.36217
 Alpha  occ. eigenvalues --  -14.33061 -14.33054 -14.31795 -10.42234 -10.28930
 Alpha  occ. eigenvalues --  -10.26251 -10.23896 -10.23797 -10.23192 -10.21986
 Alpha  occ. eigenvalues --  -10.21647 -10.21620 -10.21495 -10.21130 -10.20863
 Alpha  occ. eigenvalues --  -10.20799 -10.20777 -10.20700 -10.20436 -10.20204
 Alpha  occ. eigenvalues --  -10.20012 -10.19578 -10.19404 -10.18856 -10.18840
 Alpha  occ. eigenvalues --  -10.18820  -1.28966  -1.20501  -1.19895  -1.02254
 Alpha  occ. eigenvalues --   -1.00354  -0.93386  -0.88718  -0.88340  -0.86921
 Alpha  occ. eigenvalues --   -0.85615  -0.81771  -0.79794  -0.76965  -0.76304
 Alpha  occ. eigenvalues --   -0.76015  -0.75480  -0.74103  -0.69399  -0.67920
 Alpha  occ. eigenvalues --   -0.66776  -0.64900  -0.63440  -0.62993  -0.61764
 Alpha  occ. eigenvalues --   -0.61391  -0.60492  -0.59527  -0.57347  -0.57206
 Alpha  occ. eigenvalues --   -0.56768  -0.56000  -0.53955  -0.53570  -0.52071
 Alpha  occ. eigenvalues --   -0.51898  -0.49950  -0.49021  -0.47128  -0.46669
 Alpha  occ. eigenvalues --   -0.46098  -0.45898  -0.45718  -0.45205  -0.44680
 Alpha  occ. eigenvalues --   -0.44649  -0.44269  -0.44101  -0.43568  -0.43231
 Alpha  occ. eigenvalues --   -0.42284  -0.41893  -0.41516  -0.41131  -0.40994
 Alpha  occ. eigenvalues --   -0.40789  -0.40409  -0.40390  -0.38870  -0.38678
 Alpha  occ. eigenvalues --   -0.38638  -0.37011  -0.36121  -0.35727  -0.35645
 Alpha  occ. eigenvalues --   -0.35176  -0.34943  -0.33754  -0.33488  -0.33124
 Alpha  occ. eigenvalues --   -0.32661  -0.31480  -0.31037  -0.30584  -0.29575
 Alpha  occ. eigenvalues --   -0.27628  -0.24651  -0.23889  -0.23361  -0.23143
 Alpha  occ. eigenvalues --   -0.20262
 Alpha virt. eigenvalues --   -0.05101  -0.03494  -0.02588   0.00086   0.00736
 Alpha virt. eigenvalues --    0.04316   0.06954   0.08316   0.08959   0.09346
 Alpha virt. eigenvalues --    0.10919   0.11191   0.11387   0.11905   0.13011

 Mulliken charges:
               1
     1  F   -0.275289
     2  C    0.778586
     3  F   -0.272206
     4  F   -0.265389
     5  C   -0.026969
     6  C   -0.175754
     7  C   -0.183743
     8  C    0.240318
     9  N   -0.548546
    10  C    0.516140
    11  C   -0.216532
    12  C   -0.148899
    13  C   -0.163965
    14  C    0.095967
    15  C    0.025416
    16  C    0.029147
    17  N   -0.490631
    18  C    0.679025
    19  N   -0.465650
    20  C   -0.142809
    21  C   -0.261223
    22  C   -0.266930
    23  C   -0.261109
    24  C   -0.143177
    25  N   -0.494138
    26  C    0.027659
    27  C   -0.196499
    28  C   -0.303716
    29  N   -0.735817
    30  C    0.353432
    31  C   -0.210056
    32  H    0.147992
    33  H    0.146401
    34  H    0.171415
    35  H    0.146953
    36  H    0.139413
    37  H    0.146238
    38  H    0.135830
    39  H    0.194096
    40  H    0.137378
    41  H    0.142763
    42  H    0.139286
    43  H    0.130503
    44  H    0.137884
    45  H    0.142636
    46  H    0.136112
    47  H    0.195045
    48  H    0.144991
    49  H    0.140140
    50  H    0.163692
    51  H    0.171717
    52  H    0.340419
    53  H    0.152455
 Sum of Mulliken charges =  -0.00000

 Dipole moment (field-independent basis, Debye):
    X=             -5.0397    Y=              1.6431    Z=             -0.7644  Tot=              5.3557
 Quadrupole moment (field-independent basis, Debye-Ang):
   XX=           -182.5760   YY=           -179.1478   ZZ=           -173.4672
   XY=             14.1414   XZ=              0.7611   YZ=             -2.6129

 Normal termination of Gaussian 16 at Fri Nov  4 20:06:47 2022.
