 Gaussian 16, Revision B.01,
 Gaussian 16:  ES64L-G16RevB.01 20-Dec-2017

 -------------------------------------------------------------------
 #p b3lyp/6-31g(d) 6D 10F nosymm GFInput td=(50-50,nstate=2) SCF=XQC
 -------------------------------------------------------------------

 ------------------------------
 Gaussian input prepared by ASE
 ------------------------------
 Symbolic Z-matrix:
 Charge =  0 Multiplicity = 1

                          Input orientation:
 ---------------------------------------------------------------------
 Center     Atomic      Atomic             Coordinates (Angstroms)
 Number     Number       Type             X           Y           Z
 ---------------------------------------------------------------------
      1          9           0        5.183601    2.946176    3.083753
      2          6           0        6.271964    2.608856    2.353797
      3          9           0        6.809782    3.757146    1.879572
      4          9           0        7.178363    2.091713    3.219459
      5          6           0        5.941634    1.647843    1.247349
      6          6           0        6.883094    1.463380    0.211123
      7          6           0        6.656343    0.554864   -0.813486
      8          6           0        5.462974   -0.179670   -0.796665
      9          7           0        4.993346   -1.136317   -1.681322
     10          6           0        3.825208   -1.502873   -1.200434
     11          6           0        2.905011   -2.502890   -1.862693
     12          6           0        2.046136   -3.228011   -0.845277
     13          6           0        0.794078   -2.822244   -0.576528
     14          6           0        0.169869   -1.677853   -1.274622
     15          6           0       -1.069482   -1.088679   -0.727279
     16          6           0       -1.334412    0.290589   -0.766868
     17          7           0       -2.443604    0.851375   -0.304832
     18          6           0       -3.363648    0.019120    0.240871
     19          7           0       -4.523064    0.571938    0.704542
     20          6           0       -5.559671   -0.222440    1.363536
     21          6           0       -6.931672    0.036727    0.725698
     22          6           0       -7.256502    1.537291    0.695363
     23          6           0       -6.121921    2.322762    0.021855
     24          6           0       -4.768144    2.014044    0.676041
     25          7           0       -3.213147   -1.321592    0.358086
     26          6           0       -2.088612   -1.840011   -0.121179
     27          6           0        0.766398   -1.208609   -2.393452
     28          6           0        2.015289   -1.840960   -2.948835
     29          7           0        3.493199   -0.840766   -0.039449
     30          6           0        4.531486    0.022577    0.252887
     31          6           0        4.747744    0.929519    1.288021
     32          1           0        7.794301    2.052656    0.220123
     33          1           0        7.375680    0.413004   -1.613631
     34          1           0        3.571553   -3.211246   -2.364785
     35          1           0        2.493468   -4.047594   -0.287782
     36          1           0        0.221409   -3.325290    0.198720
     37          1           0       -0.592271    0.974332   -1.179735
     38          1           0       -5.591545    0.055416    2.430093
     39          1           0       -5.277945   -1.272011    1.298576
     40          1           0       -7.697182   -0.515066    1.285623
     41          1           0       -6.927518   -0.362833   -0.297273
     42          1           0       -8.207045    1.714502    0.177737
     43          1           0       -7.386517    1.900671    1.725777
     44          1           0       -6.309783    3.402286    0.079081
     45          1           0       -6.068995    2.059065   -1.042946
     46          1           0       -4.765570    2.391982    1.711835
     47          1           0       -3.946248    2.489510    0.143634
     48          1           0       -2.000401   -2.922996   -0.032833
     49          1           0        0.304816   -0.407912   -2.966240
     50          1           0        1.720264   -2.618967   -3.672286
     51          1           0        2.611688   -1.113892   -3.510270
     52          1           0        2.645535   -0.992338    0.488481
     53          1           0        4.030666    1.083719    2.086605
 ---------------------------------------------------------------------

 SCF Done:  E(RB3LYP) =  -1462.99607986     A.U. after   14 cycles

 Excitation energies and oscillator strengths:

 Excited state symmetry could not be determined.
 Excited State   1:      Triplet-?Sym    2.3180 eV  534.88 nm  f=0.0000  <S**2>=2.000
     107 ->112        -0.22694
     108 ->112         0.21747
     109 ->112         0.27169
     111 ->112         0.54643
 This state for optimization and/or second-order correction.
 Total Energy, E(TD-HF/TD-DFT) =  -1462.91089595
 Copying the excited state density for this state as the 1-particle RhoCI density.

 Excited state symmetry could not be determined.
 Excited State   2:      Triplet-?Sym    3.1303 eV  396.08 nm  f=0.0000  <S**2>=2.000
     111 ->112        -0.12037
     111 ->113         0.67648

 Excited state symmetry could not be determined.
 Excited State   3:      Singlet-?Sym    3.7120 eV  334.01 nm  f=0.1557  <S**2>=0.000
     111 ->112         0.67481
     111 ->113        -0.17458

 Excited state symmetry could not be determined.
 Excited State   4:      Singlet-?Sym    3.9554 eV  313.46 nm  f=0.0713  <S**2>=0.000
     111 ->112         0.16670
     111 ->113         0.67088

 Alpha  occ. eigenvalues --  -24.71708 -24.71255 -24.70834 -14.39439 -14.36217
 Alpha  occ. eigenvalues --  -14.33061 -14.33053 -14.31795 -10.42234 -10.28930
 Alpha  occ. eigenvalues --  -10.26251 -10.23896 -10.23797 -10.23192 -10.21986
 Alpha  occ. eigenvalues --  -10.21647 -10.21620 -10.21495 -10.21130 -10.20863
 Alpha  occ. eigenvalues --  -10.20799 -10.20777 -10.20700 -10.20436 -10.20204
 Alpha  occ. eigenvalues --  -10.20012 -10.19578 -10.19404 -10.18856 -10.18840
 Alpha  occ. eigenvalues --  -10.18820  -1.28966  -1.20501  -1.19895  -1.02254
 Alpha  occ. eigenvalues --   -1.00354  -0.93386  -0.88718  -0.88340  -0.86921
 Alpha  occ. eigenvalues --   -0.85615  -0.81771  -0.79794  -0.76966  -0.76304
 Alpha  occ. eigenvalues --   -0.76015  -0.75480  -0.74103  -0.69399  -0.67920
 Alpha  occ. eigenvalues --   -0.66776  -0.64900  -0.63440  -0.62993  -0.61764
 Alpha  occ. eigenvalues --   -0.61391  -0.60492  -0.59527  -0.57347  -0.57206
 Alpha  occ. eigenvalues --   -0.56768  -0.56000  -0.53955  -0.53570  -0.52071
 Alpha  occ. eigenvalues --   -0.51898  -0.49950  -0.49021  -0.47128  -0.46669
 Alpha  occ. eigenvalues --   -0.46098  -0.45898  -0.45718  -0.45205  -0.44680
 Alpha  occ. eigenvalues --   -0.44649  -0.44269  -0.44101  -0.43568  -0.43231
 Alpha  occ. eigenvalues --   -0.42284  -0.41893  -0.41516  -0.41131  -0.40994
 Alpha  occ. eigenvalues --   -0.40789  -0.40409  -0.40390  -0.38870  -0.38678
 Alpha  occ. eigenvalues --   -0.38638  -0.37011  -0.36121  -0.35727  -0.35645
 Alpha  occ. eigenvalues --   -0.35176  -0.34943  -0.33754  -0.33488  -0.33124
 Alpha  occ. eigenvalues --   -0.32661  -0.31480  -0.31037  -0.30584  -0.29575
 Alpha  occ. eigenvalues --   -0.27628  -0.24651  -0.23889  -0.23361  -0.23143
 Alpha  occ. eigenvalues --   -0.20262
 Alpha virt. eigenvalues --   -0.05101  -0.03494  -0.02588   0.00086   0.00736
 Alpha virt. eigenvalues --    0.04316   0.06954   0.08316   0.08960   0.09346
 Alpha virt. eigenvalues --    0.10919   0.11191   0.11388   0.11905   0.13011

 Mulliken charges:
               1
     1  F   -0.275284
     2  C    0.778587
     3  F   -0.272207
     4  F   -0.265389
     5  C   -0.026966
     6  C   -0.175746
     7  C   -0.183741
     8  C    0.240310
     9  N   -0.548546
    10  C    0.516110
    11  C   -0.216444
    12  C   -0.148928
    13  C   -0.163972
    14  C    0.095983
    15  C    0.025414
    16  C    0.029143
    17  N   -0.490667
    18  C    0.679069
    19  N   -0.465657
    20  C   -0.142831
    21  C   -0.261203
    22  C   -0.266934
    23  C   -0.261113
    24  C   -0.143163
    25  N   -0.494134
    26  C    0.027673
    27  C   -0.196519
    28  C   -0.303738
    29  N   -0.735809
    30  C    0.353444
    31  C   -0.210081
    32  H    0.147988
    33  H    0.146401
    34  H    0.171410
    35  H    0.146954
    36  H    0.139414
    37  H    0.146239
    38  H    0.135832
    39  H    0.194097
    40  H    0.137376
    41  H    0.142760
    42  H    0.139285
    43  H    0.130503
    44  H    0.137885
    45  H    0.142632
    46  H    0.136108
    47  H    0.195042
    48  H    0.144989
    49  H    0.140140
    50  H    0.163691
    51  H    0.171715
    52  H    0.340419
    53  H    0.152455
 Sum of Mulliken charges =  -0.00000

 Dipole moment (field-independent basis, Debye):
    X=             -4.8903    Y=             -2.0942    Z=             -0.6188  Tot=              5.3557
 Quadrupole moment (field-independent basis, Debye-Ang):
   XX=           -189.8336   YY=           -176.6131   ZZ=           -179.0971
   XY=            -13.7997   XZ=            -10.3655   YZ=             -4.8912

 Normal termination of Gaussian 16 at Sat Nov  5 12:09:44 2022.
