 Gaussian 16, Revision B.01,
 Gaussian 16:  ES64L-G16RevB.01 20-Dec-2017

 -------------------------------------------------------------------
 #p b3lyp/6-31g(d) 6D 10F nosymm GFInput td=(50-50,nstate=2) SCF=XQC
 -------------------------------------------------------------------

 ------------------------------
 Gaussian input prepared by ASE
 ------------------------------
 Symbolic Z-matrix:
 Charge =  0 Multiplicity = 1

                          Input orientation:
 ---------------------------------------------------------------------
 Center     Atomic      Atomic             Coordinates (Angstroms)
 Number     Number       Type             X           Y           Z
 ---------------------------------------------------------------------
      1          6           0        8.511955   -2.506946    0.057833
      2          6           0        7.311591   -2.626709    0.622259
      3          6           0        6.301581   -1.521221    0.678871
      4          8           0        5.063749   -2.032446    0.173265
      5          6           0        3.975786   -1.216676    0.202360
      6          6           0        3.955727    0.115628    0.629653
      7          6           0        2.769467    0.857585    0.598362
      8          6           0        1.593314    0.261307    0.160315
      9          6           0        1.597236   -1.068670   -0.264292
     10          9           0        0.462028   -1.652496   -0.683321
     11          6           0        2.777731   -1.796882   -0.250316
     12          9           0        2.765913   -3.074719   -0.657934
     13          8           0        0.418185    0.968675    0.083991
     14          6           0        0.158505    1.939135    1.050411
     15          6           0       -1.150078    2.266739    1.216273
     16          9           0       -1.383797    3.263625    2.114815
     17          6           0       -2.382969    1.733139    0.631059
     18          6           0       -3.564306    2.138032    1.134132
     19          6           0       -2.340485    0.775131   -0.559474
     20          6           0       -1.965095    1.514871   -1.853581
     21          8           0       -3.634337    0.186964   -0.702262
     22          6           0       -3.618379   -1.124168   -1.247940
     23          6           0       -5.048990   -1.618407   -1.477989
     24          6           0       -5.827598   -0.684865   -2.427095
     25          6           0       -5.844358   -1.890854   -0.219159
     26          6           0       -5.521982   -1.571072    1.034780
     27          6           0        1.323918    2.533501    1.728591
     28          6           0        1.291511    3.201814    2.893641
     29          6           0        2.644463    2.305735    1.004414
     30          1           0        9.231504   -3.320551    0.070087
     31          1           0        8.824826   -1.589132   -0.435796
     32          1           0        7.013572   -3.557198    1.102805
     33          1           0        6.153300   -1.184568    1.717073
     34          1           0        6.631003   -0.657865    0.084240
     35          1           0        4.863633    0.592608    0.980235
     36          1           0       -4.488748    1.750189    0.726723
     37          1           0       -3.622951    2.840743    1.955939
     38          1           0       -1.609449   -0.016402   -0.368301
     39          1           0       -0.981628    1.985234   -1.773414
     40          1           0       -2.713097    2.286687   -2.061535
     41          1           0       -1.937571    0.818255   -2.698580
     42          1           0       -3.084427   -1.131785   -2.211469
     43          1           0       -3.085276   -1.808931   -0.569321
     44          1           0       -4.936666   -2.586415   -1.994166
     45          1           0       -5.926046    0.310910   -1.986791
     46          1           0       -6.832389   -1.075889   -2.623550
     47          1           0       -5.310219   -0.585755   -3.388985
     48          1           0       -6.789775   -2.407323   -0.398577
     49          1           0       -6.176203   -1.829447    1.863770
     50          1           0       -4.612825   -1.030859    1.278680
     51          1           0        2.210390    3.599378    3.315499
     52          1           0        0.380803    3.372814    3.450030
     53          1           0        2.677711    2.938262    0.102975
     54          1           0        3.480239    2.611293    1.640410
 ---------------------------------------------------------------------

 SCF Done:  E(RB3LYP) =  -1416.53191398     A.U. after   14 cycles

 Excitation energies and oscillator strengths:

 Excited state symmetry could not be determined.
 Excited State   1:      Triplet-?Sym    2.0006 eV  619.72 nm  f=0.0000  <S**2>=2.000
     102 ->112         0.10581
     106 ->108        -0.22443
     107 ->108         0.66271
     107 <-108         0.13810
 This state for optimization and/or second-order correction.
 Total Energy, E(TD-HF/TD-DFT) =  -1416.45839201
 Copying the excited state density for this state as the 1-particle RhoCI density.

 Excited state symmetry could not be determined.
 Excited State   2:      Triplet-?Sym    3.5658 eV  347.70 nm  f=0.0000  <S**2>=2.000
     103 ->109        -0.31113
     106 ->108        -0.26389
     106 ->109         0.17558
     106 ->111         0.34460
     107 ->111         0.34457

 Excited state symmetry could not be determined.
 Excited State   3:      Singlet-?Sym    3.8723 eV  320.18 nm  f=0.2717  <S**2>=0.000
     106 ->108         0.28607
     107 ->108         0.64037

 Excited state symmetry could not be determined.
 Excited State   4:      Singlet-?Sym    4.4639 eV  277.75 nm  f=0.1142  <S**2>=0.000
     106 ->108         0.50632
     107 ->108        -0.18162
     107 ->109         0.43725

 Alpha  occ. eigenvalues --  -24.72258 -24.71417 -24.70616 -19.20637 -19.19067
 Alpha  occ. eigenvalues --  -19.13968 -10.28615 -10.28112 -10.27462 -10.26676
 Alpha  occ. eigenvalues --  -10.26175 -10.26107 -10.25968 -10.23528 -10.22351
 Alpha  occ. eigenvalues --  -10.21706 -10.21531 -10.21240 -10.20741 -10.20569
 Alpha  occ. eigenvalues --  -10.20105 -10.19862 -10.18959 -10.18899 -10.17725
 Alpha  occ. eigenvalues --  -10.17570 -10.16897 -10.16819 -10.16412  -1.23757
 Alpha  occ. eigenvalues --   -1.22253  -1.21612  -1.09610  -1.07776  -1.02497
 Alpha  occ. eigenvalues --   -0.87971  -0.83690  -0.82142  -0.81009  -0.79766
 Alpha  occ. eigenvalues --   -0.77965  -0.76401  -0.73740  -0.72547  -0.72025
 Alpha  occ. eigenvalues --   -0.70643  -0.69419  -0.67261  -0.63999  -0.63488
 Alpha  occ. eigenvalues --   -0.62316  -0.61712  -0.59604  -0.58359  -0.57447
 Alpha  occ. eigenvalues --   -0.56661  -0.55589  -0.53895  -0.53008  -0.52506
 Alpha  occ. eigenvalues --   -0.51527  -0.50703  -0.49985  -0.49375  -0.48968
 Alpha  occ. eigenvalues --   -0.48585  -0.48301  -0.47096  -0.46310  -0.45964
 Alpha  occ. eigenvalues --   -0.45881  -0.44982  -0.44740  -0.44260  -0.43392
 Alpha  occ. eigenvalues --   -0.42936  -0.42556  -0.42431  -0.41814  -0.41193
 Alpha  occ. eigenvalues --   -0.40508  -0.40373  -0.39754  -0.39543  -0.38451
 Alpha  occ. eigenvalues --   -0.38238  -0.37701  -0.37234  -0.37101  -0.37031
 Alpha  occ. eigenvalues --   -0.36435  -0.35695  -0.34992  -0.34418  -0.33745
 Alpha  occ. eigenvalues --   -0.32673  -0.32582  -0.32163  -0.29862  -0.29365
 Alpha  occ. eigenvalues --   -0.27806  -0.27427  -0.25020  -0.24999  -0.23938
 Alpha  occ. eigenvalues --   -0.22838  -0.19868
 Alpha virt. eigenvalues --   -0.04835  -0.00941  -0.00234   0.00298   0.02992
 Alpha virt. eigenvalues --    0.03357   0.04853   0.08404   0.08699   0.09889
 Alpha virt. eigenvalues --    0.10289   0.10632   0.11117   0.12175   0.12542

 Mulliken charges:
               1
     1  C   -0.331664
     2  C   -0.052323
     3  C   -0.084102
     4  O   -0.517604
     5  C    0.335277
     6  C   -0.279183
     7  C    0.130803
     8  C    0.260267
     9  C    0.259361
    10  F   -0.273636
    11  C    0.259898
    12  F   -0.272520
    13  O   -0.575180
    14  C    0.236335
    15  C    0.264852
    16  F   -0.293704
    17  C    0.105969
    18  C   -0.391349
    19  C    0.100924
    20  C   -0.451631
    21  O   -0.501683
    22  C   -0.023990
    23  C   -0.131730
    24  C   -0.442530
    25  C   -0.059162
    26  C   -0.340669
    27  C    0.172383
    28  C   -0.408785
    29  C   -0.409020
    30  H    0.153864
    31  H    0.144870
    32  H    0.152022
    33  H    0.152392
    34  H    0.148456
    35  H    0.141866
    36  H    0.179998
    37  H    0.154828
    38  H    0.149880
    39  H    0.155359
    40  H    0.153416
    41  H    0.146302
    42  H    0.121005
    43  H    0.133089
    44  H    0.132645
    45  H    0.169301
    46  H    0.138650
    47  H    0.136912
    48  H    0.117638
    49  H    0.130312
    50  H    0.155324
    51  H    0.138602
    52  H    0.168983
    53  H    0.180462
    54  H    0.158220
 Sum of Mulliken charges =  -0.00000

 Dipole moment (field-independent basis, Debye):
    X=              4.3907    Y=              1.0471    Z=              0.5278  Tot=              4.5445
 Quadrupole moment (field-independent basis, Debye-Ang):
   XX=           -141.2708   YY=           -171.3769   ZZ=           -165.1973
   XY=              7.9333   XZ=              8.9903   YZ=              0.0723

 Normal termination of Gaussian 16 at Sat Nov  5 12:25:39 2022.
