 Gaussian 16, Revision B.01,
 Gaussian 16:  ES64L-G16RevB.01 20-Dec-2017

 -----------------------------
 #p b3lyp/6-31g(d) opt SCF=XQC
 -----------------------------

 ------------------------------
 Gaussian input prepared by ASE
 ------------------------------
 Symbolic Z-matrix:
 Charge =  0 Multiplicity = 1

 SCF Done:  E(RB3LYP) =  -1416.52555879     A.U. after   15 cycles
 SCF Done:  E(RB3LYP) =  -1416.53004770     A.U. after   12 cycles
 SCF Done:  E(RB3LYP) =  -1416.53070013     A.U. after   12 cycles
 SCF Done:  E(RB3LYP) =  -1416.53114264     A.U. after   11 cycles
 SCF Done:  E(RB3LYP) =  -1416.53136850     A.U. after   11 cycles
 SCF Done:  E(RB3LYP) =  -1416.53150007     A.U. after   11 cycles
 SCF Done:  E(RB3LYP) =  -1416.53159192     A.U. after   11 cycles
 SCF Done:  E(RB3LYP) =  -1416.53166445     A.U. after   11 cycles
 SCF Done:  E(RB3LYP) =  -1416.53172934     A.U. after   10 cycles
 SCF Done:  E(RB3LYP) =  -1416.53179893     A.U. after   11 cycles
 SCF Done:  E(RB3LYP) =  -1416.53186160     A.U. after   10 cycles
 SCF Done:  E(RB3LYP) =  -1416.53189746     A.U. after   10 cycles
 SCF Done:  E(RB3LYP) =  -1416.53190524     A.U. after    9 cycles
 SCF Done:  E(RB3LYP) =  -1416.53190894     A.U. after    9 cycles
 SCF Done:  E(RB3LYP) =  -1416.53190936     A.U. after    9 cycles
 SCF Done:  E(RB3LYP) =  -1416.53190981     A.U. after    8 cycles
 SCF Done:  E(RB3LYP) =  -1416.53190990     A.U. after    7 cycles
 SCF Done:  E(RB3LYP) =  -1416.53190995     A.U. after    7 cycles
 SCF Done:  E(RB3LYP) =  -1416.53190997     A.U. after    7 cycles
 SCF Done:  E(RB3LYP) =  -1416.53190998     A.U. after    6 cycles
 Optimization completed.
    -- Stationary point found.

                         Standard orientation:
 ---------------------------------------------------------------------
 Center     Atomic      Atomic             Coordinates (Angstroms)
 Number     Number       Type             X           Y           Z
 ---------------------------------------------------------------------
      1          6           0        8.438869   -1.565603   -0.142213
      2          6           0        7.319610   -1.515322    0.577875
      3          6           0        6.178087   -0.590395    0.283149
      4          8           0        4.981503   -1.374355    0.230139
      5          6           0        3.799859   -0.725619    0.048897
      6          6           0        3.637001    0.649351   -0.153470
      7          6           0        2.363066    1.197182   -0.342316
      8          6           0        1.244760    0.373238   -0.306577
      9          6           0        1.391610   -0.999772   -0.100608
     10          9           0        0.313689   -1.800709   -0.059123
     11          6           0        2.656485   -1.543688    0.067633
     12          9           0        2.782226   -2.863993    0.267992
     13          8           0       -0.017435    0.870908   -0.521772
     14          6           0       -0.320786    2.148363   -0.053499
     15          6           0       -1.642168    2.407146    0.131449
     16          9           0       -1.929393    3.679539    0.524264
     17          6           0       -2.837791    1.567750    0.016892
     18          6           0       -4.014636    2.057958    0.449684
     19          6           0       -2.770036    0.182319   -0.625715
     20          6           0       -2.612547    0.285584   -2.151291
     21          8           0       -3.979849   -0.510670   -0.315070
     22          6           0       -3.834230   -1.920650   -0.226531
     23          6           0       -5.199342   -2.580820   -0.015610
     24          6           0       -6.176932   -2.244045   -1.159916
     25          6           0       -5.837654   -2.319295    1.331851
     26          6           0       -5.453395   -1.442312    2.260181
     27          6           0        0.808123    3.078214    0.126295
     28          6           0        0.787302    4.195603    0.871978
     29          6           0        2.079099    2.656872   -0.599819
     30          1           0        9.260221   -2.223911    0.125867
     31          1           0        8.580372   -0.947631   -1.026536
     32          1           0        7.193340   -2.149249    1.454084
     33          1           0        6.076731    0.165561    1.077783
     34          1           0        6.334487   -0.065075   -0.669252
     35          1           0        4.499078    1.305830   -0.177337
     36          1           0       -4.910055    1.453639    0.386282
     37          1           0       -4.095948    3.048689    0.879162
     38          1           0       -1.924729   -0.374609   -0.210057
     39          1           0       -1.698586    0.820207   -2.422820
     40          1           0       -3.473395    0.816026   -2.570846
     41          1           0       -2.564799   -0.712758   -2.599719
     42          1           0       -3.390258   -2.318978   -1.152692
     43          1           0       -3.156208   -2.178725    0.602508
     44          1           0       -5.002485   -3.664759   -0.064779
     45          1           0       -6.370470   -1.168579   -1.192218
     46          1           0       -7.132820   -2.762469   -1.023485
     47          1           0       -5.763619   -2.548178   -2.129148
     48          1           0       -6.716478   -2.936599    1.530213
     49          1           0       -5.991799   -1.350914    3.200263
     50          1           0       -4.607946   -0.777753    2.113679
     51          1           0        1.677175    4.814631    0.944715
     52          1           0       -0.086137    4.524282    1.417206
     53          1           0        1.947672    2.814267   -1.682289
     54          1           0        2.918085    3.284100   -0.285070
 ---------------------------------------------------------------------

 The electronic state is 1-A.
 Alpha  occ. eigenvalues --  -24.72258 -24.71417 -24.70616 -19.20637 -19.19067
 Alpha  occ. eigenvalues --  -19.13968 -10.28615 -10.28112 -10.27462 -10.26676
 Alpha  occ. eigenvalues --  -10.26175 -10.26107 -10.25968 -10.23528 -10.22351
 Alpha  occ. eigenvalues --  -10.21706 -10.21531 -10.21240 -10.20741 -10.20569
 Alpha  occ. eigenvalues --  -10.20105 -10.19862 -10.18959 -10.18898 -10.17726
 Alpha  occ. eigenvalues --  -10.17570 -10.16897 -10.16819 -10.16412  -1.23757
 Alpha  occ. eigenvalues --   -1.22253  -1.21612  -1.09610  -1.07776  -1.02497
 Alpha  occ. eigenvalues --   -0.87971  -0.83690  -0.82142  -0.81009  -0.79766
 Alpha  occ. eigenvalues --   -0.77965  -0.76401  -0.73740  -0.72547  -0.72025
 Alpha  occ. eigenvalues --   -0.70643  -0.69419  -0.67261  -0.63999  -0.63488
 Alpha  occ. eigenvalues --   -0.62316  -0.61712  -0.59604  -0.58359  -0.57447
 Alpha  occ. eigenvalues --   -0.56661  -0.55589  -0.53895  -0.53008  -0.52506
 Alpha  occ. eigenvalues --   -0.51527  -0.50703  -0.49985  -0.49375  -0.48968
 Alpha  occ. eigenvalues --   -0.48585  -0.48301  -0.47096  -0.46310  -0.45964
 Alpha  occ. eigenvalues --   -0.45881  -0.44982  -0.44740  -0.44259  -0.43392
 Alpha  occ. eigenvalues --   -0.42936  -0.42556  -0.42431  -0.41814  -0.41193
 Alpha  occ. eigenvalues --   -0.40508  -0.40373  -0.39754  -0.39543  -0.38451
 Alpha  occ. eigenvalues --   -0.38238  -0.37701  -0.37234  -0.37101  -0.37031
 Alpha  occ. eigenvalues --   -0.36435  -0.35695  -0.34992  -0.34418  -0.33745
 Alpha  occ. eigenvalues --   -0.32673  -0.32582  -0.32163  -0.29862  -0.29365
 Alpha  occ. eigenvalues --   -0.27806  -0.27427  -0.25021  -0.24999  -0.23938
 Alpha  occ. eigenvalues --   -0.22838  -0.19868
 Alpha virt. eigenvalues --   -0.04835  -0.00941  -0.00234   0.00298   0.02993
 Alpha virt. eigenvalues --    0.03357   0.04853   0.08404   0.08699   0.09889
 Alpha virt. eigenvalues --    0.10289   0.10632   0.11117   0.12175   0.12542

 Mulliken charges:
               1
     1  C   -0.331662
     2  C   -0.052325
     3  C   -0.084101
     4  O   -0.517606
     5  C    0.335281
     6  C   -0.279180
     7  C    0.130805
     8  C    0.260249
     9  C    0.259372
    10  F   -0.273638
    11  C    0.259890
    12  F   -0.272520
    13  O   -0.575197
    14  C    0.236339
    15  C    0.264857
    16  F   -0.293704
    17  C    0.105995
    18  C   -0.391353
    19  C    0.100909
    20  C   -0.451632
    21  O   -0.501677
    22  C   -0.024007
    23  C   -0.131731
    24  C   -0.442528
    25  C   -0.059153
    26  C   -0.340670
    27  C    0.172397
    28  C   -0.408796
    29  C   -0.409016
    30  H    0.153863
    31  H    0.144870
    32  H    0.152022
    33  H    0.152392
    34  H    0.148456
    35  H    0.141865
    36  H    0.179998
    37  H    0.154828
    38  H    0.149889
    39  H    0.155358
    40  H    0.153421
    41  H    0.146298
    42  H    0.121006
    43  H    0.133090
    44  H    0.132646
    45  H    0.169292
    46  H    0.138652
    47  H    0.136915
    48  H    0.117638
    49  H    0.130312
    50  H    0.155324
    51  H    0.138602
    52  H    0.168984
    53  H    0.180463
    54  H    0.158218
 Sum of Mulliken charges =  -0.00000

 Dipole moment (field-independent basis, Debye):
    X=              4.2378    Y=              1.5282    Z=             -0.5994  Tot=              4.5446
 Quadrupole moment (field-independent basis, Debye-Ang):
   XX=           -145.1746   YY=           -168.2249   ZZ=           -167.0955
   XY=             12.8890   XZ=              0.5339   YZ=              0.8718

 Normal termination of Gaussian 16 at Fri Nov  4 20:03:15 2022.
