 Gaussian 16, Revision B.01,
 Gaussian 16:  ES64L-G16RevB.01 20-Dec-2017

 -------------------------------------------------------------------
 #p b3lyp/6-31g(d) 6D 10F nosymm GFInput td=(50-50,nstate=2) SCF=XQC
 -------------------------------------------------------------------

 ------------------------------
 Gaussian input prepared by ASE
 ------------------------------
 Symbolic Z-matrix:
 Charge =  0 Multiplicity = 1

                          Input orientation:
 ---------------------------------------------------------------------
 Center     Atomic      Atomic             Coordinates (Angstroms)
 Number     Number       Type             X           Y           Z
 ---------------------------------------------------------------------
      1          8           0       -0.726459    4.985186   -2.159187
      2          6           0       -1.662532    5.002201   -1.391242
      3          6           0       -1.917771    3.968919   -0.316754
      4          6           0       -0.882556    2.844649   -0.269577
      5          6           0       -1.181039    1.828414    0.840892
      6          7           0       -0.198418    0.750175    0.892916
      7          6           0        1.096613    1.082688    1.471044
      8          6           0        2.217422    0.392032    0.736606
      9          7           0        3.451968    0.272270    1.169791
     10          6           0        4.116031   -0.390525    0.145790
     11          6           0        5.455426   -0.789545    0.051762
     12          6           0        5.861237   -1.462730   -1.096625
     13          6           0        4.957887   -1.740726   -2.142459
     14          6           0        3.622355   -1.351412   -2.072046
     15          6           0        3.220866   -0.673657   -0.918710
     16          7           0        2.011002   -0.144198   -0.511912
     17          6           0       -0.699646   -0.585866    1.223299
     18          6           0       -1.504110   -0.675072    2.538669
     19          6           0       -2.189545   -2.036951    2.684935
     20          6           0       -3.213272   -2.227847    1.559545
     21          6           0       -2.615989   -1.964709    0.190557
     22          6           0       -3.205951   -2.497353   -0.962097
     23          6           0       -2.635091   -2.268923   -2.208656
     24          6           0       -1.460779   -1.518027   -2.260095
     25          7           0       -0.881194   -0.997330   -1.176242
     26          6           0       -1.449854   -1.194850    0.028175
     27          1           0       -2.418841    5.819288   -1.439406
     28          1           0       -2.935493    3.577150   -0.478229
     29          1           0       -1.975759    4.507364    0.643495
     30          1           0       -0.853412    2.319661   -1.229908
     31          1           0        0.112303    3.284889   -0.135862
     32          1           0       -1.281842    2.352301    1.810648
     33          1           0       -2.158457    1.375516    0.636065
     34          1           0        1.183154    0.849571    2.546016
     35          1           0        1.242356    2.165695    1.387662
     36          1           0        6.147735   -0.574016    0.860275
     37          1           0        6.895585   -1.782119   -1.193193
     38          1           0        5.311436   -2.268568   -3.024254
     39          1           0        2.928682   -1.563795   -2.880929
     40          1           0        1.087603   -0.244472   -0.941445
     41          1           0        0.194712   -1.211921    1.351523
     42          1           0       -2.270755    0.110660    2.561146
     43          1           0       -0.831163   -0.482095    3.382313
     44          1           0       -1.439711   -2.839143    2.643339
     45          1           0       -2.684872   -2.117658    3.659603
     46          1           0       -4.060254   -1.544451    1.724668
     47          1           0       -3.634624   -3.240646    1.584123
     48          1           0       -4.109940   -3.096410   -0.872716
     49          1           0       -3.073900   -2.672611   -3.115976
     50          1           0       -0.961148   -1.331002   -3.208900
 ---------------------------------------------------------------------

 SCF Done:  E(RB3LYP) =  -1108.92569280     A.U. after   15 cycles

 Excitation energies and oscillator strengths:

 Excited state symmetry could not be determined.
 Excited State   1:      Triplet-?Sym    3.4974 eV  354.50 nm  f=0.0000  <S**2>=2.000
      91 -> 97         0.10432
      92 -> 97        -0.28567
      92 -> 98         0.19234
      93 -> 95         0.10323
      93 -> 97         0.56342
 This state for optimization and/or second-order correction.
 Total Energy, E(TD-HF/TD-DFT) =  -1108.79716442
 Copying the excited state density for this state as the 1-particle RhoCI density.

 Excited state symmetry could not be determined.
 Excited State   2:      Triplet-?Sym    3.6735 eV  337.51 nm  f=0.0000  <S**2>=2.000
      85 -> 94        -0.24538
      87 -> 94         0.10126
      88 -> 95         0.27067
      91 -> 94         0.49434
      91 -> 95         0.13839
      93 -> 94        -0.25960

 Excited state symmetry could not be determined.
 Excited State   3:      Singlet-?Sym    3.8067 eV  325.70 nm  f=0.0022  <S**2>=0.000
      91 -> 94        -0.39448
      93 -> 94         0.58314

 Excited state symmetry could not be determined.
 Excited State   4:      Singlet-?Sym    3.9700 eV  312.30 nm  f=0.0011  <S**2>=0.000
      91 -> 94         0.57963
      93 -> 94         0.39883

 Alpha  occ. eigenvalues --  -19.15229 -14.35633 -14.34586 -14.33104 -14.29055
 Alpha  occ. eigenvalues --  -10.28063 -10.23872 -10.23507 -10.23298 -10.23021
 Alpha  occ. eigenvalues --  -10.21985 -10.21891 -10.21829 -10.21701 -10.21042
 Alpha  occ. eigenvalues --  -10.20653 -10.20467 -10.20034 -10.19909 -10.19402
 Alpha  occ. eigenvalues --  -10.18749 -10.18474 -10.17444 -10.16919 -10.16609
 Alpha  occ. eigenvalues --  -10.16531  -1.04786  -0.99188  -0.95898  -0.92727
 Alpha  occ. eigenvalues --   -0.85132  -0.84281  -0.82113  -0.81315  -0.79891
 Alpha  occ. eigenvalues --   -0.76393  -0.75287  -0.74023  -0.72003  -0.70344
 Alpha  occ. eigenvalues --   -0.67659  -0.65265  -0.64013  -0.62952  -0.60292
 Alpha  occ. eigenvalues --   -0.59594  -0.57656  -0.57336  -0.56235  -0.55967
 Alpha  occ. eigenvalues --   -0.52368  -0.51945  -0.50671  -0.50289  -0.48675
 Alpha  occ. eigenvalues --   -0.48250  -0.47712  -0.47459  -0.45805  -0.45172
 Alpha  occ. eigenvalues --   -0.44544  -0.43895  -0.43493  -0.42732  -0.42307
 Alpha  occ. eigenvalues --   -0.41898  -0.41531  -0.41170  -0.40950  -0.40622
 Alpha  occ. eigenvalues --   -0.40266  -0.38508  -0.38405  -0.37895  -0.36678
 Alpha  occ. eigenvalues --   -0.36227  -0.35915  -0.35414  -0.34677  -0.34457
 Alpha  occ. eigenvalues --   -0.33926  -0.33624  -0.33203  -0.31441  -0.29378
 Alpha  occ. eigenvalues --   -0.28108  -0.27102  -0.26270  -0.25562  -0.25009
 Alpha  occ. eigenvalues --   -0.21333  -0.20574  -0.20002
 Alpha virt. eigenvalues --   -0.04031  -0.02222  -0.02160   0.00603   0.04334
 Alpha virt. eigenvalues --    0.06899   0.07409   0.08740   0.09033   0.09521
 Alpha virt. eigenvalues --    0.10590   0.11174   0.11505   0.11896   0.12432

 Mulliken charges:
               1
     1  O   -0.377890
     2  C    0.254872
     3  C   -0.357027
     4  C   -0.255938
     5  C   -0.127808
     6  N   -0.402188
     7  C   -0.215942
     8  C    0.489717
     9  N   -0.563469
    10  C    0.227720
    11  C   -0.187937
    12  C   -0.143842
    13  C   -0.152246
    14  C   -0.172945
    15  C    0.337268
    16  N   -0.735362
    17  C   -0.042845
    18  C   -0.281207
    19  C   -0.274662
    20  C   -0.346375
    21  C    0.125690
    22  C   -0.152035
    23  C   -0.147504
    24  C    0.045959
    25  N   -0.485460
    26  C    0.259269
    27  H    0.104513
    28  H    0.159114
    29  H    0.161736
    30  H    0.166891
    31  H    0.159402
    32  H    0.118168
    33  H    0.136160
    34  H    0.153628
    35  H    0.172255
    36  H    0.129181
    37  H    0.116682
    38  H    0.117221
    39  H    0.120891
    40  H    0.381936
    41  H    0.167920
    42  H    0.139639
    43  H    0.146850
    44  H    0.147333
    45  H    0.142065
    46  H    0.155700
    47  H    0.152103
    48  H    0.140924
    49  H    0.144245
    50  H    0.147625
 Sum of Mulliken charges =  -0.00000

 Dipole moment (field-independent basis, Debye):
    X=             -8.1893    Y=             -1.9458    Z=              1.1409  Tot=              8.4943
 Quadrupole moment (field-independent basis, Debye-Ang):
   XX=           -153.2915   YY=           -150.2476   ZZ=           -149.6125
   XY=             -2.2978   XZ=             -3.0345   YZ=             12.1156

 Normal termination of Gaussian 16 at Sat Nov  5 12:16:55 2022.
