 Gaussian 16, Revision B.01,
 Gaussian 16:  ES64L-G16RevB.01 20-Dec-2017

 -----------------------------
 #p b3lyp/6-31g(d) opt SCF=XQC
 -----------------------------

 ------------------------------
 Gaussian input prepared by ASE
 ------------------------------
 Symbolic Z-matrix:
 Charge =  0 Multiplicity = 1

 SCF Done:  E(RB3LYP) =  -1108.91727507     A.U. after   14 cycles
 SCF Done:  E(RB3LYP) =  -1108.91992621     A.U. after   14 cycles
 SCF Done:  E(RB3LYP) =  -1108.92378578     A.U. after   13 cycles
 SCF Done:  E(RB3LYP) =  -1108.92456955     A.U. after   12 cycles
 SCF Done:  E(RB3LYP) =  -1108.92499278     A.U. after   12 cycles
 SCF Done:  E(RB3LYP) =  -1108.92470254     A.U. after   13 cycles
 SCF Done:  E(RB3LYP) =  -1108.92535452     A.U. after   11 cycles
 SCF Done:  E(RB3LYP) =  -1108.92522787     A.U. after   12 cycles
 SCF Done:  E(RB3LYP) =  -1108.92553470     A.U. after   11 cycles
 SCF Done:  E(RB3LYP) =  -1108.92559751     A.U. after   11 cycles
 SCF Done:  E(RB3LYP) =  -1108.92564870     A.U. after   10 cycles
 SCF Done:  E(RB3LYP) =  -1108.92567294     A.U. after   10 cycles
 SCF Done:  E(RB3LYP) =  -1108.92567608     A.U. after    9 cycles
 SCF Done:  E(RB3LYP) =  -1108.92568154     A.U. after   10 cycles
 SCF Done:  E(RB3LYP) =  -1108.92568690     A.U. after   10 cycles
 SCF Done:  E(RB3LYP) =  -1108.92568805     A.U. after    8 cycles
 SCF Done:  E(RB3LYP) =  -1108.92568820     A.U. after    7 cycles
 SCF Done:  E(RB3LYP) =  -1108.92568832     A.U. after    7 cycles
 Optimization completed.
    -- Stationary point found.

                         Standard orientation:
 ---------------------------------------------------------------------
 Center     Atomic      Atomic             Coordinates (Angstroms)
 Number     Number       Type             X           Y           Z
 ---------------------------------------------------------------------
      1          8           0        1.597821    5.022837    1.447208
      2          6           0        2.610124    4.768295    0.833438
      3          6           0        2.810686    3.545496   -0.033672
      4          6           0        1.607707    2.602658   -0.075791
      5          6           0        1.857959    1.383856   -0.974048
      6          7           0        0.715043    0.476926   -1.019547
      7          6           0       -0.419444    0.906123   -1.826165
      8          6           0       -1.726567    0.527490   -1.177563
      9          7           0       -2.899556    0.530572   -1.769323
     10          6           0       -3.791628    0.156040   -0.772935
     11          6           0       -5.181505   -0.009995   -0.824983
     12          6           0       -5.838625   -0.414145    0.333254
     13          6           0       -5.135010   -0.652716    1.531211
     14          6           0       -3.753540   -0.491653    1.607161
     15          6           0       -3.099223   -0.083197    0.442789
     16          7           0       -1.774115    0.178510    0.150933
     17          6           0        1.010311   -0.956491   -1.078859
     18          6           0        1.943244   -1.384181   -2.232997
     19          6           0        2.391032   -2.840989   -2.080910
     20          6           0        3.217672   -3.000248   -0.799402
     21          6           0        2.511030   -2.426351    0.413618
     22          6           0        2.850545   -2.846942    1.705209
     23          6           0        2.178772   -2.331079    2.807289
     24          6           0        1.157783   -1.409440    2.575641
     25          7           0        0.817772   -0.990778    1.354618
     26          6           0        1.487614   -1.469257    0.289077
     27          1           0        3.486547    5.455195    0.878218
     28          1           0        3.715578    3.032950    0.332094
     29          1           0        3.081104    3.903138   -1.040811
     30          1           0        1.367816    2.253675    0.933844
     31          1           0        0.730233    3.163449   -0.417825
     32          1           0        2.168803    1.719129   -1.982023
     33          1           0        2.707358    0.825126   -0.563247
     34          1           0       -0.411751    0.515621   -2.858078
     35          1           0       -0.381484    1.997422   -1.919559
     36          1           0       -5.719438    0.174102   -1.750280
     37          1           0       -6.916907   -0.549381    0.318091
     38          1           0       -5.682468   -0.967206    2.415836
     39          1           0       -3.213769   -0.672836    2.532581
     40          1           0       -0.943253    0.008610    0.723665
     41          1           0        0.042622   -1.449103   -1.249666
     42          1           0        2.832998   -0.741045   -2.251361
     43          1           0        1.424605   -1.230827   -3.186584
     44          1           0        1.512428   -3.499617   -2.038993
     45          1           0        2.981345   -3.156540   -2.949126
     46          1           0        4.185547   -2.492691   -0.930855
     47          1           0        3.453928   -4.056119   -0.617138
     48          1           0        3.638977   -3.585082    1.837789
     49          1           0        2.423783   -2.643008    3.817941
     50          1           0        0.585186   -0.993904    3.402867
 ---------------------------------------------------------------------

 The electronic state is 1-A.
 Alpha  occ. eigenvalues --  -19.15229 -14.35633 -14.34586 -14.33104 -14.29055
 Alpha  occ. eigenvalues --  -10.28063 -10.23872 -10.23507 -10.23298 -10.23021
 Alpha  occ. eigenvalues --  -10.21985 -10.21891 -10.21829 -10.21700 -10.21042
 Alpha  occ. eigenvalues --  -10.20653 -10.20467 -10.20034 -10.19909 -10.19402
 Alpha  occ. eigenvalues --  -10.18749 -10.18474 -10.17444 -10.16919 -10.16609
 Alpha  occ. eigenvalues --  -10.16531  -1.04786  -0.99188  -0.95898  -0.92727
 Alpha  occ. eigenvalues --   -0.85132  -0.84281  -0.82112  -0.81315  -0.79891
 Alpha  occ. eigenvalues --   -0.76393  -0.75287  -0.74023  -0.72003  -0.70344
 Alpha  occ. eigenvalues --   -0.67659  -0.65265  -0.64013  -0.62952  -0.60292
 Alpha  occ. eigenvalues --   -0.59594  -0.57656  -0.57336  -0.56235  -0.55967
 Alpha  occ. eigenvalues --   -0.52368  -0.51945  -0.50671  -0.50289  -0.48675
 Alpha  occ. eigenvalues --   -0.48250  -0.47712  -0.47459  -0.45805  -0.45172
 Alpha  occ. eigenvalues --   -0.44544  -0.43895  -0.43493  -0.42732  -0.42307
 Alpha  occ. eigenvalues --   -0.41898  -0.41531  -0.41170  -0.40950  -0.40622
 Alpha  occ. eigenvalues --   -0.40266  -0.38508  -0.38405  -0.37895  -0.36678
 Alpha  occ. eigenvalues --   -0.36227  -0.35915  -0.35414  -0.34677  -0.34457
 Alpha  occ. eigenvalues --   -0.33926  -0.33624  -0.33203  -0.31441  -0.29378
 Alpha  occ. eigenvalues --   -0.28108  -0.27102  -0.26270  -0.25562  -0.25009
 Alpha  occ. eigenvalues --   -0.21333  -0.20574  -0.20002
 Alpha virt. eigenvalues --   -0.04031  -0.02222  -0.02160   0.00603   0.04334
 Alpha virt. eigenvalues --    0.06899   0.07409   0.08740   0.09033   0.09521
 Alpha virt. eigenvalues --    0.10590   0.11174   0.11505   0.11896   0.12432

 Mulliken charges:
               1
     1  O   -0.377893
     2  C    0.254876
     3  C   -0.357048
     4  C   -0.255920
     5  C   -0.127800
     6  N   -0.402197
     7  C   -0.215938
     8  C    0.489708
     9  N   -0.563465
    10  C    0.227717
    11  C   -0.187933
    12  C   -0.143841
    13  C   -0.152248
    14  C   -0.172950
    15  C    0.337282
    16  N   -0.735367
    17  C   -0.042864
    18  C   -0.281204
    19  C   -0.274667
    20  C   -0.346372
    21  C    0.125682
    22  C   -0.152008
    23  C   -0.147533
    24  C    0.045983
    25  N   -0.485489
    26  C    0.259299
    27  H    0.104513
    28  H    0.159117
    29  H    0.161741
    30  H    0.166891
    31  H    0.159400
    32  H    0.118164
    33  H    0.136157
    34  H    0.153627
    35  H    0.172256
    36  H    0.129180
    37  H    0.116681
    38  H    0.117220
    39  H    0.120898
    40  H    0.381934
    41  H    0.167923
    42  H    0.139641
    43  H    0.146852
    44  H    0.147333
    45  H    0.142065
    46  H    0.155698
    47  H    0.152102
    48  H    0.140923
    49  H    0.144245
    50  H    0.147624
 Sum of Mulliken charges =  -0.00000

 Dipole moment (field-independent basis, Debye):
    X=              7.7962    Y=             -3.3501    Z=              0.3846  Tot=              8.4943
 Quadrupole moment (field-independent basis, Debye-Ang):
   XX=           -146.7442   YY=           -154.2124   ZZ=           -147.3938
   XY=              1.6087   XZ=             -6.3552   YZ=            -10.1221

 Normal termination of Gaussian 16 at Fri Nov  4 20:04:02 2022.
