 Gaussian 16, Revision B.01,
 Gaussian 16:  ES64L-G16RevB.01 20-Dec-2017

 -----------------------------
 #p b3lyp/6-31g(d) opt SCF=XQC
 -----------------------------

 ------------------------------
 Gaussian input prepared by ASE
 ------------------------------
 Symbolic Z-matrix:
 Charge =  0 Multiplicity = 1

 SCF Done:  E(RB3LYP) =  -3251.40000760     A.U. after   15 cycles
 SCF Done:  E(RB3LYP) =  -3251.42357044     A.U. after   15 cycles
 SCF Done:  E(RB3LYP) =  -3251.43684864     A.U. after   14 cycles
 SCF Done:  E(RB3LYP) =  -3251.44038782     A.U. after   14 cycles
 SCF Done:  E(RB3LYP) =  -3251.44163508     A.U. after   13 cycles
 SCF Done:  E(RB3LYP) =  -3251.44242219     A.U. after   13 cycles
 SCF Done:  E(RB3LYP) =  -3251.44318122     A.U. after   12 cycles
 SCF Done:  E(RB3LYP) =  -3251.44383831     A.U. after   14 cycles
 SCF Done:  E(RB3LYP) =  -3251.44437796     A.U. after   14 cycles
 SCF Done:  E(RB3LYP) =  -3251.44483543     A.U. after   15 cycles
 SCF Done:  E(RB3LYP) =  -3251.44562294     A.U. after   11 cycles
 SCF Done:  E(RB3LYP) =  -3251.44567368     A.U. after   11 cycles
 SCF Done:  E(RB3LYP) =  -3251.44567467     A.U. after    9 cycles
 SCF Done:  E(RB3LYP) =  -3251.44567503     A.U. after    6 cycles
 SCF Done:  E(RB3LYP) =  -3251.44567371     A.U. after   10 cycles
 SCF Done:  E(RB3LYP) =  -3251.44567704     A.U. after    9 cycles
 SCF Done:  E(RB3LYP) =  -3251.44567720     A.U. after   10 cycles
 SCF Done:  E(RB3LYP) =  -3251.44567775     A.U. after    8 cycles
 SCF Done:  E(RB3LYP) =  -3251.44567777     A.U. after    9 cycles
 SCF Done:  E(RB3LYP) =  -3251.44567779     A.U. after    6 cycles
 Optimization completed.
    -- Stationary point found.

                         Standard orientation:
 ---------------------------------------------------------------------
 Center     Atomic      Atomic             Coordinates (Angstroms)
 Number     Number       Type             X           Y           Z
 ---------------------------------------------------------------------
      1          6           0       -9.053205   -2.401787   -0.682486
      2          6           0       -7.808869   -1.600454   -0.385481
      3          6           0       -7.460064   -1.277774    0.933732
      4          6           0       -6.299665   -0.561797    1.218722
      5          6           0       -5.479538   -0.165299    0.162074
      6         16           0       -4.000242    0.757821    0.508479
      7          8           0       -3.597474    1.533028   -0.661158
      8          8           0       -4.099714    1.388273    1.823238
      9          8           0       -2.957172   -0.558210    0.642839
     10          6           0       -1.598768   -0.259698    0.778127
     11          6           0       -1.085981    0.174097    2.000418
     12          6           0        0.280216    0.405237    2.127493
     13          6           0        1.138854    0.215184    1.038194
     14          8           0        2.498728    0.400690    1.160368
     15         16           0        3.145486    1.879712    1.677385
     16          8           0        2.485509    2.254024    2.926458
     17          8           0        4.572442    1.619245    1.615249
     18          6           0        2.660087    3.025676    0.406529
     19          6           0        1.568159    3.867474    0.628355
     20          6           0        1.204146    4.770117   -0.368264
     21          6           0        1.912507    4.841178   -1.575615
     22          6           0        1.490889    5.797697   -2.664368
     23          6           0        3.010690    3.987274   -1.761892
     24          6           0        3.391491    3.075717   -0.782889
     25          6           0        0.607642   -0.247013   -0.180423
     26         16           0        1.595374   -0.616197   -1.637890
     27          8           0        0.699197   -0.699909   -2.783974
     28          8           0        2.798928    0.198418   -1.677572
     29          8           0        2.003526   -2.218512   -1.411231
     30          7           0        2.756579   -2.386726   -0.191030
     31          6           0        3.439695   -3.471758   -0.266302
     32          6           0        3.570267   -4.440525   -1.358098
     33          6           0        4.379540   -5.469906   -1.080219
     34          6           0        5.013512   -5.477632    0.278844
     35         16           0        4.414178   -3.963307    1.143214
     36          6           0       -0.764013   -0.477016   -0.311244
     37          6           0       -5.802653   -0.460494   -1.163766
     38          6           0       -6.967048   -1.176737   -1.425296
     39          1           0       -9.519029   -2.085088   -1.621421
     40          1           0       -8.815449   -3.469139   -0.781442
     41          1           0       -9.794119   -2.304261    0.116980
     42          1           0       -8.108550   -1.586227    1.749585
     43          1           0       -6.037708   -0.301254    2.238433
     44          1           0       -1.754427    0.322730    2.840832
     45          1           0        0.700017    0.736067    3.068707
     46          1           0        1.028687    3.825060    1.567738
     47          1           0        0.357085    5.430618   -0.203097
     48          1           0        2.356488    6.202473   -3.199311
     49          1           0        0.913664    6.635848   -2.261845
     50          1           0        0.859775    5.289103   -3.404891
     51          1           0        3.573915    4.033632   -2.690207
     52          1           0        4.233444    2.411125   -0.934385
     53          1           0        3.043505   -4.287679   -2.291300
     54          1           0        4.594011   -6.273770   -1.779065
     55          1           0        4.731343   -6.366439    0.855575
     56          1           0        6.107864   -5.455102    0.215492
     57          1           0       -1.172195   -0.817553   -1.254798
     58          1           0       -5.159843   -0.122214   -1.969361
     59          1           0       -7.230379   -1.406248   -2.454619
 ---------------------------------------------------------------------

 The electronic state is 1-A.
 Alpha  occ. eigenvalues --  -89.13454 -89.12816 -89.12696 -88.90210 -19.22116
 Alpha  occ. eigenvalues --  -19.21007 -19.20385 -19.16246 -19.16220 -19.15556
 Alpha  occ. eigenvalues --  -19.15346 -19.15254 -19.15195 -14.39086 -10.28286
 Alpha  occ. eigenvalues --  -10.27260 -10.27034 -10.24670 -10.24311 -10.24143
 Alpha  occ. eigenvalues --  -10.23360 -10.22887 -10.22877 -10.22440 -10.22423
 Alpha  occ. eigenvalues --  -10.22190 -10.22123 -10.21725 -10.21537 -10.21488
 Alpha  occ. eigenvalues --  -10.21473 -10.21190 -10.21166 -10.20916 -10.20431
 Alpha  occ. eigenvalues --  -10.20107 -10.19977 -10.19179  -8.15916  -8.15207
 Alpha  occ. eigenvalues --   -8.15119  -7.96365  -6.12512  -6.12283  -6.12173
 Alpha  occ. eigenvalues --   -6.11786  -6.11732  -6.11581  -6.11497  -6.11492
 Alpha  occ. eigenvalues --   -6.11362  -5.92862  -5.92505  -5.91835  -1.14513
 Alpha  occ. eigenvalues --   -1.14424  -1.13761  -1.06508  -1.05432  -1.05180
 Alpha  occ. eigenvalues --   -1.01905  -1.01337  -1.01200  -0.90922  -0.88950
 Alpha  occ. eigenvalues --   -0.88024  -0.87514  -0.84862  -0.81238  -0.79791
 Alpha  occ. eigenvalues --   -0.78985  -0.77446  -0.77104  -0.76045  -0.75643
 Alpha  occ. eigenvalues --   -0.73186  -0.71841  -0.71352  -0.68471  -0.67669
 Alpha  occ. eigenvalues --   -0.65675  -0.63721  -0.63126  -0.62337  -0.61726
 Alpha  occ. eigenvalues --   -0.60129  -0.59598  -0.58977  -0.57122  -0.56221
 Alpha  occ. eigenvalues --   -0.54953  -0.53421  -0.52817  -0.51893  -0.51340
 Alpha  occ. eigenvalues --   -0.50284  -0.49696  -0.49370  -0.48957  -0.48378
 Alpha  occ. eigenvalues --   -0.47998  -0.47216  -0.47189  -0.46707  -0.46635
 Alpha  occ. eigenvalues --   -0.46208  -0.45627  -0.45507  -0.45119  -0.44955
 Alpha  occ. eigenvalues --   -0.44237  -0.44094  -0.43594  -0.43455  -0.43062
 Alpha  occ. eigenvalues --   -0.42751  -0.42120  -0.41069  -0.40813  -0.40528
 Alpha  occ. eigenvalues --   -0.40413  -0.39556  -0.38850  -0.38666  -0.38172
 Alpha  occ. eigenvalues --   -0.37733  -0.37349  -0.36948  -0.36815  -0.35877
 Alpha  occ. eigenvalues --   -0.35669  -0.35434  -0.35020  -0.34746  -0.34603
 Alpha  occ. eigenvalues --   -0.33859  -0.33024  -0.32855  -0.32513  -0.32278
 Alpha  occ. eigenvalues --   -0.32020  -0.31685  -0.30632  -0.30291  -0.29682
 Alpha  occ. eigenvalues --   -0.29378  -0.28278  -0.27821  -0.27795  -0.27369
 Alpha  occ. eigenvalues --   -0.26339  -0.26116  -0.25201  -0.23353
 Alpha virt. eigenvalues --   -0.05561  -0.05507  -0.04808  -0.03926  -0.02778
 Alpha virt. eigenvalues --   -0.02439  -0.01303   0.00808   0.02342   0.03068
 Alpha virt. eigenvalues --    0.04038   0.05473   0.05576   0.06107   0.07104

 Mulliken charges:
               1
     1  C   -0.531984
     2  C    0.183220
     3  C   -0.176330
     4  C   -0.127340
     5  C   -0.164694
     6  S    1.240852
     7  O   -0.505482
     8  O   -0.513746
     9  O   -0.615548
    10  C    0.338410
    11  C   -0.137626
    12  C   -0.155403
    13  C    0.359158
    14  O   -0.586671
    15  S    1.261545
    16  O   -0.531703
    17  O   -0.482357
    18  C   -0.186185
    19  C   -0.132174
    20  C   -0.174748
    21  C    0.183761
    22  C   -0.531241
    23  C   -0.176667
    24  C   -0.100145
    25  C   -0.234229
    26  S    1.301927
    27  O   -0.505547
    28  O   -0.499190
    29  O   -0.451733
    30  N   -0.220286
    31  C    0.087165
    32  C   -0.052849
    33  C   -0.114494
    34  C   -0.480254
    35  S    0.217983
    36  C   -0.165245
    37  C   -0.127977
    38  C   -0.174514
    39  H    0.168370
    40  H    0.178300
    41  H    0.166070
    42  H    0.142749
    43  H    0.182391
    44  H    0.181920
    45  H    0.198501
    46  H    0.180625
    47  H    0.142483
    48  H    0.165217
    49  H    0.163013
    50  H    0.181155
    51  H    0.143009
    52  H    0.193592
    53  H    0.187210
    54  H    0.167466
    55  H    0.202733
    56  H    0.205631
    57  H    0.203749
    58  H    0.184604
    59  H    0.143553
 Sum of Mulliken charges =  -0.00000

 Dipole moment (field-independent basis, Debye):
    X=             -4.8573    Y=             -5.3542    Z=             -2.4117  Tot=              7.6209
 Quadrupole moment (field-independent basis, Debye-Ang):
   XX=           -198.8051   YY=           -195.2842   ZZ=           -247.5300
   XY=             -6.4232   XZ=            -10.6806   YZ=             -7.7954

 Normal termination of Gaussian 16 at Fri Nov  4 22:09:48 2022.
