 Gaussian 16, Revision B.01,
 Gaussian 16:  ES64L-G16RevB.01 20-Dec-2017

 -------------------------------------------------------------------
 #p b3lyp/6-31g(d) 6D 10F nosymm GFInput td=(50-50,nstate=2) SCF=XQC
 -------------------------------------------------------------------

 ------------------------------
 Gaussian input prepared by ASE
 ------------------------------
 Symbolic Z-matrix:
 Charge =  0 Multiplicity = 1

                          Input orientation:
 ---------------------------------------------------------------------
 Center     Atomic      Atomic             Coordinates (Angstroms)
 Number     Number       Type             X           Y           Z
 ---------------------------------------------------------------------
      1          6           0        8.531785    1.225111   -2.159050
      2          6           0        7.244528    0.561079   -1.733903
      3          6           0        7.133910   -0.053880   -0.478634
      4          6           0        5.941711   -0.645508   -0.067534
      5          6           0        4.846423   -0.617911   -0.931192
      6         16           0        3.320742   -1.377419   -0.425318
      7          8           0        2.520444   -1.739627   -1.591314
      8          8           0        3.573014   -2.348592    0.637291
      9          8           0        2.627494   -0.011351    0.275574
     10          6           0        1.300006   -0.136566    0.693628
     11          6           0        0.988833   -0.807344    1.876148
     12          6           0       -0.333958   -0.865096    2.303883
     13          6           0       -1.351872   -0.264915    1.553159
     14          8           0       -2.660273   -0.278820    1.985003
     15         16           0       -3.469606   -1.733517    2.304293
     16          8           0       -2.644259   -2.523811    3.215391
     17          8           0       -4.790128   -1.263335    2.682523
     18          6           0       -3.521726   -2.548945    0.724331
     19          6           0       -2.605909   -3.567446    0.452171
     20          6           0       -2.663473   -4.208291   -0.783354
     21          6           0       -3.617890   -3.846183   -1.743815
     22          6           0       -3.651822   -4.521580   -3.093171
     23          6           0       -4.529391   -2.824910   -1.433933
     24          6           0       -4.489849   -2.168384   -0.208452
     25          6           0       -1.016454    0.429240    0.375669
     26         16           0       -2.201021    1.318413   -0.645261
     27          8           0       -1.579929    1.580157   -1.937308
     28          8           0       -3.525816    0.727265   -0.549472
     29          8           0       -2.209426    2.840445    0.039372
     30          7           0       -2.625736    2.777713    1.420323
     31          6           0       -3.069354    3.929037    1.777059
     32          6           0       -3.232556    5.166111    1.008560
     33          6           0       -3.730696    6.186777    1.716984
     34          6           0       -4.036234    5.916480    3.160111
     35         16           0       -3.588557    4.154488    3.467495
     36          6           0        0.310486    0.486140   -0.057278
     37          6           0        4.925410   -0.023611   -2.192129
     38          6           0        6.126610    0.561328   -2.582239
     39          1           0        8.705052    1.111546   -3.234210
     40          1           0        8.504031    2.301919   -1.946270
     41          1           0        9.393132    0.808608   -1.627809
     42          1           0        7.994622   -0.075185    0.184702
     43          1           0        5.861212   -1.132538    0.898197
     44          1           0        1.779472   -1.273164    2.453306
     45          1           0       -0.596687   -1.374977    3.221793
     46          1           0       -1.877112   -3.859757    1.199619
     47          1           0       -1.956088   -5.003631   -1.002661
     48          1           0       -4.678010   -4.636934   -3.457727
     49          1           0       -3.186532   -5.511558   -3.059071
     50          1           0       -3.106915   -3.927439   -3.838436
     51          1           0       -5.279232   -2.535937   -2.165624
     52          1           0       -5.188525   -1.373597    0.023248
     53          1           0       -2.966053    5.198142   -0.040086
     54          1           0       -3.921995    7.172335    1.301461
     55          1           0       -3.457214    6.565103    3.828122
     56          1           0       -5.098344    6.069800    3.384930
     57          1           0        0.563630    1.007567   -0.972102
     58          1           0        4.066190   -0.034291   -2.854132
     59          1           0        6.199901    1.021239   -3.564397
 ---------------------------------------------------------------------

 SCF Done:  E(RB3LYP) =  -3251.44567901     A.U. after   15 cycles

 Excitation energies and oscillator strengths:

 Excited state symmetry could not be determined.
 Excited State   1:      Triplet-?Sym    2.8281 eV  438.40 nm  f=0.0000  <S**2>=2.000
     147 ->155         0.13080
     147 ->156        -0.22748
     154 ->155        -0.31436
     154 ->156         0.54764
     154 ->167        -0.10012
 This state for optimization and/or second-order correction.
 Total Energy, E(TD-HF/TD-DFT) =  -3251.34174815
 Copying the excited state density for this state as the 1-particle RhoCI density.

 Excited state symmetry could not be determined.
 Excited State   2:      Triplet-?Sym    3.5301 eV  351.22 nm  f=0.0000  <S**2>=2.000
     147 ->157         0.11735
     148 ->155        -0.11478
     148 ->157        -0.16016
     148 ->158         0.13122
     149 ->157         0.13196
     149 ->158        -0.10419
     152 ->155         0.11682
     152 ->160         0.12914
     153 ->155         0.33989
     153 ->156         0.17292
     153 ->157         0.14719
     153 ->160         0.32371

 Excited state symmetry could not be determined.
 Excited State   3:      Singlet-?Sym    4.3047 eV  288.02 nm  f=0.0343  <S**2>=0.000
     154 ->155         0.61192
     154 ->156         0.11996
     154 ->157         0.31306

 Excited state symmetry could not be determined.
 Excited State   4:      Singlet-?Sym    4.3548 eV  284.71 nm  f=0.1577  <S**2>=0.000
     154 ->155        -0.16487
     154 ->156         0.65805

 Alpha  occ. eigenvalues --  -89.13454 -89.12816 -89.12696 -88.90210 -19.22116
 Alpha  occ. eigenvalues --  -19.21007 -19.20385 -19.16246 -19.16220 -19.15556
 Alpha  occ. eigenvalues --  -19.15346 -19.15254 -19.15195 -14.39086 -10.28286
 Alpha  occ. eigenvalues --  -10.27260 -10.27034 -10.24670 -10.24311 -10.24143
 Alpha  occ. eigenvalues --  -10.23360 -10.22886 -10.22877 -10.22440 -10.22423
 Alpha  occ. eigenvalues --  -10.22190 -10.22123 -10.21725 -10.21537 -10.21489
 Alpha  occ. eigenvalues --  -10.21473 -10.21190 -10.21166 -10.20916 -10.20431
 Alpha  occ. eigenvalues --  -10.20107 -10.19977 -10.19179  -8.15916  -8.15207
 Alpha  occ. eigenvalues --   -8.15119  -7.96365  -6.12513  -6.12283  -6.12174
 Alpha  occ. eigenvalues --   -6.11787  -6.11732  -6.11582  -6.11498  -6.11492
 Alpha  occ. eigenvalues --   -6.11362  -5.92862  -5.92505  -5.91835  -1.14513
 Alpha  occ. eigenvalues --   -1.14424  -1.13761  -1.06508  -1.05432  -1.05180
 Alpha  occ. eigenvalues --   -1.01905  -1.01337  -1.01201  -0.90922  -0.88950
 Alpha  occ. eigenvalues --   -0.88024  -0.87514  -0.84862  -0.81238  -0.79791
 Alpha  occ. eigenvalues --   -0.78985  -0.77446  -0.77105  -0.76045  -0.75643
 Alpha  occ. eigenvalues --   -0.73186  -0.71841  -0.71352  -0.68471  -0.67669
 Alpha  occ. eigenvalues --   -0.65675  -0.63721  -0.63126  -0.62337  -0.61726
 Alpha  occ. eigenvalues --   -0.60129  -0.59598  -0.58977  -0.57122  -0.56221
 Alpha  occ. eigenvalues --   -0.54954  -0.53421  -0.52817  -0.51893  -0.51340
 Alpha  occ. eigenvalues --   -0.50284  -0.49696  -0.49370  -0.48957  -0.48378
 Alpha  occ. eigenvalues --   -0.47998  -0.47216  -0.47189  -0.46707  -0.46635
 Alpha  occ. eigenvalues --   -0.46208  -0.45627  -0.45507  -0.45119  -0.44955
 Alpha  occ. eigenvalues --   -0.44237  -0.44094  -0.43594  -0.43455  -0.43063
 Alpha  occ. eigenvalues --   -0.42751  -0.42120  -0.41069  -0.40813  -0.40528
 Alpha  occ. eigenvalues --   -0.40413  -0.39555  -0.38850  -0.38666  -0.38172
 Alpha  occ. eigenvalues --   -0.37733  -0.37349  -0.36948  -0.36815  -0.35877
 Alpha  occ. eigenvalues --   -0.35669  -0.35434  -0.35020  -0.34746  -0.34603
 Alpha  occ. eigenvalues --   -0.33859  -0.33024  -0.32855  -0.32513  -0.32278
 Alpha  occ. eigenvalues --   -0.32020  -0.31685  -0.30632  -0.30291  -0.29682
 Alpha  occ. eigenvalues --   -0.29378  -0.28278  -0.27821  -0.27795  -0.27369
 Alpha  occ. eigenvalues --   -0.26339  -0.26116  -0.25201  -0.23353
 Alpha virt. eigenvalues --   -0.05561  -0.05507  -0.04808  -0.03926  -0.02778
 Alpha virt. eigenvalues --   -0.02439  -0.01303   0.00808   0.02342   0.03068
 Alpha virt. eigenvalues --    0.04037   0.05473   0.05576   0.06107   0.07104

 Mulliken charges:
               1
     1  C   -0.531985
     2  C    0.183210
     3  C   -0.176325
     4  C   -0.127341
     5  C   -0.164705
     6  S    1.240883
     7  O   -0.505480
     8  O   -0.513760
     9  O   -0.615544
    10  C    0.338386
    11  C   -0.137616
    12  C   -0.155440
    13  C    0.359079
    14  O   -0.586612
    15  S    1.261513
    16  O   -0.531698
    17  O   -0.482351
    18  C   -0.186114
    19  C   -0.132202
    20  C   -0.174735
    21  C    0.183740
    22  C   -0.531238
    23  C   -0.176668
    24  C   -0.100174
    25  C   -0.234153
    26  S    1.301865
    27  O   -0.505536
    28  O   -0.499165
    29  O   -0.451738
    30  N   -0.220274
    31  C    0.087157
    32  C   -0.052845
    33  C   -0.114488
    34  C   -0.480255
    35  S    0.217986
    36  C   -0.165243
    37  C   -0.127972
    38  C   -0.174508
    39  H    0.168371
    40  H    0.178301
    41  H    0.166071
    42  H    0.142748
    43  H    0.182392
    44  H    0.181921
    45  H    0.198512
    46  H    0.180624
    47  H    0.142481
    48  H    0.165216
    49  H    0.163012
    50  H    0.181154
    51  H    0.143010
    52  H    0.193591
    53  H    0.187209
    54  H    0.167465
    55  H    0.202733
    56  H    0.205630
    57  H    0.203747
    58  H    0.184603
    59  H    0.143552
 Sum of Mulliken charges =  -0.00000

 Dipole moment (field-independent basis, Debye):
    X=              5.2111    Y=              5.0507    Z=             -2.3270  Tot=              7.6211
 Quadrupole moment (field-independent basis, Debye-Ang):
   XX=           -203.0324   YY=           -200.0576   ZZ=           -244.1488
   XY=             -5.9314   XZ=              2.7083   YZ=             22.3029

 Normal termination of Gaussian 16 at Sat Nov  5 12:06:28 2022.
