 Gaussian 16, Revision B.01,
 Gaussian 16:  ES64L-G16RevB.01 20-Dec-2017

 -----------------------------
 #p b3lyp/6-31g(d) opt SCF=XQC
 -----------------------------

 ------------------------------
 Gaussian input prepared by ASE
 ------------------------------
 Symbolic Z-matrix:
 Charge =  0 Multiplicity = 1

 SCF Done:  E(RB3LYP) =  -1473.37628898     A.U. after   15 cycles
 SCF Done:  E(RB3LYP) =  -1473.38385483     A.U. after   13 cycles
 SCF Done:  E(RB3LYP) =  -1473.38510599     A.U. after   12 cycles
 SCF Done:  E(RB3LYP) =  -1473.38618755     A.U. after   12 cycles
 SCF Done:  E(RB3LYP) =  -1473.38595767     A.U. after   12 cycles
 SCF Done:  E(RB3LYP) =  -1473.38664740     A.U. after   11 cycles
 SCF Done:  E(RB3LYP) =  -1473.38677529     A.U. after   12 cycles
 SCF Done:  E(RB3LYP) =  -1473.38682659     A.U. after   10 cycles
 SCF Done:  E(RB3LYP) =  -1473.38687272     A.U. after   10 cycles
 SCF Done:  E(RB3LYP) =  -1473.38689232     A.U. after   10 cycles
 SCF Done:  E(RB3LYP) =  -1473.38690369     A.U. after    9 cycles
 SCF Done:  E(RB3LYP) =  -1473.38690749     A.U. after    9 cycles
 SCF Done:  E(RB3LYP) =  -1473.38690970     A.U. after    9 cycles
 SCF Done:  E(RB3LYP) =  -1473.38691117     A.U. after    9 cycles
 SCF Done:  E(RB3LYP) =  -1473.38691260     A.U. after    9 cycles
 SCF Done:  E(RB3LYP) =  -1473.38691388     A.U. after    9 cycles
 SCF Done:  E(RB3LYP) =  -1473.38691472     A.U. after    9 cycles
 SCF Done:  E(RB3LYP) =  -1473.38691536     A.U. after    9 cycles
 SCF Done:  E(RB3LYP) =  -1473.38691570     A.U. after    9 cycles
 SCF Done:  E(RB3LYP) =  -1473.38691578     A.U. after    7 cycles
 Optimization completed.
    -- Stationary point found.

                         Standard orientation:
 ---------------------------------------------------------------------
 Center     Atomic      Atomic             Coordinates (Angstroms)
 Number     Number       Type             X           Y           Z
 ---------------------------------------------------------------------
      1          6           0       -8.791588   -0.928186   -1.440682
      2          7           0       -7.801621    0.019999   -0.948907
      3          6           0       -8.281700    1.390648   -1.068297
      4          6           0       -7.353587   -0.267318    0.406801
      5          6           0       -6.526224   -1.548930    0.532914
      6          8           0       -5.375061   -1.573387   -0.312334
      7          6           0       -4.268163   -0.856514    0.007296
      8          6           0       -4.060940   -0.175915    1.217779
      9          6           0       -2.865609    0.504415    1.429860
     10          6           0       -1.843263    0.502292    0.471859
     11          6           0       -0.644691    1.345979    0.743397
     12          8           0       -0.742951    2.401050    1.350063
     13          7           0        0.624409    0.925657    0.240712
     14          6           0        1.560870    1.917968    0.109296
     15          6           0        2.904593    1.853540   -0.152173
     16          6           0        3.471415    3.221384   -0.316536
     17          8           0        2.840597    4.261855   -0.314506
     18          8           0        4.833154    3.266018   -0.476223
     19          6           0        3.724913    0.640078   -0.218092
     20          7           0        4.984463    0.650027   -0.796953
     21          6           0        5.545721   -0.595947   -0.727489
     22          6           0        6.807490   -1.015020   -1.163820
     23          6           0        7.142821   -2.349035   -0.984673
     24          6           0        6.231507   -3.239268   -0.382413
     25          6           0        4.981987   -2.817332    0.050806
     26          6           0        4.600242   -1.464477   -0.107178
     27          6           0        3.443541   -0.655970    0.216302
     28          6           0        2.129018   -1.051238    0.867830
     29          6           0        1.920594   -2.580338    0.900168
     30          6           0        2.048812   -0.528391    2.320604
     31          6           0        0.940705   -0.491807    0.020714
     32          6           0       -2.068441   -0.172471   -0.742215
     33          6           0       -3.262910   -0.836350   -0.974613
     34          1           0       -9.072353   -0.658666   -2.463874
     35          1           0       -9.715129   -0.951592   -0.827255
     36          1           0       -8.376464   -1.939918   -1.472931
     37          1           0       -8.535417    1.599101   -2.113090
     38          1           0       -9.179403    1.598395   -0.452182
     39          1           0       -7.492938    2.087801   -0.766236
     40          1           0       -8.197869   -0.353738    1.125331
     41          1           0       -6.745659    0.580565    0.740431
     42          1           0       -6.243525   -1.703428    1.582245
     43          1           0       -7.102476   -2.423591    0.222823
     44          1           0       -4.819238   -0.163419    1.991742
     45          1           0       -2.713628    1.056456    2.351848
     46          1           0        1.139873    2.908066    0.228196
     47          1           0        5.037815    4.215312   -0.567134
     48          1           0        5.455640    1.499094   -1.068797
     49          1           0        7.496713   -0.314937   -1.629228
     50          1           0        8.113868   -2.710134   -1.312077
     51          1           0        6.512404   -4.281181   -0.253255
     52          1           0        4.317897   -3.541311    0.504524
     53          1           0        1.999709   -3.028809   -0.096064
     54          1           0        0.927743   -2.813238    1.302374
     55          1           0        2.652274   -3.061163    1.553481
     56          1           0        1.072571   -0.759680    2.767236
     57          1           0        2.201831    0.552198    2.379247
     58          1           0        2.823049   -1.007958    2.928521
     59          1           0        1.147699   -0.661838   -1.041295
     60          1           0        0.042116   -1.048663    0.279501
     61          1           0       -1.315353   -0.153699   -1.524245
     62          1           0       -3.451098   -1.344869   -1.914474
 ---------------------------------------------------------------------

 The electronic state is 1-A.
 Alpha  occ. eigenvalues --  -19.19912 -19.18956 -19.13341 -19.13078 -14.39228
 Alpha  occ. eigenvalues --  -14.36066 -14.33388 -10.32100 -10.30374 -10.26639
 Alpha  occ. eigenvalues --  -10.25490 -10.23625 -10.22850 -10.22331 -10.22217
 Alpha  occ. eigenvalues --  -10.21105 -10.21014 -10.20900 -10.20851 -10.20767
 Alpha  occ. eigenvalues --  -10.20767 -10.20729 -10.20670 -10.20234 -10.19834
 Alpha  occ. eigenvalues --  -10.17899 -10.17872 -10.17844 -10.17542 -10.17509
 Alpha  occ. eigenvalues --  -10.17487 -10.17340 -10.17021  -1.10435  -1.07670
 Alpha  occ. eigenvalues --   -1.05329  -1.00859  -0.97087  -0.95778  -0.92864
 Alpha  occ. eigenvalues --   -0.86742  -0.83166  -0.82432  -0.80493  -0.78599
 Alpha  occ. eigenvalues --   -0.76364  -0.75777  -0.74925  -0.72527  -0.71442
 Alpha  occ. eigenvalues --   -0.71167  -0.69902  -0.68552  -0.68277  -0.66652
 Alpha  occ. eigenvalues --   -0.62739  -0.62417  -0.61535  -0.61073  -0.59551
 Alpha  occ. eigenvalues --   -0.58260  -0.58128  -0.54938  -0.54407  -0.54250
 Alpha  occ. eigenvalues --   -0.52561  -0.51441  -0.50547  -0.49385  -0.48532
 Alpha  occ. eigenvalues --   -0.48326  -0.47932  -0.47792  -0.47011  -0.46920
 Alpha  occ. eigenvalues --   -0.46187  -0.45527  -0.44744  -0.44513  -0.43947
 Alpha  occ. eigenvalues --   -0.43807  -0.43341  -0.42991  -0.42506  -0.42143
 Alpha  occ. eigenvalues --   -0.41851  -0.41649  -0.40984  -0.40414  -0.39829
 Alpha  occ. eigenvalues --   -0.39622  -0.39384  -0.39017  -0.38528  -0.38393
 Alpha  occ. eigenvalues --   -0.38018  -0.37381  -0.36989  -0.36626  -0.36035
 Alpha  occ. eigenvalues --   -0.35654  -0.34969  -0.34754  -0.33823  -0.33404
 Alpha  occ. eigenvalues --   -0.33373  -0.32533  -0.32135  -0.31752  -0.30693
 Alpha  occ. eigenvalues --   -0.27625  -0.27149  -0.26703  -0.26369  -0.24741
 Alpha  occ. eigenvalues --   -0.23097  -0.22040  -0.20364  -0.18233
 Alpha virt. eigenvalues --   -0.05661  -0.01961  -0.01546   0.00016   0.03605
 Alpha virt. eigenvalues --    0.04487   0.05861   0.07214   0.07427   0.08173
 Alpha virt. eigenvalues --    0.09000   0.10180   0.10441   0.10468   0.11778

 Mulliken charges:
               1
     1  C   -0.306139
     2  N   -0.351875
     3  C   -0.298715
     4  C   -0.136111
     5  C   -0.058122
     6  O   -0.506014
     7  C    0.395448
     8  C   -0.198861
     9  C   -0.157608
    10  C    0.042405
    11  C    0.521095
    12  O   -0.472846
    13  N   -0.473227
    14  C    0.010263
    15  C   -0.009088
    16  C    0.562862
    17  O   -0.486215
    18  O   -0.620913
    19  C    0.254139
    20  N   -0.774542
    21  C    0.341214
    22  C   -0.176343
    23  C   -0.149518
    24  C   -0.141933
    25  C   -0.215909
    26  C    0.056163
    27  C    0.022409
    28  C    0.007422
    29  C   -0.466993
    30  C   -0.444300
    31  C   -0.169460
    32  C   -0.163078
    33  C   -0.180411
    34  H    0.155562
    35  H    0.117620
    36  H    0.155565
    37  H    0.152987
    38  H    0.118834
    39  H    0.156380
    40  H    0.113065
    41  H    0.153849
    42  H    0.146954
    43  H    0.163536
    44  H    0.140630
    45  H    0.161717
    46  H    0.224060
    47  H    0.414284
    48  H    0.348017
    49  H    0.120346
    50  H    0.120061
    51  H    0.116120
    52  H    0.119351
    53  H    0.154685
    54  H    0.141156
    55  H    0.161534
    56  H    0.133680
    57  H    0.165606
    58  H    0.153754
    59  H    0.166651
    60  H    0.168195
    61  H    0.150911
    62  H    0.149692
 Sum of Mulliken charges =  -0.00000

 Dipole moment (field-independent basis, Debye):
    X=             -3.9607    Y=             -2.5235    Z=             -0.2981  Tot=              4.7057
 Quadrupole moment (field-independent basis, Debye-Ang):
   XX=           -152.6606   YY=           -200.6442   ZZ=           -190.8310
   XY=             14.1918   XZ=             -9.6514   YZ=             -7.5198

 Normal termination of Gaussian 16 at Fri Nov  4 20:41:01 2022.
