 Gaussian 16, Revision B.01,
 Gaussian 16:  ES64L-G16RevB.01 20-Dec-2017

 -------------------------------------------------------------------
 #p b3lyp/6-31g(d) 6D 10F nosymm GFInput td=(50-50,nstate=2) SCF=XQC
 -------------------------------------------------------------------

 ------------------------------
 Gaussian input prepared by ASE
 ------------------------------
 Symbolic Z-matrix:
 Charge =  0 Multiplicity = 1

                          Input orientation:
 ---------------------------------------------------------------------
 Center     Atomic      Atomic             Coordinates (Angstroms)
 Number     Number       Type             X           Y           Z
 ---------------------------------------------------------------------
      1          6           0       -8.174105    0.879654   -1.554740
      2          7           0       -7.258950    0.656657   -0.444022
      3          6           0       -7.864658    1.046592    0.822658
      4          6           0       -6.744045   -0.704549   -0.387256
      5          6           0       -5.800499   -1.064051   -1.537666
      6          8           0       -4.679193   -0.186995   -1.654561
      7          6           0       -3.632161   -0.286533   -0.797177
      8          6           0       -3.449163   -1.308012    0.148613
      9          6           0       -2.314203   -1.306167    0.953911
     10          6           0       -1.326713   -0.320890    0.823330
     11          6           0       -0.201429   -0.341329    1.800794
     12          8           0       -0.375523   -0.708340    2.952257
     13          7           0        1.083948    0.121747    1.384451
     14          6           0        1.922117    0.513091    2.396002
     15          6           0        3.257199    0.822187    2.384915
     16          6           0        3.692399    1.308507    3.724093
     17          8           0        2.970377    1.500662    4.684444
     18          8           0        5.038766    1.543010    3.842958
     19          6           0        4.181485    0.664328    1.257735
     20          7           0        5.416001    1.294700    1.241957
     21          6           0        6.089647    0.984652    0.092019
     22          6           0        7.369716    1.382948   -0.309045
     23          6           0        7.829920    0.935377   -1.538690
     24          6           0        7.022453    0.108533   -2.344950
     25          6           0        5.754219   -0.285485   -1.940794
     26          6           0        5.246780    0.143196   -0.691937
     27          6           0        4.032473   -0.055111    0.071222
     28          6           0        2.780415   -0.842863   -0.275900
     29          6           0        2.712378   -1.217343   -1.771818
     30          6           0        2.699259   -2.149404    0.546728
     31          6           0        1.520119    0.044144   -0.016042
     32          6           0       -1.528223    0.704446   -0.119041
     33          6           0       -2.664458    0.726026   -0.912771
     34          1           0       -8.510371    1.921357   -1.541722
     35          1           0       -9.071847    0.229723   -1.517071
     36          1           0       -7.670340    0.712250   -2.511384
     37          1           0       -8.169157    2.097452    0.773753
     38          1           0       -8.757517    0.445599    1.087678
     39          1           0       -7.133066    0.943740    1.631116
     40          1           0       -7.553861   -1.466603   -0.381157
     41          1           0       -6.205097   -0.814592    0.559959
     42          1           0       -5.471891   -2.106134   -1.432964
     43          1           0       -6.304748   -0.981165   -2.503129
     44          1           0       -4.180591   -2.098234    0.270089
     45          1           0       -2.183694   -2.077180    1.706517
     46          1           0        1.417209    0.591030    3.350288
     47          1           0        5.153682    1.848363    4.762122
     48          1           0        5.799547    1.768167    2.045413
     49          1           0        7.977659    2.023783    0.324583
     50          1           0        8.818808    1.225334   -1.882991
     51          1           0        7.400451   -0.229581   -3.306180
     52          1           0        5.173085   -0.918843   -2.598184
     53          1           0        2.800174   -0.339714   -2.421372
     54          1           0        1.757919   -1.710439   -1.990062
     55          1           0        3.504894   -1.921537   -2.035249
     56          1           0        1.762593   -2.684610    0.341218
     57          1           0        2.755623   -1.963914    1.622341
     58          1           0        3.532584   -2.806913    0.277951
     59          1           0        1.707919    1.052908   -0.399117
     60          1           0        0.684267   -0.374781   -0.573155
     61          1           0       -0.805068    1.509063   -0.212335
     62          1           0       -2.835513    1.522082   -1.629973
 ---------------------------------------------------------------------

 SCF Done:  E(RB3LYP) =  -1473.38691600     A.U. after   16 cycles

 Excitation energies and oscillator strengths:

 Excited state symmetry could not be determined.
 Excited State   1:      Triplet-?Sym    2.2210 eV  558.23 nm  f=0.0000  <S**2>=2.000
     115 ->120         0.11112
     119 ->120         0.63514
     119 ->121        -0.22819
 This state for optimization and/or second-order correction.
 Total Energy, E(TD-HF/TD-DFT) =  -1473.30529515
 Copying the excited state density for this state as the 1-particle RhoCI density.

 Excited state symmetry could not be determined.
 Excited State   2:      Singlet-?Sym    2.9858 eV  415.24 nm  f=0.1779  <S**2>=0.000
     119 ->120         0.70090

 Excited state symmetry could not be determined.
 Excited State   3:      Triplet-?Sym    3.0691 eV  403.98 nm  f=0.0000  <S**2>=2.000
     115 ->120         0.15262
     118 ->120         0.51450
     118 ->121        -0.17217
     118 ->123        -0.15458
     119 ->121         0.13186
     119 ->123         0.33319

 Excited state symmetry could not be determined.
 Excited State   4:      Singlet-?Sym    3.5512 eV  349.14 nm  f=0.1936  <S**2>=0.000
     118 ->120         0.69369

 Alpha  occ. eigenvalues --  -19.19912 -19.18956 -19.13341 -19.13078 -14.39228
 Alpha  occ. eigenvalues --  -14.36066 -14.33388 -10.32100 -10.30374 -10.26639
 Alpha  occ. eigenvalues --  -10.25490 -10.23625 -10.22849 -10.22331 -10.22218
 Alpha  occ. eigenvalues --  -10.21105 -10.21014 -10.20900 -10.20851 -10.20767
 Alpha  occ. eigenvalues --  -10.20767 -10.20729 -10.20670 -10.20234 -10.19835
 Alpha  occ. eigenvalues --  -10.17899 -10.17872 -10.17844 -10.17542 -10.17509
 Alpha  occ. eigenvalues --  -10.17487 -10.17340 -10.17022  -1.10435  -1.07670
 Alpha  occ. eigenvalues --   -1.05329  -1.00859  -0.97087  -0.95778  -0.92864
 Alpha  occ. eigenvalues --   -0.86742  -0.83166  -0.82432  -0.80493  -0.78599
 Alpha  occ. eigenvalues --   -0.76364  -0.75777  -0.74925  -0.72527  -0.71442
 Alpha  occ. eigenvalues --   -0.71167  -0.69902  -0.68552  -0.68277  -0.66652
 Alpha  occ. eigenvalues --   -0.62739  -0.62417  -0.61535  -0.61073  -0.59551
 Alpha  occ. eigenvalues --   -0.58260  -0.58128  -0.54938  -0.54407  -0.54250
 Alpha  occ. eigenvalues --   -0.52561  -0.51441  -0.50547  -0.49385  -0.48532
 Alpha  occ. eigenvalues --   -0.48326  -0.47932  -0.47792  -0.47011  -0.46920
 Alpha  occ. eigenvalues --   -0.46187  -0.45527  -0.44744  -0.44513  -0.43947
 Alpha  occ. eigenvalues --   -0.43807  -0.43341  -0.42991  -0.42506  -0.42143
 Alpha  occ. eigenvalues --   -0.41851  -0.41649  -0.40984  -0.40414  -0.39829
 Alpha  occ. eigenvalues --   -0.39622  -0.39384  -0.39017  -0.38528  -0.38393
 Alpha  occ. eigenvalues --   -0.38018  -0.37381  -0.36989  -0.36626  -0.36035
 Alpha  occ. eigenvalues --   -0.35654  -0.34969  -0.34754  -0.33823  -0.33404
 Alpha  occ. eigenvalues --   -0.33373  -0.32533  -0.32135  -0.31752  -0.30693
 Alpha  occ. eigenvalues --   -0.27625  -0.27149  -0.26703  -0.26369  -0.24741
 Alpha  occ. eigenvalues --   -0.23097  -0.22040  -0.20364  -0.18233
 Alpha virt. eigenvalues --   -0.05661  -0.01960  -0.01546   0.00016   0.03605
 Alpha virt. eigenvalues --    0.04487   0.05861   0.07214   0.07427   0.08173
 Alpha virt. eigenvalues --    0.09000   0.10180   0.10440   0.10468   0.11777

 Mulliken charges:
               1
     1  C   -0.306134
     2  N   -0.351877
     3  C   -0.298715
     4  C   -0.136112
     5  C   -0.058125
     6  O   -0.506013
     7  C    0.395441
     8  C   -0.198858
     9  C   -0.157588
    10  C    0.042352
    11  C    0.521096
    12  O   -0.472844
    13  N   -0.473232
    14  C    0.010279
    15  C   -0.009095
    16  C    0.562857
    17  O   -0.486214
    18  O   -0.620913
    19  C    0.254145
    20  N   -0.774537
    21  C    0.341217
    22  C   -0.176356
    23  C   -0.149522
    24  C   -0.141927
    25  C   -0.215928
    26  C    0.056181
    27  C    0.022379
    28  C    0.007430
    29  C   -0.466984
    30  C   -0.444308
    31  C   -0.169447
    32  C   -0.163046
    33  C   -0.180403
    34  H    0.155562
    35  H    0.117619
    36  H    0.155563
    37  H    0.152987
    38  H    0.118834
    39  H    0.156380
    40  H    0.113064
    41  H    0.153849
    42  H    0.146955
    43  H    0.163537
    44  H    0.140629
    45  H    0.161714
    46  H    0.224060
    47  H    0.414284
    48  H    0.348017
    49  H    0.120348
    50  H    0.120062
    51  H    0.116121
    52  H    0.119354
    53  H    0.154683
    54  H    0.141156
    55  H    0.161533
    56  H    0.133681
    57  H    0.165609
    58  H    0.153757
    59  H    0.166648
    60  H    0.168194
    61  H    0.150911
    62  H    0.149691
 Sum of Mulliken charges =  -0.00000

 Dipole moment (field-independent basis, Debye):
    X=             -3.7234    Y=             -0.4591    Z=             -2.8406  Tot=              4.7057
 Quadrupole moment (field-independent basis, Debye-Ang):
   XX=           -160.2246   YY=           -186.8543   ZZ=           -203.3439
   XY=             13.0546   XZ=             12.4019   YZ=              5.9301

 Normal termination of Gaussian 16 at Sat Nov  5 12:06:01 2022.
