 Gaussian 16, Revision B.01,
 Gaussian 16:  ES64L-G16RevB.01 20-Dec-2017

 -----------------------------
 #p b3lyp/6-31g(d) opt SCF=XQC
 -----------------------------

 ------------------------------
 Gaussian input prepared by ASE
 ------------------------------
 Symbolic Z-matrix:
 Charge =  0 Multiplicity = 1

 SCF Done:  E(RB3LYP) =  -2408.37513810     A.U. after   14 cycles
 SCF Done:  E(RB3LYP) =  -2408.39705585     A.U. after   12 cycles
 SCF Done:  E(RB3LYP) =  -2408.40032581     A.U. after   12 cycles
 SCF Done:  E(RB3LYP) =  -2408.40124960     A.U. after   12 cycles
 SCF Done:  E(RB3LYP) =  -2408.40180220     A.U. after   12 cycles
 SCF Done:  E(RB3LYP) =  -2408.40211875     A.U. after   13 cycles
 SCF Done:  E(RB3LYP) =  -2408.40224313     A.U. after   12 cycles
 SCF Done:  E(RB3LYP) =  -2408.40238316     A.U. after   11 cycles
 SCF Done:  E(RB3LYP) =  -2408.40240668     A.U. after   10 cycles
 SCF Done:  E(RB3LYP) =  -2408.40241721     A.U. after   10 cycles
 SCF Done:  E(RB3LYP) =  -2408.40244099     A.U. after   10 cycles
 SCF Done:  E(RB3LYP) =  -2408.40244607     A.U. after   10 cycles
 SCF Done:  E(RB3LYP) =  -2408.40245017     A.U. after   10 cycles
 SCF Done:  E(RB3LYP) =  -2408.40245322     A.U. after   10 cycles
 SCF Done:  E(RB3LYP) =  -2408.40245380     A.U. after    8 cycles
 SCF Done:  E(RB3LYP) =  -2408.40245427     A.U. after    8 cycles
 SCF Done:  E(RB3LYP) =  -2408.40245480     A.U. after    8 cycles
 SCF Done:  E(RB3LYP) =  -2408.40245522     A.U. after    8 cycles
 SCF Done:  E(RB3LYP) =  -2408.40245530     A.U. after    6 cycles
 SCF Done:  E(RB3LYP) =  -2408.40245540     A.U. after    6 cycles
 Optimization completed.
    -- Stationary point found.

                         Standard orientation:
 ---------------------------------------------------------------------
 Center     Atomic      Atomic             Coordinates (Angstroms)
 Number     Number       Type             X           Y           Z
 ---------------------------------------------------------------------
      1          6           0       -2.229113    2.747792    1.170456
      2          6           0       -3.571126    2.022111    1.328225
      3          6           0       -4.734412    2.863127    0.751343
      4          6           0       -5.992767    2.024779    0.495394
      5          6           0       -5.858100    1.096160   -0.731801
      6          6           0       -6.875525   -0.015731   -0.796190
      7          6           0       -7.682489   -0.151338   -1.932585
      8          6           0       -8.650643   -1.153482   -2.006843
      9          6           0       -8.818762   -2.041639   -0.944639
     10          6           0       -8.013082   -1.921635    0.190118
     11          6           0       -7.051320   -0.916372    0.264455
     12         16           0       -4.098690    0.470856   -0.825350
     13          8           0       -3.389783    1.412632   -1.708810
     14          8           0       -4.064811   -0.968316   -1.121940
     15          7           0       -3.610530    0.648081    0.769228
     16          6           0       -2.892127   -0.461869    1.429090
     17          6           0       -1.413590   -0.629179    1.134400
     18          6           0       -0.944071   -1.251434   -0.031743
     19          6           0        0.410012   -1.444269   -0.278081
     20          6           0        1.385490   -1.013924    0.650651
     21          7           0        2.742310   -1.190873    0.423948
     22          6           0        3.706705   -1.101281    1.517022
     23          6           0        4.959170   -1.914830    1.196378
     24          7           0        5.580585   -1.444771   -0.046718
     25          6           0        6.918805   -1.186155   -0.037400
     26          8           0        7.645584   -1.427593    0.927433
     27          6           0        7.535357   -0.540536   -1.274077
     28         16           0        7.719043    1.272088   -1.051964
     29          6           0        8.997964    1.423955    0.214035
     30          8           0        8.235390    1.806592   -2.319962
     31          8           0        6.451497    1.771146   -0.489650
     32          6           0        4.659505   -1.028756   -1.118904
     33          6           0        3.253991   -1.586140   -0.878215
     34          6           0        0.931495   -0.392857    1.832763
     35          6           0       -0.429386   -0.227846    2.034619
     36          9           0       -0.811854    0.396008    3.183326
     37          1           0       -1.936754    2.782137    0.117230
     38          1           0       -2.322911    3.776516    1.540694
     39          1           0       -1.441209    2.258988    1.746051
     40          1           0       -3.770883    1.876856    2.399392
     41          1           0       -4.955869    3.662147    1.467654
     42          1           0       -4.415662    3.351021   -0.177105
     43          1           0       -6.222052    1.425417    1.383012
     44          1           0       -6.860016    2.672343    0.320266
     45          1           0       -5.910751    1.695511   -1.645829
     46          1           0       -7.552437    0.535046   -2.766043
     47          1           0       -9.270147   -1.239887   -2.895404
     48          1           0       -9.570619   -2.824226   -0.999980
     49          1           0       -8.132787   -2.614359    1.018814
     50          1           0       -6.424368   -0.839789    1.148388
     51          1           0       -3.415686   -1.379603    1.152674
     52          1           0       -3.035575   -0.307023    2.502590
     53          1           0       -1.670053   -1.599765   -0.760507
     54          1           0        0.703857   -1.963061   -1.183071
     55          1           0        3.259198   -1.508449    2.431790
     56          1           0        3.991581   -0.057670    1.723241
     57          1           0        5.697998   -1.809830    1.991164
     58          1           0        4.705211   -2.979382    1.110557
     59          1           0        6.964022   -0.631065   -2.199352
     60          1           0        8.535306   -0.952000   -1.426697
     61          1           0        8.737324    0.776583    1.052896
     62          1           0        9.957733    1.137327   -0.219767
     63          1           0        9.008595    2.475660    0.509254
     64          1           0        5.006218   -1.413029   -2.084523
     65          1           0        4.621324    0.064862   -1.174589
     66          1           0        2.609632   -1.170573   -1.658069
     67          1           0        3.257635   -2.681108   -1.011103
     68          1           0        1.611739   -0.005424    2.580877
 ---------------------------------------------------------------------

 The electronic state is 1-A.
 Alpha  occ. eigenvalues --  -89.10162 -89.09571 -24.70409 -19.14563 -19.14502
 Alpha  occ. eigenvalues --  -19.13382 -19.13103 -19.12847 -14.38573 -14.36259
 Alpha  occ. eigenvalues --  -14.35721 -10.31082 -10.26652 -10.24597 -10.24266
 Alpha  occ. eigenvalues --  -10.24106 -10.23836 -10.23671 -10.23637 -10.23460
 Alpha  occ. eigenvalues --  -10.22969 -10.22759 -10.22713 -10.20487 -10.20475
 Alpha  occ. eigenvalues --  -10.19458 -10.19436 -10.19387 -10.19349 -10.19303
 Alpha  occ. eigenvalues --  -10.19272 -10.18792 -10.18675 -10.18661 -10.18311
 Alpha  occ. eigenvalues --  -10.16898  -8.13098  -8.12160  -6.09505  -6.09471
 Alpha  occ. eigenvalues --   -6.09418  -6.08663  -6.08581  -6.08427  -1.21222
 Alpha  occ. eigenvalues --   -1.10320  -1.09574  -1.05197  -0.99970  -0.98605
 Alpha  occ. eigenvalues --   -0.97652  -0.93997  -0.93029  -0.86356  -0.85193
 Alpha  occ. eigenvalues --   -0.82049  -0.81042  -0.79619  -0.78786  -0.77676
 Alpha  occ. eigenvalues --   -0.76011  -0.74802  -0.74483  -0.74204  -0.73206
 Alpha  occ. eigenvalues --   -0.69775  -0.68570  -0.68285  -0.63989  -0.63368
 Alpha  occ. eigenvalues --   -0.62549  -0.61503  -0.60838  -0.60493  -0.59474
 Alpha  occ. eigenvalues --   -0.59103  -0.56299  -0.54480  -0.53931  -0.53493
 Alpha  occ. eigenvalues --   -0.52423  -0.52283  -0.51292  -0.50659  -0.50511
 Alpha  occ. eigenvalues --   -0.49511  -0.49274  -0.48940  -0.48119  -0.47406
 Alpha  occ. eigenvalues --   -0.47075  -0.46814  -0.46300  -0.45541  -0.45301
 Alpha  occ. eigenvalues --   -0.45054  -0.44649  -0.44182  -0.43901  -0.43598
 Alpha  occ. eigenvalues --   -0.43350  -0.42880  -0.42854  -0.42692  -0.42400
 Alpha  occ. eigenvalues --   -0.42279  -0.41944  -0.40946  -0.40887  -0.40122
 Alpha  occ. eigenvalues --   -0.40052  -0.39909  -0.39684  -0.38560  -0.38499
 Alpha  occ. eigenvalues --   -0.37964  -0.37492  -0.36900  -0.36507  -0.36131
 Alpha  occ. eigenvalues --   -0.35495  -0.34881  -0.34714  -0.34399  -0.34101
 Alpha  occ. eigenvalues --   -0.33794  -0.33174  -0.32146  -0.31967  -0.30322
 Alpha  occ. eigenvalues --   -0.30295  -0.29519  -0.29133  -0.28969  -0.28128
 Alpha  occ. eigenvalues --   -0.26971  -0.25821  -0.25243  -0.24615  -0.24291
 Alpha  occ. eigenvalues --   -0.23793  -0.19767
 Alpha virt. eigenvalues --   -0.01725  -0.01553  -0.00375   0.00001   0.01041
 Alpha virt. eigenvalues --    0.05804   0.06029   0.06738   0.07405   0.07531
 Alpha virt. eigenvalues --    0.07975   0.08346   0.08470   0.09004   0.09942

 Mulliken charges:
               1
     1  C   -0.465950
     2  C    0.077724
     3  C   -0.330780
     4  C   -0.254084
     5  C   -0.437728
     6  C    0.193855
     7  C   -0.179797
     8  C   -0.126188
     9  C   -0.124691
    10  C   -0.133747
    11  C   -0.161091
    12  S    1.286064
    13  O   -0.553083
    14  O   -0.551756
    15  N   -0.587494
    16  C   -0.242662
    17  C    0.099074
    18  C   -0.197397
    19  C   -0.190999
    20  C    0.372792
    21  N   -0.513182
    22  C   -0.135514
    23  C   -0.168306
    24  N   -0.428713
    25  C    0.609009
    26  O   -0.526047
    27  C   -0.581755
    28  S    1.105805
    29  C   -0.639438
    30  O   -0.523648
    31  O   -0.547684
    32  C   -0.157841
    33  C   -0.152801
    34  C   -0.277065
    35  C    0.326883
    36  F   -0.313391
    37  H    0.184477
    38  H    0.137754
    39  H    0.163721
    40  H    0.140753
    41  H    0.149541
    42  H    0.176299
    43  H    0.157740
    44  H    0.157975
    45  H    0.197059
    46  H    0.133419
    47  H    0.133693
    48  H    0.132639
    49  H    0.132644
    50  H    0.137591
    51  H    0.191727
    52  H    0.163513
    53  H    0.179212
    54  H    0.130281
    55  H    0.161675
    56  H    0.166960
    57  H    0.202482
    58  H    0.164850
    59  H    0.215950
    60  H    0.223665
    61  H    0.237304
    62  H    0.204251
    63  H    0.218383
    64  H    0.158786
    65  H    0.208206
    66  H    0.176681
    67  H    0.150059
    68  H    0.142335
 Sum of Mulliken charges =  -0.00000

 Dipole moment (field-independent basis, Debye):
    X=             -0.9586    Y=             -1.9226    Z=              2.5738  Tot=              3.3526
 Quadrupole moment (field-independent basis, Debye-Ang):
   XX=           -192.3859   YY=           -224.0879   ZZ=           -227.2140
   XY=            -18.4788   XZ=             -0.6155   YZ=             11.6850

 Normal termination of Gaussian 16 at Fri Nov  4 20:36:33 2022.
