 Gaussian 16, Revision B.01,
 Gaussian 16:  ES64L-G16RevB.01 20-Dec-2017

 -------------------------------------------------------------------
 #p b3lyp/6-31g(d) 6D 10F nosymm GFInput td=(50-50,nstate=2) SCF=XQC
 -------------------------------------------------------------------

 ------------------------------
 Gaussian input prepared by ASE
 ------------------------------
 Symbolic Z-matrix:
 Charge =  0 Multiplicity = 1

                          Input orientation:
 ---------------------------------------------------------------------
 Center     Atomic      Atomic             Coordinates (Angstroms)
 Number     Number       Type             X           Y           Z
 ---------------------------------------------------------------------
      1          6           0       -1.956012    2.553790   -1.654126
      2          6           0       -3.283507    2.267150   -0.941316
      3          6           0       -4.475170    2.339675   -1.925193
      4          6           0       -5.731702    1.653864   -1.375115
      5          6           0       -5.627778    0.112554   -1.381145
      6          6           0       -6.633930   -0.590988   -0.504625
      7          6           0       -7.477107   -1.561665   -1.059433
      8          6           0       -8.435616   -2.207665   -0.277720
      9          6           0       -8.557620   -1.895874    1.076261
     10          6           0       -7.715601   -0.935913    1.642542
     11          6           0       -6.763514   -0.287836    0.858581
     12         16           0       -3.865438   -0.375087   -0.991727
     13          8           0       -3.197584   -0.522895   -2.296379
     14          8           0       -3.825009   -1.482326   -0.025956
     15          7           0       -3.325905    0.991861   -0.183801
     16          6           0       -2.572951    0.831580    1.077500
     17          6           0       -1.103355    0.466398    0.988994
     18          6           0       -0.666260   -0.847666    0.766011
     19          6           0        0.680886   -1.187319    0.730720
     20          6           0        1.682081   -0.207049    0.920385
     21          7           0        3.032440   -0.521517    0.884228
     22          6           0        4.032020    0.383712    1.444851
     23          6           0        5.282251   -0.388502    1.861923
     24          7           0        5.855981   -1.106188    0.718176
     25          6           0        7.190690   -0.968946    0.478345
     26          8           0        7.952292   -0.361305    1.232094
     27          6           0        7.757756   -1.575242   -0.801174
     28         16           0        7.927947   -0.305744   -2.115743
     29          6           0        9.246961    0.768567   -1.509515
     30          8           0        8.395095   -1.002189   -3.322750
     31          8           0        6.674405    0.468952   -2.135929
     32          6           0        4.894574   -1.689844   -0.233707
     33          6           0        3.504475   -1.807417    0.397069
     34          6           0        1.261052    1.118702    1.153504
     35          6           0       -0.094064    1.406249    1.184275
     36          9           0       -0.444769    2.705669    1.392878
     37          1           0       -1.699717    1.730269   -2.326485
     38          1           0       -2.049117    3.472603   -2.246799
     39          1           0       -1.143589    2.700728   -0.940396
     40          1           0       -3.445376    3.036033   -0.172539
     41          1           0       -4.681550    3.397606   -2.122085
     42          1           0       -4.193518    1.889285   -2.884087
     43          1           0       -5.924038    2.002552   -0.354774
     44          1           0       -6.611754    1.923342   -1.970950
     45          1           0       -5.718088   -0.251564   -2.409106
     46          1           0       -7.383117   -1.812631   -2.113411
     47          1           0       -9.083669   -2.955006   -0.727499
     48          1           0       -9.301858   -2.398319    1.688187
     49          1           0       -7.799338   -0.692779    2.698386
     50          1           0       -6.108060    0.449731    1.313166
     51          1           0       -3.094928    0.066858    1.656720
     52          1           0       -2.681923    1.782709    1.607061
     53          1           0       -1.412325   -1.624094    0.624493
     54          1           0        0.950025   -2.227409    0.588333
     55          1           0        3.620301    0.874595    2.335003
     56          1           0        4.311651    1.173426    0.730035
     57          1           0        6.046179    0.293059    2.236711
     58          1           0        5.037813   -1.095646    2.665247
     59          1           0        7.156652   -2.355263   -1.271276
     60          1           0        8.756665   -1.965481   -0.595289
     61          1           0        9.022200    1.050024   -0.479479
     62          1           0       10.194805    0.230779   -1.571740
     63          1           0        9.255427    1.639481   -2.168899
     64          1           0        5.212958   -2.697891   -0.521403
     65          1           0        4.841954   -1.071968   -1.137046
     66          1           0        2.829467   -2.164116   -0.386001
     67          1           0        3.516242   -2.575549    1.188563
     68          1           0        1.961611    1.935093    1.276928
 ---------------------------------------------------------------------

 SCF Done:  E(RB3LYP) =  -2408.40246449     A.U. after   15 cycles

 Excitation energies and oscillator strengths:

 Excited state symmetry could not be determined.
 Excited State   1:      Triplet-?Sym    3.5439 eV  349.85 nm  f=0.0000  <S**2>=2.000
     140 ->146        -0.24774
     140 ->147         0.14047
     142 ->144         0.16178
     142 ->146         0.41430
     142 ->147         0.43273
 This state for optimization and/or second-order correction.
 Total Energy, E(TD-HF/TD-DFT) =  -2408.27222707
 Copying the excited state density for this state as the 1-particle RhoCI density.

 Excited state symmetry could not be determined.
 Excited State   2:      Triplet-?Sym    3.6822 eV  336.71 nm  f=0.0000  <S**2>=2.000
     138 ->145         0.43155
     139 ->144         0.46427
     141 ->144         0.24787

 Excited state symmetry could not be determined.
 Excited State   3:      Singlet-?Sym    4.3792 eV  283.12 nm  f=0.0093  <S**2>=0.000
     142 ->143         0.70189

 Excited state symmetry could not be determined.
 Excited State   4:      Singlet-?Sym    4.5756 eV  270.97 nm  f=0.0713  <S**2>=0.000
     142 ->144         0.67089
     142 ->146         0.17593

 Alpha  occ. eigenvalues --  -89.10161 -89.09571 -24.70409 -19.14562 -19.14502
 Alpha  occ. eigenvalues --  -19.13382 -19.13103 -19.12847 -14.38574 -14.36259
 Alpha  occ. eigenvalues --  -14.35721 -10.31082 -10.26652 -10.24597 -10.24266
 Alpha  occ. eigenvalues --  -10.24106 -10.23836 -10.23671 -10.23637 -10.23460
 Alpha  occ. eigenvalues --  -10.22969 -10.22759 -10.22713 -10.20487 -10.20475
 Alpha  occ. eigenvalues --  -10.19458 -10.19436 -10.19387 -10.19349 -10.19303
 Alpha  occ. eigenvalues --  -10.19273 -10.18792 -10.18675 -10.18660 -10.18310
 Alpha  occ. eigenvalues --  -10.16898  -8.13098  -8.12161  -6.09505  -6.09471
 Alpha  occ. eigenvalues --   -6.09418  -6.08663  -6.08582  -6.08427  -1.21222
 Alpha  occ. eigenvalues --   -1.10320  -1.09575  -1.05197  -0.99969  -0.98605
 Alpha  occ. eigenvalues --   -0.97652  -0.93997  -0.93029  -0.86357  -0.85193
 Alpha  occ. eigenvalues --   -0.82049  -0.81042  -0.79619  -0.78786  -0.77676
 Alpha  occ. eigenvalues --   -0.76011  -0.74803  -0.74483  -0.74204  -0.73206
 Alpha  occ. eigenvalues --   -0.69775  -0.68570  -0.68285  -0.63989  -0.63368
 Alpha  occ. eigenvalues --   -0.62549  -0.61503  -0.60839  -0.60493  -0.59474
 Alpha  occ. eigenvalues --   -0.59103  -0.56299  -0.54480  -0.53931  -0.53493
 Alpha  occ. eigenvalues --   -0.52423  -0.52283  -0.51292  -0.50659  -0.50511
 Alpha  occ. eigenvalues --   -0.49511  -0.49274  -0.48940  -0.48119  -0.47406
 Alpha  occ. eigenvalues --   -0.47075  -0.46814  -0.46300  -0.45541  -0.45301
 Alpha  occ. eigenvalues --   -0.45054  -0.44649  -0.44182  -0.43901  -0.43598
 Alpha  occ. eigenvalues --   -0.43351  -0.42880  -0.42854  -0.42692  -0.42400
 Alpha  occ. eigenvalues --   -0.42279  -0.41944  -0.40946  -0.40887  -0.40122
 Alpha  occ. eigenvalues --   -0.40051  -0.39909  -0.39684  -0.38560  -0.38499
 Alpha  occ. eigenvalues --   -0.37964  -0.37492  -0.36900  -0.36507  -0.36131
 Alpha  occ. eigenvalues --   -0.35495  -0.34881  -0.34714  -0.34399  -0.34101
 Alpha  occ. eigenvalues --   -0.33794  -0.33174  -0.32146  -0.31967  -0.30322
 Alpha  occ. eigenvalues --   -0.30296  -0.29519  -0.29133  -0.28969  -0.28128
 Alpha  occ. eigenvalues --   -0.26971  -0.25821  -0.25243  -0.24616  -0.24291
 Alpha  occ. eigenvalues --   -0.23793  -0.19767
 Alpha virt. eigenvalues --   -0.01725  -0.01553  -0.00375   0.00001   0.01041
 Alpha virt. eigenvalues --    0.05804   0.06029   0.06738   0.07405   0.07531
 Alpha virt. eigenvalues --    0.07975   0.08346   0.08470   0.09004   0.09942

 Mulliken charges:
               1
     1  C   -0.465949
     2  C    0.077744
     3  C   -0.330779
     4  C   -0.254086
     5  C   -0.437691
     6  C    0.193838
     7  C   -0.179799
     8  C   -0.126187
     9  C   -0.124692
    10  C   -0.133743
    11  C   -0.161093
    12  S    1.285998
    13  O   -0.553050
    14  O   -0.551750
    15  N   -0.587483
    16  C   -0.242711
    17  C    0.099103
    18  C   -0.197408
    19  C   -0.190994
    20  C    0.372783
    21  N   -0.513188
    22  C   -0.135503
    23  C   -0.168312
    24  N   -0.428670
    25  C    0.608969
    26  O   -0.526036
    27  C   -0.581758
    28  S    1.105811
    29  C   -0.639435
    30  O   -0.523651
    31  O   -0.547681
    32  C   -0.157870
    33  C   -0.152794
    34  C   -0.277060
    35  C    0.326885
    36  F   -0.313393
    37  H    0.184477
    38  H    0.137753
    39  H    0.163718
    40  H    0.140749
    41  H    0.149539
    42  H    0.176298
    43  H    0.157738
    44  H    0.157975
    45  H    0.197059
    46  H    0.133420
    47  H    0.133693
    48  H    0.132639
    49  H    0.132645
    50  H    0.137596
    51  H    0.191731
    52  H    0.163520
    53  H    0.179214
    54  H    0.130280
    55  H    0.161675
    56  H    0.166956
    57  H    0.202483
    58  H    0.164847
    59  H    0.215948
    60  H    0.223667
    61  H    0.237302
    62  H    0.204249
    63  H    0.218382
    64  H    0.158789
    65  H    0.208213
    66  H    0.176681
    67  H    0.150062
    68  H    0.142336
 Sum of Mulliken charges =  -0.00000

 Dipole moment (field-independent basis, Debye):
    X=             -0.8494    Y=              0.9050    Z=              3.1143  Tot=              3.3526
 Quadrupole moment (field-independent basis, Debye-Ang):
   XX=           -192.5027   YY=           -214.4927   ZZ=           -238.7825
   XY=            -11.9346   XZ=             13.9583   YZ=             -5.0415

 Normal termination of Gaussian 16 at Sat Nov  5 12:27:23 2022.
