 Gaussian 16, Revision B.01,
 Gaussian 16:  ES64L-G16RevB.01 20-Dec-2017

 -------------------------------------------------------------------
 #p b3lyp/6-31g(d) 6D 10F nosymm GFInput td=(50-50,nstate=2) SCF=XQC
 -------------------------------------------------------------------

 ------------------------------
 Gaussian input prepared by ASE
 ------------------------------
 Symbolic Z-matrix:
 Charge =  0 Multiplicity = 1

                          Input orientation:
 ---------------------------------------------------------------------
 Center     Atomic      Atomic             Coordinates (Angstroms)
 Number     Number       Type             X           Y           Z
 ---------------------------------------------------------------------
      1          6           0       -3.074416   -1.452579   -1.378896
      2          6           0       -3.545249   -0.145207   -0.782147
      3          6           0       -4.890172    0.231308   -0.881936
      4          6           0       -5.352496    1.436859   -0.353281
      5          6           0       -4.463804    2.296488    0.289956
      6          6           0       -3.120226    1.937534    0.399698
      7          6           0       -2.649218    0.726467   -0.125356
      8          6           0       -1.198211    0.387886    0.008276
      9          6           0       -0.292745    0.784686   -0.985062
     10          7           0        1.018749    0.542298   -0.955836
     11          6           0        1.498786   -0.126827    0.100987
     12          6           0        2.948672   -0.378497    0.100959
     13          7           0        3.539971   -1.029210    1.107102
     14          7           0        4.840039   -1.077926    0.781605
     15          6           0        5.118571   -0.480635   -0.397972
     16          6           0        6.507298   -0.434664   -0.952373
     17          9           0        6.611190   -1.129148   -2.097160
     18          9           0        6.903046    0.823380   -1.198261
     19          9           0        7.369298   -0.979529   -0.056487
     20          6           0        3.909468   -0.003529   -0.892023
     21          6           0        3.747873    0.692150   -2.119969
     22          7           0        3.703660    1.251921   -3.138412
     23          6           0        0.685627   -0.566363    1.152721
     24          6           0       -0.686056   -0.312714    1.121166
     25          6           0       -1.580920   -0.768666    2.247197
     26          1           0       -2.331891   -1.291777   -2.169612
     27          1           0       -3.911617   -2.006945   -1.813657
     28          1           0       -2.598731   -2.097023   -0.629603
     29          1           0       -5.585787   -0.434375   -1.387758
     30          1           0       -6.402100    1.702364   -0.447534
     31          1           0       -4.809563    3.240755    0.701523
     32          1           0       -2.419131    2.604761    0.894901
     33          1           0       -0.655914    1.333476   -1.852375
     34          1           0        5.500320   -1.523341    1.403504
     35          1           0        1.130766   -1.100242    1.986087
     36          1           0       -2.380907   -1.422553    1.881221
     37          1           0       -1.012269   -1.313847    3.005967
     38          1           0       -2.071912    0.083264    2.731215
 ---------------------------------------------------------------------

 SCF Done:  E(RB3LYP) =  -1212.26174217     A.U. after   16 cycles

 Excitation energies and oscillator strengths:

 Excited state symmetry could not be determined.
 Excited State   1:      Triplet-?Sym    3.2745 eV  378.64 nm  f=0.0000  <S**2>=2.000
      82 -> 94         0.11153
      83 -> 91         0.17140
      84 -> 90         0.17843
      87 -> 89         0.59766
      87 -> 90        -0.18518
 This state for optimization and/or second-order correction.
 Total Energy, E(TD-HF/TD-DFT) =  -1212.14140697
 Copying the excited state density for this state as the 1-particle RhoCI density.

 Excited state symmetry could not be determined.
 Excited State   2:      Triplet-?Sym    3.7105 eV  334.15 nm  f=0.0000  <S**2>=2.000
      85 -> 92        -0.21249
      86 -> 91         0.12303
      86 -> 92         0.15221
      86 -> 93        -0.38347
      88 -> 92        -0.45955
      88 -> 93        -0.22256

 Excited state symmetry could not be determined.
 Excited State   3:      Singlet-?Sym    4.2956 eV  288.63 nm  f=0.0007  <S**2>=0.000
      85 -> 89        -0.31347
      86 -> 89        -0.27723
      88 -> 89         0.56094

 Excited state symmetry could not be determined.
 Excited State   4:      Singlet-?Sym    4.7065 eV  263.43 nm  f=0.0050  <S**2>=0.000
      85 -> 89         0.26293
      86 -> 89         0.49172
      87 -> 89        -0.15110
      88 -> 89         0.39775

 Alpha  occ. eigenvalues --  -24.75361 -24.74525 -24.74460 -14.45606 -14.38851
 Alpha  occ. eigenvalues --  -14.33620 -14.32962 -10.46619 -10.27708 -10.25119
 Alpha  occ. eigenvalues --  -10.24716 -10.24282 -10.22747 -10.22715 -10.22304
 Alpha  occ. eigenvalues --  -10.21016 -10.20525 -10.20345 -10.20339 -10.19604
 Alpha  occ. eigenvalues --  -10.19577 -10.19450 -10.19342 -10.19250 -10.18810
 Alpha  occ. eigenvalues --   -1.32703  -1.24147  -1.23673  -1.09214  -0.95407
 Alpha  occ. eigenvalues --   -0.89847  -0.87478  -0.86670  -0.84105  -0.82791
 Alpha  occ. eigenvalues --   -0.78616  -0.77298  -0.74598  -0.73974  -0.71705
 Alpha  occ. eigenvalues --   -0.69175  -0.67770  -0.66765  -0.63675  -0.62806
 Alpha  occ. eigenvalues --   -0.60814  -0.60423  -0.60396  -0.59138  -0.57275
 Alpha  occ. eigenvalues --   -0.53822  -0.52061  -0.51605  -0.49638  -0.49116
 Alpha  occ. eigenvalues --   -0.48778  -0.47815  -0.47618  -0.47087  -0.46870
 Alpha  occ. eigenvalues --   -0.44598  -0.44311  -0.43958  -0.43372  -0.42946
 Alpha  occ. eigenvalues --   -0.42121  -0.41989  -0.41651  -0.41385  -0.40790
 Alpha  occ. eigenvalues --   -0.39983  -0.39232  -0.39047  -0.37525  -0.36351
 Alpha  occ. eigenvalues --   -0.35719  -0.35541  -0.34870  -0.34227  -0.33823
 Alpha  occ. eigenvalues --   -0.31838  -0.31347  -0.28109  -0.27526  -0.26688
 Alpha  occ. eigenvalues --   -0.25110  -0.24668  -0.24391
 Alpha virt. eigenvalues --   -0.05415  -0.04372  -0.02288  -0.00951  -0.00327
 Alpha virt. eigenvalues --    0.03326   0.03469   0.05973   0.08914   0.09498
 Alpha virt. eigenvalues --    0.10140   0.11629   0.11701   0.12353   0.13485

 Mulliken charges:
               1
     1  C   -0.535622
     2  C    0.164948
     3  C   -0.195045
     4  C   -0.117282
     5  C   -0.135437
     6  C   -0.155210
     7  C   -0.016162
     8  C   -0.032968
     9  C    0.020978
    10  N   -0.503414
    11  C    0.301545
    12  C    0.316546
    13  N   -0.356355
    14  N   -0.475213
    15  C    0.246354
    16  C    0.857547
    17  F   -0.244336
    18  F   -0.244476
    19  F   -0.282029
    20  C   -0.018072
    21  C    0.251160
    22  N   -0.483706
    23  C   -0.233958
    24  C    0.194880
    25  C   -0.534756
    26  H    0.172943
    27  H    0.156415
    28  H    0.161734
    29  H    0.126913
    30  H    0.131966
    31  H    0.132870
    32  H    0.135371
    33  H    0.155768
    34  H    0.365103
    35  H    0.158572
    36  H    0.174624
    37  H    0.160689
    38  H    0.177113
 Sum of Mulliken charges =  -0.00000

 Dipole moment (field-independent basis, Debye):
    X=             -2.1945    Y=             -2.6517    Z=              5.0332  Tot=              6.0975
 Quadrupole moment (field-independent basis, Debye-Ang):
   XX=           -126.7832   YY=           -137.2424   ZZ=           -150.2726
   XY=            -12.2788   XZ=             20.7184   YZ=              5.6552

 Normal termination of Gaussian 16 at Sat Nov  5 12:12:58 2022.
