 Gaussian 16, Revision B.01,
 Gaussian 16:  ES64L-G16RevB.01 20-Dec-2017

 -----------------------------
 #p b3lyp/6-31g(d) opt SCF=XQC
 -----------------------------

 ------------------------------
 Gaussian input prepared by ASE
 ------------------------------
 Symbolic Z-matrix:
 Charge =  0 Multiplicity = 1

 SCF Done:  E(RB3LYP) =  -1212.25481750     A.U. after   16 cycles
 SCF Done:  E(RB3LYP) =  -1212.26117788     A.U. after   14 cycles
 SCF Done:  E(RB3LYP) =  -1212.26163970     A.U. after   12 cycles
 SCF Done:  E(RB3LYP) =  -1212.26172033     A.U. after   11 cycles
 SCF Done:  E(RB3LYP) =  -1212.26172692     A.U. after    9 cycles
 SCF Done:  E(RB3LYP) =  -1212.26172893     A.U. after    8 cycles
 SCF Done:  E(RB3LYP) =  -1212.26173119     A.U. after   10 cycles
 SCF Done:  E(RB3LYP) =  -1212.26173239     A.U. after   10 cycles
 SCF Done:  E(RB3LYP) =  -1212.26173496     A.U. after   11 cycles
 SCF Done:  E(RB3LYP) =  -1212.26173420     A.U. after   11 cycles
 SCF Done:  E(RB3LYP) =  -1212.26174095     A.U. after    8 cycles
 SCF Done:  E(RB3LYP) =  -1212.26174094     A.U. after    8 cycles
 SCF Done:  E(RB3LYP) =  -1212.26174094     A.U. after    8 cycles
 SCF Done:  E(RB3LYP) =  -1212.26174094     A.U. after    8 cycles
 SCF Done:  E(RB3LYP) =  -1212.26174102     A.U. after    8 cycles
 SCF Done:  E(RB3LYP) =  -1212.26174109     A.U. after    8 cycles
 SCF Done:  E(RB3LYP) =  -1212.26174117     A.U. after    7 cycles
 SCF Done:  E(RB3LYP) =  -1212.26174123     A.U. after    7 cycles
 SCF Done:  E(RB3LYP) =  -1212.26174129     A.U. after    7 cycles
 SCF Done:  E(RB3LYP) =  -1212.26174132     A.U. after    7 cycles
 Optimization completed.
    -- Stationary point found.

                         Standard orientation:
 ---------------------------------------------------------------------
 Center     Atomic      Atomic             Coordinates (Angstroms)
 Number     Number       Type             X           Y           Z
 ---------------------------------------------------------------------
      1          6           0       -4.020878   -0.330715    2.320777
      2          6           0       -4.667279   -0.404620    0.955597
      3          6           0       -6.031927   -0.694662    0.836649
      4          6           0       -6.654250   -0.782684   -0.408958
      5          6           0       -5.910144   -0.581275   -1.570091
      6          6           0       -4.549389   -0.290391   -1.470978
      7          6           0       -3.918167   -0.196461   -0.223201
      8          6           0       -2.454784    0.108816   -0.166362
      9          6           0       -1.520814   -0.935872   -0.185539
     10          7           0       -0.197585   -0.770406   -0.149368
     11          6           0        0.265496    0.485513   -0.092232
     12          6           0        1.729181    0.632237   -0.052145
     13          7           0        2.304631    1.837137   -0.002560
     14          7           0        3.624054    1.598449    0.022937
     15          6           0        3.930098    0.282805   -0.011067
     16          6           0        5.345402   -0.200768    0.022248
     17          9           0        5.607471   -0.901724    1.137424
     18          9           0        5.628362   -0.983126   -1.030179
     19          9           0        6.187008    0.863850   -0.006405
     20          6           0        2.720228   -0.400973   -0.059134
     21          6           0        2.583435   -1.814228   -0.103047
     22          7           0        2.560812   -2.976534   -0.135547
     23          6           0       -0.577055    1.603683   -0.073085
     24          6           0       -1.960949    1.429682   -0.110594
     25          6           0       -2.888577    2.619646   -0.099984
     26          1           0       -3.240009   -1.091289    2.439950
     27          1           0       -4.761133   -0.484235    3.111788
     28          1           0       -3.540963    0.640093    2.494668
     29          1           0       -6.614924   -0.857659    1.740208
     30          1           0       -7.715096   -1.010728   -0.469369
     31          1           0       -6.381167   -0.652091   -2.546668
     32          1           0       -3.960298   -0.137428   -2.371826
     33          1           0       -1.870284   -1.965734   -0.235997
     34          1           0        4.276531    2.369415    0.054690
     35          1           0       -0.145196    2.598365   -0.030901
     36          1           0       -3.587056    2.573462    0.743509
     37          1           0       -2.327325    3.555807   -0.029870
     38          1           0       -3.499788    2.652101   -1.009104
 ---------------------------------------------------------------------

 The electronic state is 1-A.
 Alpha  occ. eigenvalues --  -24.75361 -24.74525 -24.74459 -14.45606 -14.38851
 Alpha  occ. eigenvalues --  -14.33620 -14.32962 -10.46619 -10.27708 -10.25119
 Alpha  occ. eigenvalues --  -10.24716 -10.24282 -10.22747 -10.22715 -10.22304
 Alpha  occ. eigenvalues --  -10.21016 -10.20525 -10.20345 -10.20339 -10.19604
 Alpha  occ. eigenvalues --  -10.19577 -10.19450 -10.19342 -10.19250 -10.18810
 Alpha  occ. eigenvalues --   -1.32703  -1.24147  -1.23673  -1.09214  -0.95407
 Alpha  occ. eigenvalues --   -0.89847  -0.87478  -0.86670  -0.84105  -0.82791
 Alpha  occ. eigenvalues --   -0.78616  -0.77298  -0.74598  -0.73974  -0.71705
 Alpha  occ. eigenvalues --   -0.69175  -0.67770  -0.66765  -0.63675  -0.62806
 Alpha  occ. eigenvalues --   -0.60814  -0.60423  -0.60396  -0.59138  -0.57275
 Alpha  occ. eigenvalues --   -0.53822  -0.52061  -0.51605  -0.49638  -0.49116
 Alpha  occ. eigenvalues --   -0.48778  -0.47815  -0.47618  -0.47087  -0.46870
 Alpha  occ. eigenvalues --   -0.44598  -0.44311  -0.43958  -0.43372  -0.42946
 Alpha  occ. eigenvalues --   -0.42121  -0.41989  -0.41651  -0.41385  -0.40790
 Alpha  occ. eigenvalues --   -0.39983  -0.39232  -0.39047  -0.37525  -0.36351
 Alpha  occ. eigenvalues --   -0.35719  -0.35541  -0.34870  -0.34227  -0.33823
 Alpha  occ. eigenvalues --   -0.31838  -0.31347  -0.28109  -0.27526  -0.26688
 Alpha  occ. eigenvalues --   -0.25110  -0.24668  -0.24391
 Alpha virt. eigenvalues --   -0.05415  -0.04372  -0.02288  -0.00951  -0.00327
 Alpha virt. eigenvalues --    0.03326   0.03469   0.05973   0.08914   0.09498
 Alpha virt. eigenvalues --    0.10140   0.11629   0.11701   0.12353   0.13485

 Mulliken charges:
               1
     1  C   -0.535623
     2  C    0.164944
     3  C   -0.195041
     4  C   -0.117287
     5  C   -0.135432
     6  C   -0.155217
     7  C   -0.016158
     8  C   -0.032983
     9  C    0.020993
    10  N   -0.503432
    11  C    0.301558
    12  C    0.316531
    13  N   -0.356348
    14  N   -0.475208
    15  C    0.246347
    16  C    0.857540
    17  F   -0.244333
    18  F   -0.244471
    19  F   -0.282034
    20  C   -0.018060
    21  C    0.251166
    22  N   -0.483707
    23  C   -0.233967
    24  C    0.194890
    25  C   -0.534749
    26  H    0.172942
    27  H    0.156415
    28  H    0.161736
    29  H    0.126912
    30  H    0.131967
    31  H    0.132870
    32  H    0.135372
    33  H    0.155768
    34  H    0.365102
    35  H    0.158571
    36  H    0.174623
    37  H    0.160689
    38  H    0.177113
 Sum of Mulliken charges =  -0.00000

 Dipole moment (field-independent basis, Debye):
    X=             -2.2931    Y=              5.6383    Z=              0.3630  Tot=              6.0976
 Quadrupole moment (field-independent basis, Debye-Ang):
   XX=           -121.9951   YY=           -147.6412   ZZ=           -135.5826
   XY=             17.0215   XZ=             -0.0322   YZ=             -0.8351

 Normal termination of Gaussian 16 at Fri Nov  4 20:21:33 2022.
