 Gaussian 16, Revision B.01,
 Gaussian 16:  ES64L-G16RevB.01 20-Dec-2017

 -------------------------------------------------------------------
 #p b3lyp/6-31g(d) 6D 10F nosymm GFInput td=(50-50,nstate=2) SCF=XQC
 -------------------------------------------------------------------

 ------------------------------
 Gaussian input prepared by ASE
 ------------------------------
 Symbolic Z-matrix:
 Charge =  0 Multiplicity = 1

                          Input orientation:
 ---------------------------------------------------------------------
 Center     Atomic      Atomic             Coordinates (Angstroms)
 Number     Number       Type             X           Y           Z
 ---------------------------------------------------------------------
      1          6           0        1.796052    2.598643    3.626392
      2          6           0        2.492274    2.226349    2.536137
      3          7           0        3.217525    0.998714    2.508282
      4          7           0        2.818078    0.064939    1.519070
      5          6           0        2.350074   -1.144634    1.921738
      6          8           0        2.085039   -1.392500    3.099554
      7          6           0        2.227062   -2.208707    0.816911
      8          7           0        1.159384   -1.977285   -0.171910
      9          6           0       -0.116869   -2.606023    0.003386
     10          6           0       -0.821785   -3.157809   -1.070865
     11          6           0       -2.078410   -3.741879   -0.863926
     12          6           0       -2.851298   -4.299852   -2.037181
     13          6           0       -2.598890   -3.798331    0.430593
     14          6           0       -1.893399   -3.275491    1.522052
     15          6           0       -2.453785   -3.380712    2.922145
     16          6           0       -0.657473   -2.664602    1.298378
     17         16           0        1.585669   -1.186811   -1.611518
     18          8           0        2.852687   -0.502818   -1.283997
     19          8           0        1.588204   -2.090085   -2.768349
     20          6           0        0.260729   -0.012741   -1.838832
     21          6           0       -0.184203    0.225909   -3.131735
     22          6           0       -1.171291    1.195025   -3.339295
     23          6           0       -1.716474    1.897214   -2.264880
     24          8           0       -2.685003    2.839298   -2.362944
     25          6           0       -3.191095    3.153020   -3.652609
     26          6           0       -1.263910    1.628006   -0.941617
     27          8           0       -1.880123    2.328667    0.041458
     28          6           0       -1.609234    1.962091    1.390695
     29          6           0       -0.259430    0.689244   -0.740672
     30          6           0        2.696568    3.066171    1.351423
     31          6           0        3.747661    3.027583    0.462973
     32          6           0        3.648405    3.998297   -0.574655
     33          6           0        2.521186    4.766684   -0.473668
     34         16           0        1.554033    4.309818    0.890705
     35          1           0        1.411648    3.606919    3.736946
     36          1           0        1.641069    1.912797    4.453748
     37          1           0        3.126932    0.501802    3.394784
     38          1           0        3.198294    0.181004    0.584482
     39          1           0        3.183883   -2.302959    0.297121
     40          1           0        2.014170   -3.153777    1.318176
     41          1           0       -0.390621   -3.149040   -2.065031
     42          1           0       -2.191324   -4.818766   -2.741102
     43          1           0       -3.621369   -5.005846   -1.710089
     44          1           0       -3.353951   -3.499740   -2.596680
     45          1           0       -3.568566   -4.263985    0.595983
     46          1           0       -3.526254   -3.155523    2.942083
     47          1           0       -2.330295   -4.395841    3.321901
     48          1           0       -1.948575   -2.695240    3.609586
     49          1           0       -0.106810   -2.248098    2.136710
     50          1           0        0.220793   -0.338898   -3.963165
     51          1           0       -1.519779    1.384358   -4.347559
     52          1           0       -2.402845    3.542757   -4.309522
     53          1           0       -3.657855    2.278748   -4.124471
     54          1           0       -3.945475    3.925044   -3.493873
     55          1           0       -2.274414    2.576180    1.999934
     56          1           0       -1.828008    0.900185    1.561673
     57          1           0       -0.569555    2.169892    1.668434
     58          1           0        0.110252    0.483032    0.255066
     59          1           0        4.579832    2.342148    0.575974
     60          1           0        4.386302    4.118487   -1.360248
     61          1           0        2.194564    5.568966   -1.121635
 ---------------------------------------------------------------------

 SCF Done:  E(RB3LYP) =  -2267.42280972     A.U. after   15 cycles

 Excitation energies and oscillator strengths:

 Excited state symmetry could not be determined.
 Excited State   1:      Triplet-?Sym    2.6541 eV  467.15 nm  f=0.0000  <S**2>=2.000
     129 ->133         0.22860
     132 ->133         0.64716
     132 <-133         0.10050
 This state for optimization and/or second-order correction.
 Total Energy, E(TD-HF/TD-DFT) =  -2267.32527427
 Copying the excited state density for this state as the 1-particle RhoCI density.

 Excited state symmetry could not be determined.
 Excited State   2:      Triplet-?Sym    3.3715 eV  367.74 nm  f=0.0000  <S**2>=2.000
     127 ->134         0.10018
     130 ->134         0.61429
     130 ->135         0.14626
     130 ->137         0.10572

 Excited state symmetry could not be determined.
 Excited State   3:      Singlet-?Sym    4.2821 eV  289.54 nm  f=0.0394  <S**2>=0.000
     129 ->133        -0.35030
     130 ->133        -0.11847
     132 ->133         0.59184

 Excited state symmetry could not be determined.
 Excited State   4:      Singlet-?Sym    4.4220 eV  280.38 nm  f=0.0036  <S**2>=0.000
     129 ->133        -0.10558
     130 ->133         0.67056
     131 ->133         0.18371

 Alpha  occ. eigenvalues --  -89.12045 -88.90985 -19.19308 -19.18439 -19.14955
 Alpha  occ. eigenvalues --  -19.14571 -19.12382 -14.38866 -14.38295 -14.37739
 Alpha  occ. eigenvalues --  -10.29339 -10.26603 -10.26168 -10.25219 -10.24203
 Alpha  occ. eigenvalues --  -10.23965 -10.23946 -10.23557 -10.22624 -10.22309
 Alpha  occ. eigenvalues --  -10.21779 -10.20880 -10.20806 -10.20504 -10.19726
 Alpha  occ. eigenvalues --  -10.19676 -10.19553 -10.19499 -10.18307 -10.18277
 Alpha  occ. eigenvalues --  -10.18247 -10.18236 -10.18089 -10.17960  -8.14506
 Alpha  occ. eigenvalues --   -7.97077  -6.11033  -6.10924  -6.10792  -5.93485
 Alpha  occ. eigenvalues --   -5.93118  -5.92779  -1.11500  -1.08733  -1.06505
 Alpha  occ. eigenvalues --   -1.05185  -1.00294  -0.98558  -0.95040  -0.88484
 Alpha  occ. eigenvalues --   -0.87117  -0.85492  -0.84870  -0.79000  -0.77961
 Alpha  occ. eigenvalues --   -0.77137  -0.76705  -0.75513  -0.73755  -0.73466
 Alpha  occ. eigenvalues --   -0.71750  -0.71100  -0.70622  -0.68997  -0.68033
 Alpha  occ. eigenvalues --   -0.65744  -0.62320  -0.61915  -0.61298  -0.60375
 Alpha  occ. eigenvalues --   -0.57554  -0.57475  -0.56191  -0.55271  -0.55162
 Alpha  occ. eigenvalues --   -0.53395  -0.52343  -0.51738  -0.51259  -0.50949
 Alpha  occ. eigenvalues --   -0.49820  -0.49230  -0.48564  -0.48476  -0.48412
 Alpha  occ. eigenvalues --   -0.46824  -0.46598  -0.46405  -0.46070  -0.45129
 Alpha  occ. eigenvalues --   -0.44740  -0.44097  -0.42886  -0.42790  -0.42072
 Alpha  occ. eigenvalues --   -0.41955  -0.41565  -0.41268  -0.41105  -0.40306
 Alpha  occ. eigenvalues --   -0.40251  -0.39839  -0.39750  -0.39377  -0.39050
 Alpha  occ. eigenvalues --   -0.38728  -0.38079  -0.37719  -0.37712  -0.36532
 Alpha  occ. eigenvalues --   -0.35595  -0.35083  -0.34555  -0.34367  -0.34168
 Alpha  occ. eigenvalues --   -0.33861  -0.33689  -0.33226  -0.33076  -0.32255
 Alpha  occ. eigenvalues --   -0.31172  -0.30764  -0.29115  -0.28269  -0.26019
 Alpha  occ. eigenvalues --   -0.25507  -0.25182  -0.23707  -0.23361  -0.22008
 Alpha  occ. eigenvalues --   -0.21901  -0.21251
 Alpha virt. eigenvalues --   -0.03849  -0.02950  -0.00907   0.00161   0.00279
 Alpha virt. eigenvalues --    0.00733   0.02514   0.03851   0.05983   0.07104
 Alpha virt. eigenvalues --    0.07758   0.08448   0.09310   0.09555   0.09804

 Mulliken charges:
               1
     1  C   -0.444242
     2  C    0.360674
     3  N   -0.490956
     4  N   -0.484873
     5  C    0.595509
     6  O   -0.532727
     7  C   -0.245211
     8  N   -0.684195
     9  C    0.301908
    10  C   -0.232673
    11  C    0.169596
    12  C   -0.529875
    13  C   -0.229698
    14  C    0.171579
    15  C   -0.531697
    16  C   -0.247836
    17  S    1.267599
    18  O   -0.568295
    19  O   -0.535963
    20  C   -0.163911
    21  C   -0.153904
    22  C   -0.202457
    23  C    0.349103
    24  O   -0.488459
    25  C   -0.220812
    26  C    0.352227
    27  O   -0.499369
    28  C   -0.237322
    29  C   -0.202498
    30  C   -0.191791
    31  C   -0.123520
    32  C   -0.094293
    33  C   -0.341826
    34  S    0.259289
    35  H    0.159132
    36  H    0.152345
    37  H    0.342896
    38  H    0.394454
    39  H    0.202884
    40  H    0.200880
    41  H    0.175800
    42  H    0.163643
    43  H    0.154664
    44  H    0.165028
    45  H    0.113019
    46  H    0.156927
    47  H    0.167476
    48  H    0.162546
    49  H    0.163266
    50  H    0.175771
    51  H    0.144871
    52  H    0.157371
    53  H    0.157108
    54  H    0.178017
    55  H    0.171455
    56  H    0.160633
    57  H    0.173675
    58  H    0.177556
    59  H    0.157783
    60  H    0.147183
    61  H    0.174539
 Sum of Mulliken charges =  -0.00000

 Dipole moment (field-independent basis, Debye):
    X=             -3.7185    Y=              2.1390    Z=             -1.6826  Tot=              4.6080
 Quadrupole moment (field-independent basis, Debye-Ang):
   XX=           -206.3178   YY=           -204.5559   ZZ=           -202.2009
   XY=              3.5903   XZ=              6.6311   YZ=            -12.0247

 Normal termination of Gaussian 16 at Sat Nov  5 12:12:47 2022.
