 Gaussian 16, Revision B.01,
 Gaussian 16:  ES64L-G16RevB.01 20-Dec-2017

 -----------------------------
 #p b3lyp/6-31g(d) opt SCF=XQC
 -----------------------------

 ------------------------------
 Gaussian input prepared by ASE
 ------------------------------
 Symbolic Z-matrix:
 Charge =  0 Multiplicity = 1

 SCF Done:  E(RB3LYP) =  -2267.39275096     A.U. after   15 cycles
 SCF Done:  E(RB3LYP) =  -2267.40477950     A.U. after   16 cycles
 SCF Done:  E(RB3LYP) =  -2267.41188487     A.U. after   14 cycles
 SCF Done:  E(RB3LYP) =  -2267.40635497     A.U. after   13 cycles
 SCF Done:  E(RB3LYP) =  -2267.41488222     A.U. after   14 cycles
 SCF Done:  E(RB3LYP) =  -2267.42003325     A.U. after   12 cycles
 SCF Done:  E(RB3LYP) =  -2267.41503005     A.U. after   13 cycles
 SCF Done:  E(RB3LYP) =  -2267.41895664     A.U. after   13 cycles
 SCF Done:  E(RB3LYP) =  -2267.42090256     A.U. after   11 cycles
 SCF Done:  E(RB3LYP) =  -2267.42169017     A.U. after   12 cycles
 SCF Done:  E(RB3LYP) =  -2267.42276427     A.U. after    9 cycles
 SCF Done:  E(RB3LYP) =  -2267.42278212     A.U. after   10 cycles
 SCF Done:  E(RB3LYP) =  -2267.42278325     A.U. after   10 cycles
 SCF Done:  E(RB3LYP) =  -2267.42278811     A.U. after   10 cycles
 SCF Done:  E(RB3LYP) =  -2267.42279123     A.U. after    9 cycles
 SCF Done:  E(RB3LYP) =  -2267.42279229     A.U. after    9 cycles
 SCF Done:  E(RB3LYP) =  -2267.42279231     A.U. after    9 cycles
 SCF Done:  E(RB3LYP) =  -2267.42279268     A.U. after    9 cycles
 SCF Done:  E(RB3LYP) =  -2267.42279271     A.U. after    6 cycles
 SCF Done:  E(RB3LYP) =  -2267.42279272     A.U. after    5 cycles
 Optimization completed.
    -- Stationary point found.

                         Standard orientation:
 ---------------------------------------------------------------------
 Center     Atomic      Atomic             Coordinates (Angstroms)
 Number     Number       Type             X           Y           Z
 ---------------------------------------------------------------------
      1          6           0        3.337418   -2.368413    2.225160
      2          6           0        3.187674   -2.143660    0.906430
      3          7           0        2.480115   -3.063493    0.077504
      4          7           0        1.330245   -2.551946   -0.575299
      5          6           0        0.124372   -3.110097   -0.294989
      6          8           0       -0.036139   -3.907335    0.631067
      7          6           0       -1.020977   -2.726470   -1.248420
      8          7           0       -1.493499   -1.334529   -1.146026
      9          6           0       -2.627836   -1.030184   -0.324129
     10          6           0       -3.610789   -0.121950   -0.729471
     11          6           0       -4.692286    0.168748    0.112506
     12          6           0       -5.728873    1.181960   -0.316566
     13          6           0       -4.794377   -0.486092    1.341584
     14          6           0       -3.833388   -1.419551    1.750872
     15          6           0       -3.980556   -2.148595    3.067003
     16          6           0       -2.741469   -1.675182    0.918350
     17         16           0       -0.828226   -0.202504   -2.220723
     18          8           0        0.426654   -0.833834   -2.675858
     19          8           0       -1.782239    0.219273   -3.253259
     20          6           0       -0.497666    1.205768   -1.175219
     21          6           0       -0.708038    2.472535   -1.702062
     22          6           0       -0.386440    3.590253   -0.924958
     23          6           0        0.118052    3.438203    0.366177
     24          8           0        0.442302    4.456202    1.199079
     25          6           0        0.267261    5.787412    0.735368
     26          6           0        0.310532    2.132287    0.900823
     27          8           0        0.765092    2.083519    2.176784
     28          6           0        0.789490    0.816749    2.827088
     29          6           0        0.022478    1.022983    0.115263
     30          6           0        3.826742   -1.048035    0.170370
     31          6           0        4.167686   -1.015698   -1.163174
     32          6           0        4.794409    0.200775   -1.558422
     33          6           0        4.922779    1.089047   -0.526078
     34         16           0        4.269861    0.455491    0.949703
     35          1           0        4.034785   -1.791723    2.823253
     36          1           0        2.799682   -3.170384    2.721753
     37          1           0        2.145310   -3.859963    0.620235
     38          1           0        1.470890   -2.048564   -1.446114
     39          1           0       -0.716921   -2.927797   -2.278756
     40          1           0       -1.860100   -3.379201   -1.004374
     41          1           0       -3.546843    0.348403   -1.703651
     42          1           0       -5.962800    1.088542   -1.382817
     43          1           0       -6.660135    1.065308    0.246968
     44          1           0       -5.371335    2.207398   -0.153705
     45          1           0       -5.640898   -0.272385    1.991344
     46          1           0       -4.305272   -1.471660    3.865513
     47          1           0       -4.732022   -2.945889    2.995165
     48          1           0       -3.039347   -2.613716    3.375988
     49          1           0       -1.986244   -2.390456    1.230639
     50          1           0       -1.125076    2.590115   -2.695318
     51          1           0       -0.548460    4.580383   -1.333955
     52          1           0        0.884503    5.988888   -0.149612
     53          1           0       -0.784412    5.995608    0.499767
     54          1           0        0.588952    6.430489    1.555901
     55          1           0        1.088153    1.021940    3.856378
     56          1           0       -0.203899    0.350031    2.817413
     57          1           0        1.516572    0.137104    2.368081
     58          1           0        0.178355    0.022616    0.496902
     59          1           0        4.000185   -1.856283   -1.826844
     60          1           0        5.135488    0.402878   -2.567834
     61          1           0        5.354140    2.080939   -0.542781
 ---------------------------------------------------------------------

 The electronic state is 1-A.
 Alpha  occ. eigenvalues --  -89.12045 -88.90984 -19.19308 -19.18439 -19.14955
 Alpha  occ. eigenvalues --  -19.14571 -19.12382 -14.38866 -14.38295 -14.37739
 Alpha  occ. eigenvalues --  -10.29339 -10.26603 -10.26168 -10.25219 -10.24203
 Alpha  occ. eigenvalues --  -10.23965 -10.23946 -10.23557 -10.22624 -10.22308
 Alpha  occ. eigenvalues --  -10.21779 -10.20880 -10.20806 -10.20504 -10.19726
 Alpha  occ. eigenvalues --  -10.19676 -10.19552 -10.19499 -10.18307 -10.18277
 Alpha  occ. eigenvalues --  -10.18247 -10.18236 -10.18089 -10.17960  -8.14506
 Alpha  occ. eigenvalues --   -7.97076  -6.11033  -6.10924  -6.10792  -5.93484
 Alpha  occ. eigenvalues --   -5.93117  -5.92778  -1.11500  -1.08733  -1.06504
 Alpha  occ. eigenvalues --   -1.05185  -1.00294  -0.98558  -0.95040  -0.88484
 Alpha  occ. eigenvalues --   -0.87117  -0.85492  -0.84870  -0.79000  -0.77961
 Alpha  occ. eigenvalues --   -0.77137  -0.76705  -0.75513  -0.73755  -0.73466
 Alpha  occ. eigenvalues --   -0.71750  -0.71100  -0.70622  -0.68997  -0.68033
 Alpha  occ. eigenvalues --   -0.65744  -0.62320  -0.61915  -0.61298  -0.60375
 Alpha  occ. eigenvalues --   -0.57554  -0.57475  -0.56191  -0.55271  -0.55162
 Alpha  occ. eigenvalues --   -0.53395  -0.52343  -0.51738  -0.51259  -0.50949
 Alpha  occ. eigenvalues --   -0.49820  -0.49230  -0.48564  -0.48476  -0.48412
 Alpha  occ. eigenvalues --   -0.46824  -0.46598  -0.46405  -0.46070  -0.45129
 Alpha  occ. eigenvalues --   -0.44740  -0.44097  -0.42886  -0.42790  -0.42072
 Alpha  occ. eigenvalues --   -0.41955  -0.41565  -0.41268  -0.41105  -0.40306
 Alpha  occ. eigenvalues --   -0.40251  -0.39839  -0.39750  -0.39377  -0.39050
 Alpha  occ. eigenvalues --   -0.38728  -0.38079  -0.37719  -0.37712  -0.36532
 Alpha  occ. eigenvalues --   -0.35595  -0.35083  -0.34555  -0.34367  -0.34168
 Alpha  occ. eigenvalues --   -0.33861  -0.33689  -0.33226  -0.33076  -0.32255
 Alpha  occ. eigenvalues --   -0.31172  -0.30764  -0.29115  -0.28269  -0.26019
 Alpha  occ. eigenvalues --   -0.25507  -0.25181  -0.23707  -0.23361  -0.22009
 Alpha  occ. eigenvalues --   -0.21901  -0.21251
 Alpha virt. eigenvalues --   -0.03849  -0.02950  -0.00907   0.00161   0.00279
 Alpha virt. eigenvalues --    0.00733   0.02514   0.03851   0.05983   0.07104
 Alpha virt. eigenvalues --    0.07758   0.08448   0.09310   0.09555   0.09804

 Mulliken charges:
               1
     1  C   -0.444258
     2  C    0.360692
     3  N   -0.490952
     4  N   -0.484874
     5  C    0.595504
     6  O   -0.532728
     7  C   -0.245232
     8  N   -0.684183
     9  C    0.301903
    10  C   -0.232672
    11  C    0.169582
    12  C   -0.529867
    13  C   -0.229682
    14  C    0.171570
    15  C   -0.531700
    16  C   -0.247834
    17  S    1.267640
    18  O   -0.568308
    19  O   -0.535968
    20  C   -0.163913
    21  C   -0.153894
    22  C   -0.202460
    23  C    0.349106
    24  O   -0.488461
    25  C   -0.220813
    26  C    0.352237
    27  O   -0.499376
    28  C   -0.237314
    29  C   -0.202518
    30  C   -0.191809
    31  C   -0.123510
    32  C   -0.094298
    33  C   -0.341829
    34  S    0.259315
    35  H    0.159131
    36  H    0.152347
    37  H    0.342895
    38  H    0.394454
    39  H    0.202885
    40  H    0.200882
    41  H    0.175800
    42  H    0.163643
    43  H    0.154663
    44  H    0.165024
    45  H    0.113018
    46  H    0.156928
    47  H    0.167477
    48  H    0.162548
    49  H    0.163265
    50  H    0.175770
    51  H    0.144871
    52  H    0.157371
    53  H    0.157108
    54  H    0.178017
    55  H    0.171455
    56  H    0.160634
    57  H    0.173667
    58  H    0.177557
    59  H    0.157777
    60  H    0.147182
    61  H    0.174537
 Sum of Mulliken charges =  -0.00000

 Dipole moment (field-independent basis, Debye):
    X=             -0.2279    Y=              4.1852    Z=              1.9150  Tot=              4.6081
 Quadrupole moment (field-independent basis, Debye-Ang):
   XX=           -203.9587   YY=           -192.5400   ZZ=           -214.9535
   XY=              1.5509   XZ=             -7.5760   YZ=             -2.9198

 Normal termination of Gaussian 16 at Fri Nov  4 22:25:50 2022.
