 Gaussian 16, Revision B.01,
 Gaussian 16:  ES64L-G16RevB.01 20-Dec-2017

 -----------------------------
 #p b3lyp/6-31g(d) opt SCF=XQC
 -----------------------------

 ------------------------------
 Gaussian input prepared by ASE
 ------------------------------
 Symbolic Z-matrix:
 Charge =  0 Multiplicity = 1

 SCF Done:  E(RB3LYP) =  -1902.62172186     A.U. after   16 cycles
 SCF Done:  E(RB3LYP) =  -1902.63031637     A.U. after   14 cycles
 SCF Done:  E(RB3LYP) =  -1902.63071675     A.U. after   14 cycles
 SCF Done:  E(RB3LYP) =  -1902.62552315     A.U. after   15 cycles
 SCF Done:  E(RB3LYP) =  -1902.63168419     A.U. after   14 cycles
 SCF Done:  E(RB3LYP) =  -1902.63204700     A.U. after   12 cycles
 SCF Done:  E(RB3LYP) =  -1902.63248188     A.U. after   13 cycles
 SCF Done:  E(RB3LYP) =  -1902.63259943     A.U. after   12 cycles
 SCF Done:  E(RB3LYP) =  -1902.63269843     A.U. after   12 cycles
 SCF Done:  E(RB3LYP) =  -1902.63279757     A.U. after   12 cycles
 SCF Done:  E(RB3LYP) =  -1902.63285289     A.U. after    8 cycles
 SCF Done:  E(RB3LYP) =  -1902.63285332     A.U. after    9 cycles
 SCF Done:  E(RB3LYP) =  -1902.63285361     A.U. after   10 cycles
 SCF Done:  E(RB3LYP) =  -1902.63285369     A.U. after    8 cycles
 SCF Done:  E(RB3LYP) =  -1902.63285378     A.U. after    8 cycles
 SCF Done:  E(RB3LYP) =  -1902.63285388     A.U. after    8 cycles
 SCF Done:  E(RB3LYP) =  -1902.63285396     A.U. after    8 cycles
 SCF Done:  E(RB3LYP) =  -1902.63285399     A.U. after    8 cycles
 SCF Done:  E(RB3LYP) =  -1902.63285400     A.U. after    8 cycles
 SCF Done:  E(RB3LYP) =  -1902.63285401     A.U. after    7 cycles
 Optimization completed.
    -- Stationary point found.

                         Standard orientation:
 ---------------------------------------------------------------------
 Center     Atomic      Atomic             Coordinates (Angstroms)
 Number     Number       Type             X           Y           Z
 ---------------------------------------------------------------------
      1          6           0       -2.530050   -3.417210    0.816352
      2          8           0       -2.854198   -2.079659    0.470086
      3          6           0       -1.829409   -1.238718    0.159838
      4          6           0       -0.486819   -1.581123    0.162766
      5          6           0        0.500512   -0.630385   -0.176312
      6          6           0        1.922619   -0.967455   -0.174684
      7          7           0        2.328481   -2.147151    0.133880
      8          7           0        3.680420   -2.433977    0.198921
      9         16           0        4.905898   -1.784305   -0.838140
     10          8           0        5.910466   -2.851231   -0.860855
     11          8           0        4.334264   -1.213618   -2.058419
     12          6           0        5.568141   -0.420484    0.133791
     13          6           0        6.266303   -0.697525    1.313256
     14          6           0        6.803392    0.356100    2.051642
     15          6           0        6.651066    1.672231    1.613551
     16          6           0        5.957473    1.909114    0.429758
     17          7           0        5.794569    3.299130   -0.037337
     18          8           0        5.152259    3.478772   -1.069677
     19          8           0        6.308380    4.188233    0.638646
     20          6           0        5.409300    0.879988   -0.332539
     21          6           0        0.108655    0.663906   -0.518888
     22          6           0       -1.243463    1.021518   -0.525603
     23          6           0       -2.219206    0.085985   -0.189635
     24          8           0       -3.555204    0.320635   -0.162436
     25          6           0       -4.033643    1.613468   -0.503669
     26          6           0       -5.529863    1.641223   -0.405695
     27          6           0       -6.292375    0.598435   -0.051567
     28          6           0       -7.758498    0.568043    0.061373
     29          6           0       -8.378751   -0.638894    0.428862
     30          6           0       -9.764260   -0.733343    0.552079
     31          6           0      -10.565101    0.382834    0.310072
     32          6           0       -9.965402    1.592006   -0.055441
     33          6           0       -8.582312    1.683972   -0.177896
     34          1           0       -3.482064   -3.910532    1.019823
     35          1           0       -1.898502   -3.459246    1.713504
     36          1           0       -2.019987   -3.933789   -0.007216
     37          1           0       -0.166543   -2.582146    0.422803
     38          1           0        2.602403   -0.160300   -0.453233
     39          1           0        3.819299   -3.442784    0.196686
     40          1           0        6.388746   -1.724329    1.640964
     41          1           0        7.345202    0.153264    2.969932
     42          1           0        7.058547    2.509038    2.167298
     43          1           0        4.887163    1.090661   -1.257657
     44          1           0        0.856722    1.405427   -0.786664
     45          1           0       -1.524982    2.032258   -0.796016
     46          1           0       -3.593681    2.367347    0.170267
     47          1           0       -3.713239    1.875250   -1.525797
     48          1           0       -5.967290    2.607087   -0.653698
     49          1           0       -5.786820   -0.336366    0.179678
     50          1           0       -7.759372   -1.512490    0.618585
     51          1           0      -10.217222   -1.679304    0.837257
     52          1           0      -11.645409    0.314557    0.404959
     53          1           0      -10.580583    2.467835   -0.245313
     54          1           0       -8.138632    2.634266   -0.461391
 ---------------------------------------------------------------------

 The electronic state is 1-A.
 Alpha  occ. eigenvalues --  -89.12946 -19.19665 -19.19663 -19.18691 -19.18234
 Alpha  occ. eigenvalues --  -19.16708 -19.16473 -14.58814 -14.40941 -14.37977
 Alpha  occ. eigenvalues --  -10.27665 -10.26009 -10.25786 -10.25555 -10.25343
 Alpha  occ. eigenvalues --  -10.24774 -10.24736 -10.24489 -10.24346 -10.24010
 Alpha  occ. eigenvalues --  -10.23822 -10.20197 -10.19766 -10.19706 -10.19622
 Alpha  occ. eigenvalues --  -10.19473 -10.19211 -10.18992 -10.18923 -10.18881
 Alpha  occ. eigenvalues --  -10.18873 -10.18868 -10.18779  -8.15581  -6.12058
 Alpha  occ. eigenvalues --   -6.11985  -6.11884  -1.24031  -1.13124  -1.08333
 Alpha  occ. eigenvalues --   -1.06794  -1.06206  -1.02397  -1.00936  -0.91790
 Alpha  occ. eigenvalues --   -0.87061  -0.85516  -0.84381  -0.83234  -0.80752
 Alpha  occ. eigenvalues --   -0.80389  -0.77059  -0.75559  -0.74431  -0.74179
 Alpha  occ. eigenvalues --   -0.72644  -0.71158  -0.70179  -0.69065  -0.65224
 Alpha  occ. eigenvalues --   -0.63683  -0.62338  -0.60776  -0.60601  -0.59530
 Alpha  occ. eigenvalues --   -0.58596  -0.57320  -0.56000  -0.54755  -0.54478
 Alpha  occ. eigenvalues --   -0.54263  -0.53385  -0.53200  -0.53000  -0.51348
 Alpha  occ. eigenvalues --   -0.50689  -0.50316  -0.49926  -0.48987  -0.48547
 Alpha  occ. eigenvalues --   -0.47963  -0.46937  -0.46721  -0.46187  -0.45737
 Alpha  occ. eigenvalues --   -0.45128  -0.44471  -0.43635  -0.42776  -0.42493
 Alpha  occ. eigenvalues --   -0.42063  -0.41755  -0.41593  -0.41023  -0.40669
 Alpha  occ. eigenvalues --   -0.39553  -0.39403  -0.37761  -0.37408  -0.37028
 Alpha  occ. eigenvalues --   -0.36970  -0.34443  -0.34190  -0.34138  -0.34096
 Alpha  occ. eigenvalues --   -0.33567  -0.33460  -0.33132  -0.33024  -0.32563
 Alpha  occ. eigenvalues --   -0.32412  -0.32180  -0.30713  -0.30430  -0.30303
 Alpha  occ. eigenvalues --   -0.29292  -0.28247  -0.27261  -0.24925  -0.23818
 Alpha  occ. eigenvalues --   -0.21871  -0.20645
 Alpha virt. eigenvalues --   -0.10649  -0.06367  -0.04479  -0.03049  -0.02442
 Alpha virt. eigenvalues --    0.00209   0.00451   0.03066   0.05110   0.05764
 Alpha virt. eigenvalues --    0.06288   0.06941   0.08330   0.08550   0.09280

 Mulliken charges:
               1
     1  C   -0.216158
     2  O   -0.503783
     3  C    0.344545
     4  C   -0.257947
     5  C    0.147506
     6  C    0.050980
     7  N   -0.286542
     8  N   -0.579961
     9  S    1.267955
    10  O   -0.537447
    11  O   -0.521050
    12  C   -0.167993
    13  C   -0.102688
    14  C   -0.140453
    15  C   -0.134593
    16  C    0.273856
    17  N    0.389043
    18  O   -0.384561
    19  O   -0.386912
    20  C   -0.166545
    21  C   -0.210405
    22  C   -0.205298
    23  C    0.356654
    24  O   -0.507296
    25  C   -0.054038
    26  C   -0.178416
    27  C   -0.156130
    28  C    0.176372
    29  C   -0.195224
    30  C   -0.129521
    31  C   -0.129158
    32  C   -0.130809
    33  C   -0.180264
    34  H    0.170663
    35  H    0.155179
    36  H    0.157066
    37  H    0.157621
    38  H    0.144424
    39  H    0.372568
    40  H    0.187432
    41  H    0.166397
    42  H    0.196289
    43  H    0.225773
    44  H    0.134708
    45  H    0.141944
    46  H    0.152231
    47  H    0.153720
    48  H    0.133139
    49  H    0.163364
    50  H    0.130769
    51  H    0.129849
    52  H    0.129432
    53  H    0.129486
    54  H    0.124224
 Sum of Mulliken charges =  -0.00000

 Dipole moment (field-independent basis, Debye):
    X=             -1.1897    Y=             -1.0563    Z=              4.1630  Tot=              4.4566
 Quadrupole moment (field-independent basis, Debye-Ang):
   XX=           -182.1956   YY=           -194.6835   ZZ=           -199.7500
   XY=             -7.3622   XZ=             26.2835   YZ=             -8.6175

 Normal termination of Gaussian 16 at Fri Nov  4 20:28:49 2022.
