 Gaussian 16, Revision B.01,
 Gaussian 16:  ES64L-G16RevB.01 20-Dec-2017

 -------------------------------------------------------------------
 #p b3lyp/6-31g(d) 6D 10F nosymm GFInput td=(50-50,nstate=2) SCF=XQC
 -------------------------------------------------------------------

 ------------------------------
 Gaussian input prepared by ASE
 ------------------------------
 Symbolic Z-matrix:
 Charge =  0 Multiplicity = 1

                          Input orientation:
 ---------------------------------------------------------------------
 Center     Atomic      Atomic             Coordinates (Angstroms)
 Number     Number       Type             X           Y           Z
 ---------------------------------------------------------------------
      1          6           0       -1.690185    0.845003   -3.347815
      2          8           0       -1.957726    0.710096   -1.960646
      3          6           0       -0.894258    0.611403   -1.116298
      4          6           0        0.436149    0.623199   -1.503177
      5          6           0        1.466893    0.514692   -0.544275
      6          6           0        2.876669    0.519307   -0.929657
      7          7           0        3.231763    0.625605   -2.160196
      8          7           0        4.566601    0.558872   -2.517956
      9         16           0        5.894688    1.188135   -1.601670
     10          8           0        6.878716    1.512817   -2.638142
     11          8           0        5.449649    2.162175   -0.604316
     12          6           0        6.486017   -0.261022   -0.710884
     13          6           0        7.065815   -1.313451   -1.426107
     14          6           0        7.549173   -2.423476   -0.734721
     15          6           0        7.460912   -2.479310    0.656833
     16          6           0        6.885385   -1.408731    1.335935
     17          7           0        6.790565   -1.463436    2.807287
     18          8           0        6.250929   -0.517057    3.376250
     19          8           0        7.253805   -2.454194    3.368772
     20          6           0        6.393650   -0.284438    0.676503
     21          6           0        1.130871    0.397477    0.804594
     22          6           0       -0.208408    0.384484    1.207481
     23          6           0       -1.227067    0.489448    0.263295
     24          8           0       -2.555563    0.488035    0.538590
     25          6           0       -2.977925    0.377135    1.889913
     26          6           0       -4.476056    0.397694    1.954906
     27          6           0       -5.285974    0.507184    0.893642
     28          6           0       -6.756533    0.532388    0.897569
     29          6           0       -7.428875    0.677172   -0.328585
     30          6           0       -8.821237    0.709404   -0.392061
     31          6           0       -9.576829    0.596309    0.775011
     32          6           0       -8.925095    0.450553    2.003560
     33          6           0       -7.535255    0.418706    2.064568
     34          1           0       -2.665306    0.911466   -3.833426
     35          1           0       -1.146262   -0.024595   -3.739539
     36          1           0       -1.114054    1.755156   -3.559892
     37          1           0        0.713625    0.717023   -2.545505
     38          1           0        3.593155    0.431404   -0.111052
     39          1           0        4.687940    0.913897   -3.464644
     40          1           0        7.139579   -1.257108   -2.506891
     41          1           0        7.999056   -3.247361   -1.279492
     42          1           0        7.828868   -3.328988    1.218595
     43          1           0        5.964123    0.541363    1.230050
     44          1           0        1.913208    0.317715    1.554760
     45          1           0       -0.446166    0.293641    2.260662
     46          1           0       -2.590302   -0.556896    2.329712
     47          1           0       -2.558783    1.206132    2.484068
     48          1           0       -4.871874    0.314906    2.965953
     49          1           0       -4.820240    0.588789   -0.085820
     50          1           0       -6.844907    0.766000   -1.241758
     51          1           0       -9.314908    0.822832   -1.353708
     52          1           0      -10.662278    0.620607    0.730947
     53          1           0       -9.504832    0.360714    2.918661
     54          1           0       -7.050907    0.302904    3.030113
 ---------------------------------------------------------------------

 SCF Done:  E(RB3LYP) =  -1902.63285230     A.U. after   19 cycles

 Excitation energies and oscillator strengths:

 Excited state symmetry could not be determined.
 Excited State   1:      Triplet-?Sym    2.3119 eV  536.28 nm  f=0.0000  <S**2>=2.000
     122 ->123         0.70451
 This state for optimization and/or second-order correction.
 Total Energy, E(TD-HF/TD-DFT) =  -1902.54789035
 Copying the excited state density for this state as the 1-particle RhoCI density.

 Excited state symmetry could not be determined.
 Excited State   2:      Singlet-?Sym    2.3185 eV  534.75 nm  f=0.0005  <S**2>=0.000
     122 ->123         0.70579

 Excited state symmetry could not be determined.
 Excited State   3:      Triplet-?Sym    2.6171 eV  473.75 nm  f=0.0000  <S**2>=2.000
     120 ->125         0.17104
     122 ->124         0.13665
     122 ->125         0.64261

 Excited state symmetry could not be determined.
 Excited State   4:      Singlet-?Sym    2.8373 eV  436.98 nm  f=0.0000  <S**2>=0.000
     121 ->123         0.70679

 Alpha  occ. eigenvalues --  -89.12946 -19.19665 -19.19663 -19.18691 -19.18234
 Alpha  occ. eigenvalues --  -19.16708 -19.16473 -14.58814 -14.40941 -14.37977
 Alpha  occ. eigenvalues --  -10.27665 -10.26009 -10.25786 -10.25555 -10.25343
 Alpha  occ. eigenvalues --  -10.24774 -10.24736 -10.24489 -10.24346 -10.24010
 Alpha  occ. eigenvalues --  -10.23822 -10.20197 -10.19766 -10.19706 -10.19622
 Alpha  occ. eigenvalues --  -10.19473 -10.19211 -10.18992 -10.18923 -10.18881
 Alpha  occ. eigenvalues --  -10.18873 -10.18868 -10.18779  -8.15581  -6.12058
 Alpha  occ. eigenvalues --   -6.11985  -6.11884  -1.24031  -1.13124  -1.08333
 Alpha  occ. eigenvalues --   -1.06794  -1.06206  -1.02397  -1.00936  -0.91790
 Alpha  occ. eigenvalues --   -0.87061  -0.85516  -0.84381  -0.83234  -0.80752
 Alpha  occ. eigenvalues --   -0.80389  -0.77059  -0.75559  -0.74431  -0.74179
 Alpha  occ. eigenvalues --   -0.72644  -0.71158  -0.70179  -0.69065  -0.65224
 Alpha  occ. eigenvalues --   -0.63683  -0.62338  -0.60776  -0.60601  -0.59530
 Alpha  occ. eigenvalues --   -0.58596  -0.57320  -0.56000  -0.54755  -0.54478
 Alpha  occ. eigenvalues --   -0.54263  -0.53385  -0.53200  -0.53000  -0.51348
 Alpha  occ. eigenvalues --   -0.50689  -0.50316  -0.49926  -0.48987  -0.48546
 Alpha  occ. eigenvalues --   -0.47963  -0.46937  -0.46721  -0.46187  -0.45737
 Alpha  occ. eigenvalues --   -0.45128  -0.44471  -0.43635  -0.42776  -0.42493
 Alpha  occ. eigenvalues --   -0.42063  -0.41755  -0.41593  -0.41023  -0.40669
 Alpha  occ. eigenvalues --   -0.39553  -0.39403  -0.37761  -0.37408  -0.37028
 Alpha  occ. eigenvalues --   -0.36970  -0.34443  -0.34190  -0.34138  -0.34096
 Alpha  occ. eigenvalues --   -0.33567  -0.33460  -0.33132  -0.33024  -0.32563
 Alpha  occ. eigenvalues --   -0.32412  -0.32180  -0.30713  -0.30430  -0.30304
 Alpha  occ. eigenvalues --   -0.29292  -0.28247  -0.27261  -0.24925  -0.23818
 Alpha  occ. eigenvalues --   -0.21871  -0.20645
 Alpha virt. eigenvalues --   -0.10649  -0.06367  -0.04479  -0.03049  -0.02442
 Alpha virt. eigenvalues --    0.00209   0.00451   0.03066   0.05110   0.05764
 Alpha virt. eigenvalues --    0.06288   0.06941   0.08329   0.08551   0.09280

 Mulliken charges:
               1
     1  C   -0.216162
     2  O   -0.503790
     3  C    0.344553
     4  C   -0.257943
     5  C    0.147497
     6  C    0.050984
     7  N   -0.286545
     8  N   -0.579955
     9  S    1.267947
    10  O   -0.537446
    11  O   -0.521047
    12  C   -0.168005
    13  C   -0.102678
    14  C   -0.140450
    15  C   -0.134590
    16  C    0.273846
    17  N    0.389047
    18  O   -0.384561
    19  O   -0.386913
    20  C   -0.166535
    21  C   -0.210410
    22  C   -0.205299
    23  C    0.356667
    24  O   -0.507298
    25  C   -0.054042
    26  C   -0.178416
    27  C   -0.156127
    28  C    0.176372
    29  C   -0.195221
    30  C   -0.129523
    31  C   -0.129161
    32  C   -0.130803
    33  C   -0.180267
    34  H    0.170664
    35  H    0.155180
    36  H    0.157067
    37  H    0.157621
    38  H    0.144423
    39  H    0.372566
    40  H    0.187430
    41  H    0.166397
    42  H    0.196289
    43  H    0.225774
    44  H    0.134708
    45  H    0.141944
    46  H    0.152233
    47  H    0.153721
    48  H    0.133139
    49  H    0.163361
    50  H    0.130770
    51  H    0.129849
    52  H    0.129432
    53  H    0.129486
    54  H    0.124223
 Sum of Mulliken charges =  -0.00000

 Dipole moment (field-independent basis, Debye):
    X=             -1.5922    Y=             -3.3893    Z=             -2.4164  Tot=              4.4566
 Quadrupole moment (field-independent basis, Debye-Ang):
   XX=           -190.5428   YY=           -202.3293   ZZ=           -187.9598
   XY=            -26.5815   XZ=            -18.3888   YZ=              6.7034

 Normal termination of Gaussian 16 at Sat Nov  5 12:14:24 2022.
