 Gaussian 16, Revision B.01,
 Gaussian 16:  ES64L-G16RevB.01 20-Dec-2017

 -------------------------------------------------------------------
 #p b3lyp/6-31g(d) 6D 10F nosymm GFInput td=(50-50,nstate=2) SCF=XQC
 -------------------------------------------------------------------

 ------------------------------
 Gaussian input prepared by ASE
 ------------------------------
 Symbolic Z-matrix:
 Charge =  0 Multiplicity = 1

                          Input orientation:
 ---------------------------------------------------------------------
 Center     Atomic      Atomic             Coordinates (Angstroms)
 Number     Number       Type             X           Y           Z
 ---------------------------------------------------------------------
      1          6           0       -4.991431    3.418865   -1.015860
      2          6           0       -3.621827    3.936375   -1.446889
      3          8           0       -2.585163    3.578138   -0.534915
      4          6           0       -2.038505    2.322808   -0.584450
      5          6           0       -2.371582    1.332626   -1.508037
      6          6           0       -1.717139    0.092166   -1.460538
      7          6           0       -0.743711   -0.162377   -0.505264
      8          8           0       -0.023719   -1.329500   -0.371817
      9          6           0       -0.271723   -2.428498   -1.249493
     10          6           0       -1.487794   -3.249719   -0.833116
     11          6           0       -0.409802    0.845444    0.435499
     12          7           0        0.585323    0.508332    1.371291
     13          6           0        1.092709    1.272088    2.393079
     14          8           0        0.727440    2.407296    2.664688
     15          6           0        2.185917    0.577331    3.204992
     16         16           0        3.856210    0.616530    2.407321
     17          6           0        3.777954   -0.797753    1.300710
     18          6           0        3.852959   -2.105260    1.805177
     19          6           0        3.847709   -3.194248    0.934141
     20          6           0        3.790408   -2.987682   -0.447176
     21          6           0        3.726573   -1.688618   -0.953500
     22          6           0        3.713564   -0.595348   -0.084236
     23          6           0       -1.057871    2.076044    0.389432
     24          1           0       -5.023251    2.325242   -0.995903
     25          1           0       -5.763521    3.772766   -1.709280
     26          1           0       -5.233643    3.784625   -0.012949
     27          1           0       -3.615841    5.030549   -1.447452
     28          1           0       -3.367209    3.607415   -2.463467
     29          1           0       -3.131311    1.491149   -2.263711
     30          1           0       -1.992430   -0.667969   -2.182711
     31          1           0       -0.360122   -2.068739   -2.282857
     32          1           0        0.637985   -3.032419   -1.187119
     33          1           0       -1.362571   -3.620936    0.189131
     34          1           0       -2.407805   -2.658907   -0.870544
     35          1           0       -1.605028   -4.111122   -1.501083
     36          1           0        0.981750   -0.412160    1.226558
     37          1           0        1.933490   -0.460771    3.443854
     38          1           0        2.297313    1.137026    4.135294
     39          1           0        3.929653   -2.262753    2.877381
     40          1           0        3.907374   -4.203487    1.332888
     41          1           0        3.805060   -3.837098   -1.125070
     42          1           0        3.683579   -1.521915   -2.026441
     43          1           0        3.654259    0.416277   -0.473127
     44          1           0       -0.804230    2.848187    1.101290
 ---------------------------------------------------------------------

 SCF Done:  E(RB3LYP) =  -1377.17474443     A.U. after   15 cycles

 Excitation energies and oscillator strengths:

 Excited state symmetry could not be determined.
 Excited State   1:      Triplet-?Sym    3.3244 eV  372.95 nm  f=0.0000  <S**2>=2.000
      87 -> 89        -0.14228
      87 -> 91         0.23643
      88 -> 89        -0.39037
      88 -> 91         0.42286
      88 -> 92         0.15023
      88 -> 93         0.19517
 This state for optimization and/or second-order correction.
 Total Energy, E(TD-HF/TD-DFT) =  -1377.05257563
 Copying the excited state density for this state as the 1-particle RhoCI density.

 Excited state symmetry could not be determined.
 Excited State   2:      Triplet-?Sym    3.5815 eV  346.18 nm  f=0.0000  <S**2>=2.000
      83 -> 89         0.32710
      83 -> 90         0.10407
      83 -> 91         0.13849
      84 -> 90         0.33376
      85 -> 89         0.13975
      86 -> 89         0.42113
      87 -> 89        -0.15489

 Excited state symmetry could not be determined.
 Excited State   3:      Singlet-?Sym    3.8061 eV  325.75 nm  f=0.0263  <S**2>=0.000
      88 -> 89         0.70342

 Excited state symmetry could not be determined.
 Excited State   4:      Singlet-?Sym    4.2705 eV  290.33 nm  f=0.0237  <S**2>=0.000
      86 -> 89         0.54434
      87 -> 89        -0.28898
      88 -> 90        -0.29581

 Alpha  occ. eigenvalues --  -88.88248 -19.17968 -19.16288 -19.11369 -14.36745
 Alpha  occ. eigenvalues --  -10.28953 -10.24948 -10.24134 -10.23728 -10.23621
 Alpha  occ. eigenvalues --  -10.22870 -10.22709 -10.22342 -10.20590 -10.20531
 Alpha  occ. eigenvalues --  -10.20452 -10.20384 -10.20330 -10.18921 -10.18854
 Alpha  occ. eigenvalues --  -10.18099 -10.17928 -10.17139  -7.94268  -5.90806
 Alpha  occ. eigenvalues --   -5.90434  -5.89704  -1.06361  -1.04852  -1.03189
 Alpha  occ. eigenvalues --   -0.93327  -0.86987  -0.84072  -0.80323  -0.77928
 Alpha  occ. eigenvalues --   -0.76329  -0.75762  -0.75590  -0.73307  -0.71803
 Alpha  occ. eigenvalues --   -0.67088  -0.65551  -0.63871  -0.62224  -0.61664
 Alpha  occ. eigenvalues --   -0.59188  -0.57836  -0.56616  -0.54235  -0.52257
 Alpha  occ. eigenvalues --   -0.51669  -0.50117  -0.48605  -0.48205  -0.46723
 Alpha  occ. eigenvalues --   -0.46070  -0.45743  -0.45306  -0.44333  -0.43515
 Alpha  occ. eigenvalues --   -0.43324  -0.43271  -0.42883  -0.41977  -0.41232
 Alpha  occ. eigenvalues --   -0.40273  -0.40139  -0.39588  -0.39287  -0.38803
 Alpha  occ. eigenvalues --   -0.38160  -0.37135  -0.36899  -0.35815  -0.35715
 Alpha  occ. eigenvalues --   -0.35295  -0.33905  -0.33015  -0.32348  -0.31307
 Alpha  occ. eigenvalues --   -0.30384  -0.27995  -0.26487  -0.26293  -0.25790
 Alpha  occ. eigenvalues --   -0.22453  -0.22015  -0.19026
 Alpha virt. eigenvalues --   -0.03184  -0.01431  -0.00710   0.02217   0.04153
 Alpha virt. eigenvalues --    0.04822   0.07516   0.08387   0.09112   0.10193
 Alpha virt. eigenvalues --    0.10955   0.11971   0.12473   0.12598   0.13365

 Mulliken charges:
               1
     1  C   -0.462040
     2  C   -0.032763
     3  O   -0.523824
     4  C    0.380916
     5  C   -0.204570
     6  C   -0.209286
     7  C    0.341254
     8  O   -0.559235
     9  C   -0.035584
    10  C   -0.462355
    11  C    0.303409
    12  N   -0.719661
    13  C    0.621963
    14  O   -0.488980
    15  C   -0.534224
    16  S    0.121666
    17  C   -0.114810
    18  C   -0.142996
    19  C   -0.120053
    20  C   -0.134338
    21  C   -0.115863
    22  C   -0.136571
    23  C   -0.242026
    24  H    0.160357
    25  H    0.144120
    26  H    0.164820
    27  H    0.154865
    28  H    0.137206
    29  H    0.127841
    30  H    0.130942
    31  H    0.142307
    32  H    0.157089
    33  H    0.161819
    34  H    0.166215
    35  H    0.148004
    36  H    0.361379
    37  H    0.184631
    38  H    0.211687
    39  H    0.148210
    40  H    0.137990
    41  H    0.135953
    42  H    0.139422
    43  H    0.161803
    44  H    0.193311
 Sum of Mulliken charges =  -0.00000

 Dipole moment (field-independent basis, Debye):
    X=             -1.5246    Y=             -5.3115    Z=             -3.2807  Tot=              6.4265
 Quadrupole moment (field-independent basis, Debye-Ang):
   XX=           -139.4793   YY=           -137.1624   ZZ=           -135.9570
   XY=            -12.0138   XZ=              2.8975   YZ=             -9.0873

 Normal termination of Gaussian 16 at Sat Nov  5 12:11:58 2022.
