 Gaussian 16, Revision B.01,
 Gaussian 16:  ES64L-G16RevB.01 20-Dec-2017

 -----------------------------
 #p b3lyp/6-31g(d) opt SCF=XQC
 -----------------------------

 ------------------------------
 Gaussian input prepared by ASE
 ------------------------------
 Symbolic Z-matrix:
 Charge =  0 Multiplicity = 1

 SCF Done:  E(RB3LYP) =  -1377.16175712     A.U. after   15 cycles
 SCF Done:  E(RB3LYP) =  -1377.17001980     A.U. after   14 cycles
 SCF Done:  E(RB3LYP) =  -1377.16997655     A.U. after   14 cycles
 SCF Done:  E(RB3LYP) =  -1377.17313701     A.U. after   13 cycles
 SCF Done:  E(RB3LYP) =  -1377.17402982     A.U. after   14 cycles
 SCF Done:  E(RB3LYP) =  -1377.17425265     A.U. after   12 cycles
 SCF Done:  E(RB3LYP) =  -1377.17440408     A.U. after   11 cycles
 SCF Done:  E(RB3LYP) =  -1377.17450709     A.U. after   12 cycles
 SCF Done:  E(RB3LYP) =  -1377.17451226     A.U. after   11 cycles
 SCF Done:  E(RB3LYP) =  -1377.17465035     A.U. after   11 cycles
 SCF Done:  E(RB3LYP) =  -1377.17473289     A.U. after    9 cycles
 SCF Done:  E(RB3LYP) =  -1377.17473326     A.U. after    9 cycles
 SCF Done:  E(RB3LYP) =  -1377.17473339     A.U. after    8 cycles
 SCF Done:  E(RB3LYP) =  -1377.17473352     A.U. after    8 cycles
 SCF Done:  E(RB3LYP) =  -1377.17473360     A.U. after    7 cycles
 SCF Done:  E(RB3LYP) =  -1377.17473369     A.U. after    7 cycles
 SCF Done:  E(RB3LYP) =  -1377.17473373     A.U. after    7 cycles
 SCF Done:  E(RB3LYP) =  -1377.17473375     A.U. after    7 cycles
 SCF Done:  E(RB3LYP) =  -1377.17473376     A.U. after    7 cycles
 SCF Done:  E(RB3LYP) =  -1377.17473377     A.U. after    6 cycles
 Optimization completed.
    -- Stationary point found.

                         Standard orientation:
 ---------------------------------------------------------------------
 Center     Atomic      Atomic             Coordinates (Angstroms)
 Number     Number       Type             X           Y           Z
 ---------------------------------------------------------------------
      1          6           0       -6.473426   -0.129327   -0.290337
      2          6           0       -5.706357   -0.622755    0.933408
      3          8           0       -4.437074   -1.181699    0.599935
      4          6           0       -3.370282   -0.355331    0.362842
      5          6           0       -3.386666    1.035059    0.467524
      6          6           0       -2.213348    1.762852    0.216656
      7          6           0       -1.037209    1.116773   -0.135739
      8          8           0        0.175649    1.720076   -0.387485
      9          6           0        0.295713    3.141697   -0.322714
     10          6           0       -0.196310    3.830988   -1.591332
     11          6           0       -1.024576   -0.297461   -0.245343
     12          7           0        0.205796   -0.875575   -0.608102
     13          6           0        0.504533   -2.201871   -0.799181
     14          8           0       -0.295632   -3.120699   -0.692506
     15          6           0        1.963187   -2.462819   -1.174984
     16         16           0        3.124972   -2.455840    0.266507
     17          6           0        3.484879   -0.704477    0.451181
     18          6           0        4.327609   -0.047931   -0.459004
     19          6           0        4.645496    1.297384   -0.275419
     20          6           0        4.144159    1.992512    0.828866
     21          6           0        3.314424    1.340445    1.742298
     22          6           0        2.978823   -0.002140    1.552916
     23          6           0       -2.187329   -1.020420    0.003312
     24          1           0       -5.948977    0.688023   -0.794633
     25          1           0       -7.465833    0.230172    0.006461
     26          1           0       -6.601948   -0.945426   -1.008488
     27          1           0       -6.247561   -1.445346    1.410582
     28          1           0       -5.589391    0.170672    1.683922
     29          1           0       -4.287142    1.575546    0.732813
     30          1           0       -2.245504    2.843400    0.297310
     31          1           0       -0.219477    3.519821    0.569858
     32          1           0        1.366657    3.314567   -0.183526
     33          1           0        0.352285    3.458358   -2.462344
     34          1           0       -1.262914    3.655630   -1.760105
     35          1           0       -0.033208    4.912612   -1.517659
     36          1           0        0.956848   -0.202922   -0.702267
     37          1           0        2.332736   -1.760587   -1.929128
     38          1           0        2.012427   -3.474970   -1.580270
     39          1           0        4.742027   -0.598236   -1.299081
     40          1           0        5.299827    1.798030   -0.984169
     41          1           0        4.408031    3.035943    0.980146
     42          1           0        2.923145    1.875291    2.603507
     43          1           0        2.326102   -0.510630    2.255434
     44          1           0       -2.181722   -2.097970   -0.075010
 ---------------------------------------------------------------------

 The electronic state is 1-A.
 Alpha  occ. eigenvalues --  -88.88247 -19.17968 -19.16288 -19.11369 -14.36745
 Alpha  occ. eigenvalues --  -10.28953 -10.24948 -10.24134 -10.23728 -10.23621
 Alpha  occ. eigenvalues --  -10.22870 -10.22709 -10.22342 -10.20590 -10.20531
 Alpha  occ. eigenvalues --  -10.20452 -10.20384 -10.20330 -10.18921 -10.18854
 Alpha  occ. eigenvalues --  -10.18099 -10.17928 -10.17139  -7.94268  -5.90806
 Alpha  occ. eigenvalues --   -5.90433  -5.89704  -1.06361  -1.04852  -1.03189
 Alpha  occ. eigenvalues --   -0.93327  -0.86987  -0.84072  -0.80323  -0.77928
 Alpha  occ. eigenvalues --   -0.76329  -0.75762  -0.75590  -0.73307  -0.71803
 Alpha  occ. eigenvalues --   -0.67088  -0.65551  -0.63871  -0.62224  -0.61664
 Alpha  occ. eigenvalues --   -0.59188  -0.57836  -0.56616  -0.54235  -0.52257
 Alpha  occ. eigenvalues --   -0.51669  -0.50117  -0.48605  -0.48205  -0.46723
 Alpha  occ. eigenvalues --   -0.46070  -0.45743  -0.45306  -0.44333  -0.43515
 Alpha  occ. eigenvalues --   -0.43324  -0.43271  -0.42883  -0.41976  -0.41232
 Alpha  occ. eigenvalues --   -0.40273  -0.40139  -0.39588  -0.39287  -0.38803
 Alpha  occ. eigenvalues --   -0.38160  -0.37135  -0.36899  -0.35815  -0.35715
 Alpha  occ. eigenvalues --   -0.35295  -0.33905  -0.33015  -0.32348  -0.31307
 Alpha  occ. eigenvalues --   -0.30384  -0.27995  -0.26487  -0.26293  -0.25790
 Alpha  occ. eigenvalues --   -0.22453  -0.22015  -0.19026
 Alpha virt. eigenvalues --   -0.03184  -0.01431  -0.00710   0.02217   0.04153
 Alpha virt. eigenvalues --    0.04822   0.07516   0.08387   0.09112   0.10193
 Alpha virt. eigenvalues --    0.10955   0.11971   0.12473   0.12598   0.13365

 Mulliken charges:
               1
     1  C   -0.462039
     2  C   -0.032768
     3  O   -0.523826
     4  C    0.380915
     5  C   -0.204568
     6  C   -0.209292
     7  C    0.341241
     8  O   -0.559228
     9  C   -0.035586
    10  C   -0.462346
    11  C    0.303435
    12  N   -0.719678
    13  C    0.621958
    14  O   -0.488978
    15  C   -0.534216
    16  S    0.121665
    17  C   -0.114807
    18  C   -0.143004
    19  C   -0.120047
    20  C   -0.134337
    21  C   -0.115871
    22  C   -0.136560
    23  C   -0.242022
    24  H    0.160359
    25  H    0.144120
    26  H    0.164819
    27  H    0.154866
    28  H    0.137207
    29  H    0.127840
    30  H    0.130940
    31  H    0.142307
    32  H    0.157088
    33  H    0.161817
    34  H    0.166211
    35  H    0.148003
    36  H    0.361383
    37  H    0.184630
    38  H    0.211686
    39  H    0.148210
    40  H    0.137989
    41  H    0.135952
    42  H    0.139421
    43  H    0.161800
    44  H    0.193310
 Sum of Mulliken charges =  -0.00000

 Dipole moment (field-independent basis, Debye):
    X=              0.5543    Y=              6.3768    Z=             -0.5732  Tot=              6.4264
 Quadrupole moment (field-independent basis, Debye-Ang):
   XX=           -125.6325   YY=           -142.7490   ZZ=           -138.2767
   XY=              1.4322   XZ=             -8.2400   YZ=              2.8340

 Normal termination of Gaussian 16 at Fri Nov  4 20:16:14 2022.
