 Gaussian 16, Revision B.01,
 Gaussian 16:  ES64L-G16RevB.01 20-Dec-2017

 -----------------------------
 #p b3lyp/6-31g(d) opt SCF=XQC
 -----------------------------

 ------------------------------
 Gaussian input prepared by ASE
 ------------------------------
 Symbolic Z-matrix:
 Charge =  0 Multiplicity = 1

 SCF Done:  E(RB3LYP) =  -1943.62147652     A.U. after   15 cycles
 SCF Done:  E(RB3LYP) =  -1943.62622138     A.U. after   15 cycles
 SCF Done:  E(RB3LYP) =  -1943.63010189     A.U. after   13 cycles
 SCF Done:  E(RB3LYP) =  -1943.63002911     A.U. after   12 cycles
 SCF Done:  E(RB3LYP) =  -1943.63169590     A.U. after   12 cycles
 SCF Done:  E(RB3LYP) =  -1943.63217738     A.U. after   12 cycles
 SCF Done:  E(RB3LYP) =  -1943.63227193     A.U. after   13 cycles
 SCF Done:  E(RB3LYP) =  -1943.63253231     A.U. after   12 cycles
 SCF Done:  E(RB3LYP) =  -1943.63262200     A.U. after   11 cycles
 SCF Done:  E(RB3LYP) =  -1943.63267718     A.U. after   11 cycles
 SCF Done:  E(RB3LYP) =  -1943.63269263     A.U. after   10 cycles
 SCF Done:  E(RB3LYP) =  -1943.63269968     A.U. after   10 cycles
 SCF Done:  E(RB3LYP) =  -1943.63270392     A.U. after    9 cycles
 SCF Done:  E(RB3LYP) =  -1943.63270634     A.U. after    9 cycles
 SCF Done:  E(RB3LYP) =  -1943.63270754     A.U. after    8 cycles
 SCF Done:  E(RB3LYP) =  -1943.63270859     A.U. after    9 cycles
 SCF Done:  E(RB3LYP) =  -1943.63270910     A.U. after    8 cycles
 SCF Done:  E(RB3LYP) =  -1943.63270958     A.U. after    8 cycles
 SCF Done:  E(RB3LYP) =  -1943.63270975     A.U. after    8 cycles
 SCF Done:  E(RB3LYP) =  -1943.63270977     A.U. after    7 cycles
 Optimization completed.
    -- Stationary point found.

                         Standard orientation:
 ---------------------------------------------------------------------
 Center     Atomic      Atomic             Coordinates (Angstroms)
 Number     Number       Type             X           Y           Z
 ---------------------------------------------------------------------
      1          6           0        6.066095    2.267183    0.969990
      2          6           0        5.453037    1.872757   -0.390126
      3          6           0        4.376825    2.876280   -0.829301
      4          7           0        4.946996    0.485739   -0.467007
      5          6           0        3.799925    0.217651    0.410434
      6          6           0        2.528246   -0.120218   -0.390933
      7          7           0        1.404358   -0.479242    0.469391
      8          6           0        1.263133   -1.726297    0.975199
      9          8           0        2.053433   -2.649858    0.798296
     10          6           0       -0.008396   -1.939774    1.822374
     11          7           0       -1.241997   -1.955601    1.018463
     12          6           0       -1.735485   -3.145827    0.555499
     13          7           0       -2.817723   -3.280579   -0.150601
     14          6           0       -3.470642   -2.118735   -0.413687
     15         16           0       -4.927951   -2.091715   -1.369778
     16          6           0       -5.019814   -0.362949   -1.204873
     17          6           0       -3.995738    0.192624   -0.477102
     18          6           0       -3.922501    1.647205   -0.286312
     19          6           0       -4.211938    2.596906   -1.242415
     20          6           0       -4.198290    3.930580   -0.746088
     21          6           0       -3.908072    3.988247    0.590390
     22         16           0       -3.625994    2.416614    1.257320
     23          6           0       -3.091355   -0.836789   -0.008164
     24          6           0       -1.858141   -0.706698    0.736853
     25          8           0       -1.323737    0.334730    1.124087
     26          6           0        5.966759   -0.588703   -0.417434
     27          6           0        5.365682   -1.921827   -0.894870
     28          6           0        7.200501   -0.274969   -1.275931
     29          1           0        6.495067    3.275231    0.920968
     30          1           0        6.866240    1.578152    1.262848
     31          1           0        5.316481    2.268272    1.770199
     32          1           0        6.246600    1.944219   -1.138701
     33          1           0        3.544158    2.936349   -0.118652
     34          1           0        4.808919    3.880727   -0.905607
     35          1           0        3.973422    2.598405   -1.808600
     36          1           0        3.585241    1.080374    1.051805
     37          1           0        4.012241   -0.615113    1.092167
     38          1           0        2.731030   -0.954923   -1.065660
     39          1           0        2.229097    0.737572   -0.999737
     40          1           0        0.668968    0.192841    0.669941
     41          1           0        0.092775   -2.905081    2.318287
     42          1           0       -0.119095   -1.149366    2.567894
     43          1           0       -1.153218   -4.026083    0.813657
     44          1           0       -5.854950    0.170371   -1.637674
     45          1           0       -4.409538    2.337934   -2.277198
     46          1           0       -4.383433    4.806006   -1.359018
     47          1           0       -3.810898    4.864780    1.217410
     48          1           0        6.314841   -0.736618    0.624537
     49          1           0        4.496794   -2.237134   -0.310579
     50          1           0        6.118280   -2.715019   -0.816611
     51          1           0        5.061119   -1.841022   -1.945463
     52          1           0        6.905276   -0.032103   -2.303829
     53          1           0        7.802714    0.549991   -0.883424
     54          1           0        7.846999   -1.158237   -1.311436
 ---------------------------------------------------------------------

 The electronic state is 1-A.
 Alpha  occ. eigenvalues --  -88.92581 -88.90565 -19.13971 -19.11819 -14.42219
 Alpha  occ. eigenvalues --  -14.35687 -14.35678 -14.31243 -10.31789 -10.29234
 Alpha  occ. eigenvalues --  -10.29168 -10.27353 -10.24898 -10.23191 -10.22852
 Alpha  occ. eigenvalues --  -10.22554 -10.22220 -10.21390 -10.21163 -10.20841
 Alpha  occ. eigenvalues --  -10.20765 -10.19976 -10.19393 -10.19255 -10.17090
 Alpha  occ. eigenvalues --  -10.16953 -10.16948 -10.15853  -7.98715  -7.96634
 Alpha  occ. eigenvalues --   -5.95112  -5.94762  -5.94404  -5.93047  -5.92668
 Alpha  occ. eigenvalues --   -5.92336  -1.06704  -1.03434  -1.00824  -0.94152
 Alpha  occ. eigenvalues --   -0.92229  -0.90598  -0.89312  -0.87258  -0.79066
 Alpha  occ. eigenvalues --   -0.77833  -0.77492  -0.76605  -0.74596  -0.73252
 Alpha  occ. eigenvalues --   -0.71196  -0.70478  -0.68111  -0.67622  -0.67411
 Alpha  occ. eigenvalues --   -0.64086  -0.62452  -0.59525  -0.58689  -0.58237
 Alpha  occ. eigenvalues --   -0.57411  -0.55981  -0.54095  -0.53591  -0.52764
 Alpha  occ. eigenvalues --   -0.51761  -0.50911  -0.49961  -0.49260  -0.47730
 Alpha  occ. eigenvalues --   -0.46216  -0.45770  -0.44883  -0.44341  -0.43677
 Alpha  occ. eigenvalues --   -0.43262  -0.43042  -0.42116  -0.41692  -0.41067
 Alpha  occ. eigenvalues --   -0.40860  -0.40536  -0.40092  -0.39933  -0.39512
 Alpha  occ. eigenvalues --   -0.39394  -0.38761  -0.38296  -0.37963  -0.37664
 Alpha  occ. eigenvalues --   -0.37070  -0.36750  -0.36532  -0.36370  -0.35503
 Alpha  occ. eigenvalues --   -0.34216  -0.34068  -0.33637  -0.32799  -0.31922
 Alpha  occ. eigenvalues --   -0.31508  -0.30681  -0.29882  -0.28561  -0.27756
 Alpha  occ. eigenvalues --   -0.25585  -0.25299  -0.24801  -0.24372  -0.21561
 Alpha  occ. eigenvalues --   -0.19796
 Alpha virt. eigenvalues --   -0.05720  -0.03702  -0.01635   0.00874   0.01396
 Alpha virt. eigenvalues --    0.02662   0.03830   0.06885   0.08148   0.08952
 Alpha virt. eigenvalues --    0.09473   0.10182   0.10584   0.11295   0.11569

 Mulliken charges:
               1
     1  C   -0.453685
     2  C    0.040639
     3  C   -0.449609
     4  N   -0.398273
     5  C   -0.144696
     6  C   -0.129453
     7  N   -0.601447
     8  C    0.592707
     9  O   -0.511888
    10  C   -0.265413
    11  N   -0.453622
    12  C    0.233275
    13  N   -0.458024
    14  C   -0.013494
    15  S    0.296027
    16  C   -0.395844
    17  C    0.126127
    18  C   -0.199627
    19  C   -0.117413
    20  C   -0.103901
    21  C   -0.342192
    22  S    0.293679
    23  C    0.060051
    24  C    0.596925
    25  O   -0.549549
    26  C    0.073357
    27  C   -0.469232
    28  C   -0.469111
    29  H    0.139294
    30  H    0.147615
    31  H    0.142473
    32  H    0.137982
    33  H    0.139373
    34  H    0.140867
    35  H    0.151367
    36  H    0.132087
    37  H    0.156668
    38  H    0.177456
    39  H    0.150339
    40  H    0.370884
    41  H    0.189977
    42  H    0.203798
    43  H    0.190305
    44  H    0.185530
    45  H    0.139087
    46  H    0.140738
    47  H    0.171359
    48  H    0.104442
    49  H    0.184992
    50  H    0.134093
    51  H    0.140642
    52  H    0.150993
    53  H    0.146832
    54  H    0.144494
 Sum of Mulliken charges =  -0.00000

 Dipole moment (field-independent basis, Debye):
    X=             -1.0059    Y=              2.2212    Z=              0.2743  Tot=              2.4538
 Quadrupole moment (field-independent basis, Debye-Ang):
   XX=           -173.6304   YY=           -178.9393   ZZ=           -174.7933
   XY=              1.2393   XZ=              5.2012   YZ=             -5.5676

 Normal termination of Gaussian 16 at Fri Nov  4 20:22:00 2022.
