 Gaussian 16, Revision B.01,
 Gaussian 16:  ES64L-G16RevB.01 20-Dec-2017

 -------------------------------------------------------------------
 #p b3lyp/6-31g(d) 6D 10F nosymm GFInput td=(50-50,nstate=2) SCF=XQC
 -------------------------------------------------------------------

 ------------------------------
 Gaussian input prepared by ASE
 ------------------------------
 Symbolic Z-matrix:
 Charge =  0 Multiplicity = 1

                          Input orientation:
 ---------------------------------------------------------------------
 Center     Atomic      Atomic             Coordinates (Angstroms)
 Number     Number       Type             X           Y           Z
 ---------------------------------------------------------------------
      1          6           0       -4.734285   -2.010234    0.544857
      2          6           0       -4.024044   -1.505696   -0.728849
      3          6           0       -2.931259   -2.484193   -1.183306
      4          7           0       -3.498421   -0.126411   -0.644571
      5          6           0       -2.412012    0.041577    0.329616
      6          6           0       -1.084142    0.428025   -0.349304
      7          7           0       -0.018656    0.688511    0.614577
      8          6           0        0.101094    1.882316    1.240215
      9          8           0       -0.664670    2.831674    1.094755
     10          6           0        1.313142    1.996481    2.187829
     11          7           0        2.599604    2.063136    1.474481
     12          6           0        3.137270    3.281434    1.156411
     13          7           0        4.267292    3.460342    0.540768
     14          6           0        4.923852    2.315709    0.218056
     15         16           0        6.443542    2.349502   -0.635168
     16          6           0        6.504424    0.611574   -0.622425
     17          6           0        5.426215    0.010653   -0.019594
     18          6           0        5.323676   -1.453701    0.032591
     19          6           0        5.668064   -2.318363   -0.984067
     20          6           0        5.605137   -3.690865   -0.613266
     21          6           0        5.222343   -3.863556    0.689566
     22         16           0        4.912293   -2.353676    1.476029
     23          6           0        4.503062    1.009260    0.478477
     24          6           0        3.219791    0.834119    1.122940
     25          8           0        2.648223   -0.228478    1.376528
     26          6           0       -4.507095    0.956799   -0.566899
     27          6           0       -3.859504    2.316822   -0.879022
     28          6           0       -5.681783    0.743159   -1.532316
     29          1           0       -5.170066   -3.002152    0.375225
     30          1           0       -5.545056   -1.336539    0.844100
     31          1           0       -4.042006   -2.096414    1.390776
     32          1           0       -4.764553   -1.495644   -1.533063
     33          1           0       -2.150584   -2.622487   -0.426085
     34          1           0       -3.368223   -3.470013   -1.379930
     35          1           0       -2.457858   -2.126348   -2.103530
     36          1           0       -2.251962   -0.878992    0.902918
     37          1           0       -2.661756    0.813154    1.068285
     38          1           0       -1.230322    1.323490   -0.957486
     39          1           0       -0.753114   -0.376550   -1.011886
     40          1           0        0.693505   -0.011601    0.802684
     41          1           0        1.188631    2.914836    2.761504
     42          1           0        1.363052    1.140358    2.864112
     43          1           0        2.548383    4.144879    1.453405
     44          1           0        7.361541    0.104922   -1.044152
     45          1           0        5.939806   -1.970763   -1.975137
     46          1           0        5.822529   -4.510645   -1.289308
     47          1           0        5.072145   -4.791154    1.226138
     48          1           0       -4.924897    1.016343    0.458108
     49          1           0       -3.029741    2.563067   -0.210712
     50          1           0       -4.606804    3.112732   -0.780273
     51          1           0       -3.483765    2.325638   -1.909447
     52          1           0       -5.318745    0.588717   -2.555577
     53          1           0       -6.318941   -0.103175   -1.258399
     54          1           0       -6.314352    1.637161   -1.531179
 ---------------------------------------------------------------------

 SCF Done:  E(RB3LYP) =  -1943.63271204     A.U. after   15 cycles

 Excitation energies and oscillator strengths:

 Excited state symmetry could not be determined.
 Excited State   1:      Triplet-?Sym    2.7632 eV  448.70 nm  f=0.0000  <S**2>=2.000
     107 ->112        -0.10796
     109 ->112         0.20248
     110 ->112         0.52198
     110 ->113        -0.34168
     110 ->114         0.13009
 This state for optimization and/or second-order correction.
 Total Energy, E(TD-HF/TD-DFT) =  -1943.53116785
 Copying the excited state density for this state as the 1-particle RhoCI density.

 Excited state symmetry could not be determined.
 Excited State   2:      Triplet-?Sym    3.1641 eV  391.84 nm  f=0.0000  <S**2>=2.000
     108 ->112        -0.13645
     109 ->112         0.22049
     110 ->112         0.26567
     110 ->113         0.47119
     110 ->114        -0.25408
     110 ->117         0.11074

 Excited state symmetry could not be determined.
 Excited State   3:      Singlet-?Sym    3.4745 eV  356.84 nm  f=0.0005  <S**2>=0.000
     111 ->112         0.70604

 Excited state symmetry could not be determined.
 Excited State   4:      Singlet-?Sym    3.8323 eV  323.53 nm  f=0.0702  <S**2>=0.000
     110 ->112         0.68376
     110 ->113         0.12579

 Alpha  occ. eigenvalues --  -88.92581 -88.90565 -19.13971 -19.11819 -14.42219
 Alpha  occ. eigenvalues --  -14.35687 -14.35678 -14.31243 -10.31789 -10.29234
 Alpha  occ. eigenvalues --  -10.29168 -10.27353 -10.24898 -10.23191 -10.22852
 Alpha  occ. eigenvalues --  -10.22554 -10.22220 -10.21390 -10.21163 -10.20841
 Alpha  occ. eigenvalues --  -10.20765 -10.19976 -10.19394 -10.19255 -10.17090
 Alpha  occ. eigenvalues --  -10.16953 -10.16948 -10.15853  -7.98715  -7.96635
 Alpha  occ. eigenvalues --   -5.95112  -5.94762  -5.94404  -5.93047  -5.92669
 Alpha  occ. eigenvalues --   -5.92337  -1.06704  -1.03434  -1.00824  -0.94152
 Alpha  occ. eigenvalues --   -0.92229  -0.90598  -0.89312  -0.87258  -0.79066
 Alpha  occ. eigenvalues --   -0.77833  -0.77492  -0.76605  -0.74596  -0.73252
 Alpha  occ. eigenvalues --   -0.71196  -0.70478  -0.68111  -0.67622  -0.67411
 Alpha  occ. eigenvalues --   -0.64086  -0.62452  -0.59525  -0.58689  -0.58237
 Alpha  occ. eigenvalues --   -0.57411  -0.55981  -0.54095  -0.53591  -0.52764
 Alpha  occ. eigenvalues --   -0.51760  -0.50911  -0.49961  -0.49260  -0.47730
 Alpha  occ. eigenvalues --   -0.46216  -0.45770  -0.44883  -0.44341  -0.43677
 Alpha  occ. eigenvalues --   -0.43262  -0.43042  -0.42116  -0.41692  -0.41067
 Alpha  occ. eigenvalues --   -0.40860  -0.40536  -0.40092  -0.39933  -0.39512
 Alpha  occ. eigenvalues --   -0.39394  -0.38761  -0.38296  -0.37963  -0.37664
 Alpha  occ. eigenvalues --   -0.37070  -0.36750  -0.36532  -0.36370  -0.35503
 Alpha  occ. eigenvalues --   -0.34216  -0.34068  -0.33637  -0.32799  -0.31922
 Alpha  occ. eigenvalues --   -0.31508  -0.30681  -0.29882  -0.28561  -0.27756
 Alpha  occ. eigenvalues --   -0.25585  -0.25299  -0.24801  -0.24372  -0.21561
 Alpha  occ. eigenvalues --   -0.19796
 Alpha virt. eigenvalues --   -0.05720  -0.03702  -0.01635   0.00874   0.01396
 Alpha virt. eigenvalues --    0.02662   0.03829   0.06885   0.08148   0.08952
 Alpha virt. eigenvalues --    0.09473   0.10182   0.10584   0.11295   0.11569

 Mulliken charges:
               1
     1  C   -0.453677
     2  C    0.040620
     3  C   -0.449595
     4  N   -0.398248
     5  C   -0.144709
     6  C   -0.129449
     7  N   -0.601428
     8  C    0.592705
     9  O   -0.511896
    10  C   -0.265428
    11  N   -0.453599
    12  C    0.233253
    13  N   -0.458013
    14  C   -0.013495
    15  S    0.296026
    16  C   -0.395843
    17  C    0.126128
    18  C   -0.199625
    19  C   -0.117408
    20  C   -0.103905
    21  C   -0.342184
    22  S    0.293665
    23  C    0.060053
    24  C    0.596907
    25  O   -0.549542
    26  C    0.073333
    27  C   -0.469230
    28  C   -0.469098
    29  H    0.139292
    30  H    0.147614
    31  H    0.142472
    32  H    0.137981
    33  H    0.139370
    34  H    0.140866
    35  H    0.151365
    36  H    0.132090
    37  H    0.156670
    38  H    0.177455
    39  H    0.150336
    40  H    0.370885
    41  H    0.189980
    42  H    0.203800
    43  H    0.190308
    44  H    0.185529
    45  H    0.139089
    46  H    0.140738
    47  H    0.171359
    48  H    0.104447
    49  H    0.184993
    50  H    0.134094
    51  H    0.140645
    52  H    0.150989
    53  H    0.146829
    54  H    0.144490
 Sum of Mulliken charges =  -0.00000

 Dipole moment (field-independent basis, Debye):
    X=              0.9596    Y=             -2.2541    Z=              0.1387  Tot=              2.4538
 Quadrupole moment (field-independent basis, Debye-Ang):
   XX=           -170.1932   YY=           -180.9943   ZZ=           -174.4475
   XY=             -1.7223   XZ=             -4.5277   YZ=              4.8700

 Normal termination of Gaussian 16 at Sat Nov  5 12:05:32 2022.
