 Gaussian 16, Revision B.01,
 Gaussian 16:  ES64L-G16RevB.01 20-Dec-2017

 -------------------------------------------------------------------
 #p b3lyp/6-31g(d) 6D 10F nosymm GFInput td=(50-50,nstate=2) SCF=XQC
 -------------------------------------------------------------------

 ------------------------------
 Gaussian input prepared by ASE
 ------------------------------
 Symbolic Z-matrix:
 Charge =  0 Multiplicity = 1

                          Input orientation:
 ---------------------------------------------------------------------
 Center     Atomic      Atomic             Coordinates (Angstroms)
 Number     Number       Type             X           Y           Z
 ---------------------------------------------------------------------
      1          6           0       -3.191002   -4.497044   -0.016244
      2          6           0       -1.939199   -3.657073   -0.109872
      3          6           0       -0.689878   -4.273177   -0.326315
      4          6           0        0.457392   -3.508950   -0.413085
      5          6           0        0.396463   -2.109433   -0.287248
      6          6           0        1.668275   -1.381719   -0.387689
      7          8           0        2.758081   -1.908774   -0.575271
      8          7           0        1.560785    0.027866   -0.240195
      9          6           0        2.750194    0.835062   -0.251824
     10          6           0        3.686203    0.718465   -1.284901
     11          6           0        4.810666    1.542059   -1.285165
     12          6           0        5.015723    2.484824   -0.275622
     13          6           0        4.070161    2.574538    0.736927
     14          9           0        4.249599    3.473042    1.728500
     15          6           0        2.942854    1.763026    0.775970
     16          6           0        0.349857    0.644350   -0.038439
     17          6           0       -0.846361   -0.007897    0.053547
     18          6           0       -2.067407    0.827789    0.263660
     19          8           0       -3.194801    0.304979    0.355376
     20          7           0       -1.814117    2.183878    0.339513
     21          6           0       -2.791217    3.031691    0.582488
     22          7           0       -4.113026    2.739119    0.660580
     23          7           0       -2.445895    4.347926    0.783499
     24          6           0       -0.848175   -1.463290   -0.067035
     25          6           0       -2.003241   -2.273049    0.016099
     26          1           0       -3.351672   -5.073410   -0.936191
     27          1           0       -3.122466   -5.220937    0.805706
     28          1           0       -4.076598   -3.877674    0.152637
     29          1           0       -0.631373   -5.354775   -0.425188
     30          1           0        1.429292   -3.961350   -0.578626
     31          1           0        3.537042   -0.013984   -2.066943
     32          1           0        5.537384    1.451430   -2.087022
     33          1           0        5.884094    3.134694   -0.261881
     34          1           0        2.245303    1.849108    1.601749
     35          1           0        0.378225    1.722290    0.028631
     36          1           0       -4.308163    1.737200    0.651601
     37          1           0       -4.731441    3.368605    1.152512
     38          1           0       -1.488628    4.554874    0.531208
     39          1           0       -3.117529    5.054714    0.512999
     40          1           0       -2.955403   -1.788994    0.181551
 ---------------------------------------------------------------------

 SCF Done:  E(RB3LYP) =  -1164.29646868     A.U. after   16 cycles

 Excitation energies and oscillator strengths:

 Excited state symmetry could not be determined.
 Excited State   1:      Triplet-?Sym    2.8371 eV  437.02 nm  f=0.0000  <S**2>=2.000
      88 -> 89         0.60759
      88 -> 90         0.22246
      88 -> 91        -0.16681
      88 -> 92         0.10837
 This state for optimization and/or second-order correction.
 Total Energy, E(TD-HF/TD-DFT) =  -1164.19220869
 Copying the excited state density for this state as the 1-particle RhoCI density.

 Excited state symmetry could not be determined.
 Excited State   2:      Triplet-?Sym    3.2152 eV  385.61 nm  f=0.0000  <S**2>=2.000
      87 -> 90        -0.15689
      88 -> 89        -0.27068
      88 -> 90         0.59226

 Excited state symmetry could not be determined.
 Excited State   3:      Singlet-?Sym    3.9789 eV  311.61 nm  f=0.2207  <S**2>=0.000
      88 -> 89         0.54675
      88 -> 90         0.41673

 Excited state symmetry could not be determined.
 Excited State   4:      Singlet-?Sym    4.0025 eV  309.77 nm  f=0.1913  <S**2>=0.000
      87 -> 90         0.10904
      88 -> 89        -0.40796
      88 -> 90         0.54589

 Alpha  occ. eigenvalues --  -24.70694 -19.11808 -19.11242 -14.39859 -14.36953
 Alpha  occ. eigenvalues --  -14.36194 -14.30559 -10.31486 -10.28904 -10.28509
 Alpha  occ. eigenvalues --  -10.27729 -10.24479 -10.23637 -10.20396 -10.20391
 Alpha  occ. eigenvalues --  -10.20357 -10.20006 -10.19641 -10.19548 -10.19387
 Alpha  occ. eigenvalues --  -10.19126 -10.18402 -10.18135 -10.17930 -10.17274
 Alpha  occ. eigenvalues --   -1.21849  -1.03855  -1.03256  -0.98893  -0.96649
 Alpha  occ. eigenvalues --   -0.89356  -0.87426  -0.86779  -0.85373  -0.80218
 Alpha  occ. eigenvalues --   -0.76962  -0.75976  -0.75213  -0.73242  -0.69663
 Alpha  occ. eigenvalues --   -0.66858  -0.64632  -0.64002  -0.61792  -0.60603
 Alpha  occ. eigenvalues --   -0.59458  -0.57840  -0.56310  -0.55271  -0.52776
 Alpha  occ. eigenvalues --   -0.52132  -0.50763  -0.50087  -0.49811  -0.48749
 Alpha  occ. eigenvalues --   -0.47907  -0.46914  -0.46100  -0.44768  -0.44567
 Alpha  occ. eigenvalues --   -0.43874  -0.43735  -0.43278  -0.42807  -0.41694
 Alpha  occ. eigenvalues --   -0.41451  -0.40671  -0.40003  -0.39415  -0.38519
 Alpha  occ. eigenvalues --   -0.38079  -0.37780  -0.36580  -0.35891  -0.34444
 Alpha  occ. eigenvalues --   -0.34289  -0.33606  -0.33233  -0.29257  -0.28442
 Alpha  occ. eigenvalues --   -0.27724  -0.25935  -0.25520  -0.25305  -0.24246
 Alpha  occ. eigenvalues --   -0.23994  -0.23749  -0.20408
 Alpha virt. eigenvalues --   -0.04242  -0.03677  -0.01066  -0.00645   0.00202
 Alpha virt. eigenvalues --    0.04329   0.05690   0.07619   0.08657   0.10178
 Alpha virt. eigenvalues --    0.11395   0.11614   0.12508   0.13642   0.13938

 Mulliken charges:
               1
     1  C   -0.533226
     2  C    0.190680
     3  C   -0.182086
     4  C   -0.172654
     5  C   -0.028311
     6  C    0.579479
     7  O   -0.518206
     8  N   -0.602827
     9  C    0.280920
    10  C   -0.112773
    11  C   -0.150157
    12  C   -0.189331
    13  C    0.375737
    14  F   -0.298635
    15  C   -0.231256
    16  C    0.038106
    17  C   -0.045828
    18  C    0.558113
    19  O   -0.569602
    20  N   -0.587445
    21  C    0.679780
    22  N   -0.760507
    23  N   -0.755966
    24  C    0.131470
    25  C   -0.266219
    26  H    0.162356
    27  H    0.162415
    28  H    0.163047
    29  H    0.124300
    30  H    0.161493
    31  H    0.162988
    32  H    0.146156
    33  H    0.148762
    34  H    0.162717
    35  H    0.197715
    36  H    0.392693
    37  H    0.330582
    38  H    0.347516
    39  H    0.330745
    40  H    0.177260
 Sum of Mulliken charges =  -0.00000

 Dipole moment (field-independent basis, Debye):
    X=             -3.4113    Y=              4.7507    Z=             -0.2918  Tot=              5.8559
 Quadrupole moment (field-independent basis, Debye-Ang):
   XX=           -127.9292   YY=           -113.7906   ZZ=           -141.9629
   XY=             -6.8413   XZ=             -9.8559   YZ=             -0.5427

 Normal termination of Gaussian 16 at Sat Nov  5 12:06:42 2022.
