 Gaussian 16, Revision B.01,
 Gaussian 16:  ES64L-G16RevB.01 20-Dec-2017

 -----------------------------
 #p b3lyp/6-31g(d) opt SCF=XQC
 -----------------------------

 ------------------------------
 Gaussian input prepared by ASE
 ------------------------------
 Symbolic Z-matrix:
 Charge =  0 Multiplicity = 1

 SCF Done:  E(RB3LYP) =  -1164.29019097     A.U. after   16 cycles
 SCF Done:  E(RB3LYP) =  -1164.29464369     A.U. after   13 cycles
 SCF Done:  E(RB3LYP) =  -1164.29401305     A.U. after   13 cycles
 SCF Done:  E(RB3LYP) =  -1164.29569148     A.U. after   13 cycles
 SCF Done:  E(RB3LYP) =  -1164.29602264     A.U. after   12 cycles
 SCF Done:  E(RB3LYP) =  -1164.29602891     A.U. after   12 cycles
 SCF Done:  E(RB3LYP) =  -1164.29624065     A.U. after   11 cycles
 SCF Done:  E(RB3LYP) =  -1164.29636547     A.U. after   11 cycles
 SCF Done:  E(RB3LYP) =  -1164.29642910     A.U. after   11 cycles
 SCF Done:  E(RB3LYP) =  -1164.29644462     A.U. after   11 cycles
 SCF Done:  E(RB3LYP) =  -1164.29646504     A.U. after    7 cycles
 SCF Done:  E(RB3LYP) =  -1164.29646511     A.U. after    7 cycles
 SCF Done:  E(RB3LYP) =  -1164.29646515     A.U. after    7 cycles
 SCF Done:  E(RB3LYP) =  -1164.29646519     A.U. after    7 cycles
 SCF Done:  E(RB3LYP) =  -1164.29646524     A.U. after    7 cycles
 SCF Done:  E(RB3LYP) =  -1164.29646528     A.U. after    6 cycles
 SCF Done:  E(RB3LYP) =  -1164.29646532     A.U. after    6 cycles
 SCF Done:  E(RB3LYP) =  -1164.29646537     A.U. after    6 cycles
 SCF Done:  E(RB3LYP) =  -1164.29646541     A.U. after    7 cycles
 SCF Done:  E(RB3LYP) =  -1164.29646543     A.U. after    7 cycles
 Optimization completed.
    -- Stationary point found.

                         Standard orientation:
 ---------------------------------------------------------------------
 Center     Atomic      Atomic             Coordinates (Angstroms)
 Number     Number       Type             X           Y           Z
 ---------------------------------------------------------------------
      1          6           0       -5.409868   -2.092129    0.326866
      2          6           0       -3.903553   -2.060709    0.220290
      3          6           0       -3.170576   -3.264854    0.216541
      4          6           0       -1.793017   -3.240903    0.118781
      5          6           0       -1.103405   -2.018927    0.021815
      6          6           0        0.360437   -2.092819   -0.072369
      7          8           0        1.005327   -3.134335   -0.076031
      8          7           0        1.015956   -0.834291   -0.153841
      9          6           0        2.452291   -0.783013   -0.180420
     10          6           0        3.180832   -1.553176   -1.093126
     11          6           0        4.570790   -1.452320   -1.116994
     12          6           0        5.247569   -0.591976   -0.249925
     13          6           0        4.496616    0.157063    0.645844
     14          9           0        5.128163    0.990620    1.499692
     15          6           0        3.110785    0.074711    0.705746
     16          6           0        0.315698    0.347526   -0.161082
     17          6           0       -1.044093    0.443459   -0.079894
     18          6           0       -1.636868    1.814940   -0.113544
     19          8           0       -2.869752    1.982938   -0.046217
     20          7           0       -0.703850    2.827912   -0.224219
     21          6           0       -1.083121    4.088202   -0.205051
     22          7           0       -2.359120    4.547227   -0.204343
     23          7           0       -0.092654    5.042337   -0.178030
     24          6           0       -1.816494   -0.791485    0.025085
     25          6           0       -3.224783   -0.850011    0.125554
     26          1           0       -5.854702   -2.653876   -0.504325
     27          1           0       -5.731857   -2.584757    1.253127
     28          1           0       -5.832710   -1.083406    0.316645
     29          1           0       -3.693854   -4.215485    0.290930
     30          1           0       -1.208557   -4.154712    0.114523
     31          1           0        2.663653   -2.226474   -1.763585
     32          1           0        5.136376   -2.050321   -1.825383
     33          1           0        6.328350   -0.500043   -0.256766
     34          1           0        2.567626    0.657992    1.441042
     35          1           0        0.910623    1.244120   -0.258239
     36          1           0       -3.055074    3.811405   -0.077002
     37          1           0       -2.548731    5.482896    0.126195
     38          1           0        0.828096    4.670763   -0.370360
     39          1           0       -0.289332    5.933815   -0.614374
     40          1           0       -3.775742    0.079902    0.126667
 ---------------------------------------------------------------------

 The electronic state is 1-A.
 Alpha  occ. eigenvalues --  -24.70694 -19.11808 -19.11242 -14.39859 -14.36953
 Alpha  occ. eigenvalues --  -14.36194 -14.30559 -10.31486 -10.28904 -10.28509
 Alpha  occ. eigenvalues --  -10.27729 -10.24479 -10.23637 -10.20396 -10.20391
 Alpha  occ. eigenvalues --  -10.20357 -10.20006 -10.19641 -10.19548 -10.19387
 Alpha  occ. eigenvalues --  -10.19126 -10.18402 -10.18135 -10.17930 -10.17274
 Alpha  occ. eigenvalues --   -1.21849  -1.03855  -1.03256  -0.98893  -0.96649
 Alpha  occ. eigenvalues --   -0.89356  -0.87426  -0.86778  -0.85373  -0.80218
 Alpha  occ. eigenvalues --   -0.76962  -0.75976  -0.75213  -0.73242  -0.69663
 Alpha  occ. eigenvalues --   -0.66858  -0.64632  -0.64002  -0.61792  -0.60603
 Alpha  occ. eigenvalues --   -0.59458  -0.57840  -0.56310  -0.55271  -0.52776
 Alpha  occ. eigenvalues --   -0.52132  -0.50763  -0.50087  -0.49811  -0.48749
 Alpha  occ. eigenvalues --   -0.47907  -0.46914  -0.46100  -0.44768  -0.44567
 Alpha  occ. eigenvalues --   -0.43874  -0.43735  -0.43278  -0.42807  -0.41694
 Alpha  occ. eigenvalues --   -0.41451  -0.40671  -0.40003  -0.39415  -0.38519
 Alpha  occ. eigenvalues --   -0.38079  -0.37780  -0.36580  -0.35891  -0.34444
 Alpha  occ. eigenvalues --   -0.34289  -0.33606  -0.33233  -0.29257  -0.28442
 Alpha  occ. eigenvalues --   -0.27724  -0.25935  -0.25520  -0.25305  -0.24246
 Alpha  occ. eigenvalues --   -0.23994  -0.23749  -0.20408
 Alpha virt. eigenvalues --   -0.04242  -0.03677  -0.01066  -0.00645   0.00202
 Alpha virt. eigenvalues --    0.04329   0.05690   0.07619   0.08657   0.10178
 Alpha virt. eigenvalues --    0.11395   0.11614   0.12508   0.13642   0.13938

 Mulliken charges:
               1
     1  C   -0.533220
     2  C    0.190673
     3  C   -0.182083
     4  C   -0.172654
     5  C   -0.028317
     6  C    0.579492
     7  O   -0.518211
     8  N   -0.602834
     9  C    0.280950
    10  C   -0.112788
    11  C   -0.150144
    12  C   -0.189337
    13  C    0.375752
    14  F   -0.298635
    15  C   -0.231284
    16  C    0.038101
    17  C   -0.045858
    18  C    0.558128
    19  O   -0.569609
    20  N   -0.587450
    21  C    0.679791
    22  N   -0.760516
    23  N   -0.755967
    24  C    0.131511
    25  C   -0.266232
    26  H    0.162355
    27  H    0.162413
    28  H    0.163046
    29  H    0.124300
    30  H    0.161492
    31  H    0.162988
    32  H    0.146155
    33  H    0.148760
    34  H    0.162717
    35  H    0.197716
    36  H    0.392695
    37  H    0.330582
    38  H    0.347517
    39  H    0.330745
    40  H    0.177264
 Sum of Mulliken charges =  -0.00000

 Dipole moment (field-independent basis, Debye):
    X=             -0.3804    Y=              5.6902    Z=             -1.3302  Tot=              5.8560
 Quadrupole moment (field-independent basis, Debye-Ang):
   XX=           -129.9318   YY=           -110.9162   ZZ=           -142.4493
   XY=             -0.0819   XZ=             -8.7040   YZ=             -1.2116

 Normal termination of Gaussian 16 at Fri Nov  4 20:14:55 2022.
