 Gaussian 16, Revision B.01,
 Gaussian 16:  ES64L-G16RevB.01 20-Dec-2017

 -----------------------------
 #p b3lyp/6-31g(d) opt SCF=XQC
 -----------------------------

 ------------------------------
 Gaussian input prepared by ASE
 ------------------------------
 Symbolic Z-matrix:
 Charge =  0 Multiplicity = 1

 SCF Done:  E(RB3LYP) =  -1524.34053377     A.U. after   15 cycles
 SCF Done:  E(RB3LYP) =  -1524.35117387     A.U. after   14 cycles
 SCF Done:  E(RB3LYP) =  -1524.35007524     A.U. after   15 cycles
 SCF Done:  E(RB3LYP) =  -1524.35611106     A.U. after   14 cycles
 SCF Done:  E(RB3LYP) =  -1524.35531745     A.U. after   15 cycles
 SCF Done:  E(RB3LYP) =  -1524.35774429     A.U. after   12 cycles
 SCF Done:  E(RB3LYP) =  -1524.35777381     A.U. after   13 cycles
 SCF Done:  E(RB3LYP) =  -1524.35811904     A.U. after   12 cycles
 SCF Done:  E(RB3LYP) =  -1524.35823962     A.U. after   11 cycles
 SCF Done:  E(RB3LYP) =  -1524.35829828     A.U. after   12 cycles
 SCF Done:  E(RB3LYP) =  -1524.35867232     A.U. after   10 cycles
 SCF Done:  E(RB3LYP) =  -1524.35867472     A.U. after    9 cycles
 SCF Done:  E(RB3LYP) =  -1524.35867573     A.U. after    9 cycles
 SCF Done:  E(RB3LYP) =  -1524.35867610     A.U. after    8 cycles
 SCF Done:  E(RB3LYP) =  -1524.35867651     A.U. after    8 cycles
 SCF Done:  E(RB3LYP) =  -1524.35867670     A.U. after    8 cycles
 SCF Done:  E(RB3LYP) =  -1524.35867692     A.U. after    7 cycles
 SCF Done:  E(RB3LYP) =  -1524.35867726     A.U. after    8 cycles
 SCF Done:  E(RB3LYP) =  -1524.35867752     A.U. after    7 cycles
 SCF Done:  E(RB3LYP) =  -1524.35867761     A.U. after    7 cycles
 Optimization completed.
    -- Stationary point found.

                         Standard orientation:
 ---------------------------------------------------------------------
 Center     Atomic      Atomic             Coordinates (Angstroms)
 Number     Number       Type             X           Y           Z
 ---------------------------------------------------------------------
      1          6           0       -2.975869    1.855409    2.076690
      2          6           0       -1.964484    0.708914    2.128241
      3          7           0       -1.371025    0.401226    0.821408
      4          6           0       -1.711194   -0.596166   -0.070865
      5          6           0       -2.784413   -1.632015    0.130476
      6          6           0       -4.198034   -1.127446    0.015484
      7          6           0       -5.157017   -0.970215    1.000416
      8          6           0       -6.329463   -0.449845    0.387339
      9          6           0       -6.050209   -0.309200   -0.953996
     10          7           0       -4.754066   -0.712685   -1.181646
     11          6           0       -4.155046   -0.841629   -2.503743
     12          7           0       -0.957242   -0.520779   -1.142662
     13          7           0       -0.092187    0.545184   -0.975575
     14          6           0       -0.351912    1.078624    0.199088
     15         16           0        0.472351    2.444396    0.952406
     16          6           0        1.581180    2.963646   -0.426679
     17          6           0        2.906288    2.189219   -0.496316
     18          8           0        3.928541    2.654070   -0.004514
     19          7           0        2.827459    1.011359   -1.167873
     20          6           0        3.958645    0.086739   -1.254978
     21          6           0        4.047606   -0.491212   -2.675605
     22          6           0        3.895813   -1.010018   -0.194433
     23          6           0        4.964932   -1.194272    0.688832
     24          6           0        4.936616   -2.209931    1.647082
     25          6           0        3.831234   -3.055825    1.736026
     26          6           0        2.755191   -2.876989    0.862982
     27          6           0        2.787144   -1.863314   -0.094295
     28          1           0       -2.511855    2.772938    1.702752
     29          1           0       -3.823371    1.595197    1.436992
     30          1           0       -3.353206    2.051793    3.086268
     31          1           0       -2.438809   -0.206530    2.489074
     32          1           0       -1.143027    0.938865    2.814896
     33          1           0       -2.673816   -2.098585    1.116525
     34          1           0       -2.576355   -2.417698   -0.605321
     35          1           0       -5.022773   -1.207333    2.048495
     36          1           0       -7.264388   -0.203406    0.871925
     37          1           0       -6.663604    0.041302   -1.772389
     38          1           0       -3.083262   -0.637902   -2.460519
     39          1           0       -4.623676   -0.117628   -3.174847
     40          1           0       -4.309138   -1.848122   -2.912526
     41          1           0        1.007092    2.903790   -1.354679
     42          1           0        1.819467    4.004520   -0.202305
     43          1           0        1.894466    0.683207   -1.421190
     44          1           0        4.843842    0.697277   -1.059711
     45          1           0        4.151235    0.314532   -3.409930
     46          1           0        3.150916   -1.070736   -2.925277
     47          1           0        4.910543   -1.159707   -2.761534
     48          1           0        5.824764   -0.531012    0.630192
     49          1           0        5.776422   -2.335058    2.325833
     50          1           0        3.805516   -3.846799    2.481122
     51          1           0        1.888376   -3.530259    0.926668
     52          1           0        1.936085   -1.732519   -0.758923
 ---------------------------------------------------------------------

 The electronic state is 1-A.
 Alpha  occ. eigenvalues --  -88.91026 -19.10139 -14.41537 -14.38612 -14.35421
 Alpha  occ. eigenvalues --  -14.35202 -14.34044 -10.28450 -10.27903 -10.26363
 Alpha  occ. eigenvalues --  -10.25545 -10.23011 -10.22704 -10.22394 -10.21934
 Alpha  occ. eigenvalues --  -10.21681 -10.20540 -10.19542 -10.18668 -10.18348
 Alpha  occ. eigenvalues --  -10.18261 -10.18208 -10.18062 -10.18014 -10.17488
 Alpha  occ. eigenvalues --  -10.17451 -10.17229  -7.97095  -5.93633  -5.93214
 Alpha  occ. eigenvalues --   -5.92567  -1.07223  -1.01962  -0.98468  -0.93777
 Alpha  occ. eigenvalues --   -0.91162  -0.85638  -0.84393  -0.80709  -0.80117
 Alpha  occ. eigenvalues --   -0.78319  -0.77231  -0.76122  -0.73553  -0.71849
 Alpha  occ. eigenvalues --   -0.69684  -0.69186  -0.68920  -0.66908  -0.63230
 Alpha  occ. eigenvalues --   -0.61582  -0.59923  -0.58462  -0.58028  -0.57374
 Alpha  occ. eigenvalues --   -0.56157  -0.54299  -0.53095  -0.51788  -0.51604
 Alpha  occ. eigenvalues --   -0.48718  -0.47855  -0.47556  -0.47465  -0.46788
 Alpha  occ. eigenvalues --   -0.45782  -0.45527  -0.45135  -0.43933  -0.43238
 Alpha  occ. eigenvalues --   -0.42780  -0.42248  -0.41869  -0.41612  -0.41502
 Alpha  occ. eigenvalues --   -0.41035  -0.40403  -0.40214  -0.39638  -0.39293
 Alpha  occ. eigenvalues --   -0.38131  -0.38017  -0.37708  -0.37329  -0.36852
 Alpha  occ. eigenvalues --   -0.36622  -0.35592  -0.34915  -0.34595  -0.33040
 Alpha  occ. eigenvalues --   -0.32743  -0.31843  -0.30932  -0.29741  -0.27328
 Alpha  occ. eigenvalues --   -0.24787  -0.24467  -0.24121  -0.23810  -0.23139
 Alpha  occ. eigenvalues --   -0.22568  -0.21073
 Alpha virt. eigenvalues --   -0.00731   0.00518   0.00630   0.00975   0.02287
 Alpha virt. eigenvalues --    0.03602   0.04150   0.06568   0.07824   0.08097
 Alpha virt. eigenvalues --    0.09661   0.10047   0.10913   0.11424   0.11930

 Mulliken charges:
               1
     1  C   -0.458042
     2  C   -0.170446
     3  N   -0.466635
     4  C    0.508548
     5  C   -0.440652
     6  C    0.326505
     7  C   -0.229766
     8  C   -0.189183
     9  C    0.025180
    10  N   -0.424967
    11  C   -0.348346
    12  N   -0.355286
    13  N   -0.376441
    14  C    0.295856
    15  S    0.179977
    16  C   -0.532874
    17  C    0.600880
    18  O   -0.509188
    19  N   -0.602439
    20  C   -0.065640
    21  C   -0.446019
    22  C    0.194445
    23  C   -0.186124
    24  C   -0.128167
    25  C   -0.129993
    26  C   -0.133691
    27  C   -0.196986
    28  H    0.175858
    29  H    0.189239
    30  H    0.157060
    31  H    0.170119
    32  H    0.187227
    33  H    0.173201
    34  H    0.189541
    35  H    0.115831
    36  H    0.125511
    37  H    0.140531
    38  H    0.210553
    39  H    0.168059
    40  H    0.168756
    41  H    0.213477
    42  H    0.211335
    43  H    0.378364
    44  H    0.172858
    45  H    0.154257
    46  H    0.150747
    47  H    0.154280
    48  H    0.134726
    49  H    0.127789
    50  H    0.124409
    51  H    0.122666
    52  H    0.143102
 Sum of Mulliken charges =  -0.00000

 Dipole moment (field-independent basis, Debye):
    X=             -4.6372    Y=             -1.3961    Z=              0.5426  Tot=              4.8731
 Quadrupole moment (field-independent basis, Debye-Ang):
   XX=           -171.1616   YY=           -167.2108   ZZ=           -155.3952
   XY=            -10.4402   XZ=             -0.6011   YZ=             -4.1886

 Normal termination of Gaussian 16 at Fri Nov  4 21:31:57 2022.
