 Gaussian 16, Revision B.01,
 Gaussian 16:  ES64L-G16RevB.01 20-Dec-2017

 -------------------------------------------------------------------
 #p b3lyp/6-31g(d) 6D 10F nosymm GFInput td=(50-50,nstate=2) SCF=XQC
 -------------------------------------------------------------------

 ------------------------------
 Gaussian input prepared by ASE
 ------------------------------
 Symbolic Z-matrix:
 Charge =  0 Multiplicity = 1

                          Input orientation:
 ---------------------------------------------------------------------
 Center     Atomic      Atomic             Coordinates (Angstroms)
 Number     Number       Type             X           Y           Z
 ---------------------------------------------------------------------
      1          6           0       -2.927158   -1.880077    2.157082
      2          6           0       -2.630615   -1.101368    0.874240
      3          7           0       -1.273130   -0.544196    0.835901
      4          6           0       -0.855725    0.739978    1.124565
      5          6           0       -1.743242    1.886733    1.527782
      6          6           0       -2.295736    1.814432    2.926231
      7          6           0       -3.594694    1.589718    3.346554
      8          6           0       -3.600957    1.604584    4.768179
      9          6           0       -2.305417    1.841710    5.171033
     10          7           0       -1.509059    1.961990    4.054808
     11          6           0       -0.107500    2.359568    4.085756
     12          7           0        0.447477    0.831423    0.997357
     13          7           0        0.922226   -0.410575    0.617133
     14          6           0       -0.116002   -1.213837    0.523846
     15         16           0       -0.108237   -2.909429    0.036880
     16          6           0        1.707145   -3.211649   -0.081642
     17          6           0        2.326588   -2.811183   -1.429387
     18          8           0        2.513737   -3.648773   -2.304815
     19          7           0        2.664398   -1.498718   -1.518145
     20          6           0        3.174669   -0.907338   -2.755878
     21          6           0        4.324789    0.058695   -2.433187
     22          6           0        2.075493   -0.234409   -3.574755
     23          6           0        1.854317   -0.618027   -4.901796
     24          6           0        0.871927    0.005466   -5.674308
     25          6           0        0.092564    1.023250   -5.124738
     26          6           0        0.300704    1.410218   -3.798470
     27          6           0        1.283838    0.787318   -3.030105
     28          1           0       -2.227425   -2.711606    2.283288
     29          1           0       -2.867185   -1.224730    3.030069
     30          1           0       -3.940563   -2.292944    2.104635
     31          1           0       -3.324307   -0.264933    0.762926
     32          1           0       -2.748355   -1.737847   -0.009047
     33          1           0       -2.590262    1.965500    0.835998
     34          1           0       -1.141128    2.790801    1.379113
     35          1           0       -4.445334    1.433054    2.694952
     36          1           0       -4.452155    1.454672    5.418279
     37          1           0       -1.877355    1.939385    6.159008
     38          1           0        0.441400    1.893464    3.265055
     39          1           0        0.330510    2.032609    5.032022
     40          1           0       -0.002543    3.449103    4.009781
     41          1           0        2.182661   -2.713616    0.766999
     42          1           0        1.806319   -4.293691    0.017828
     43          1           0        2.344226   -0.885388   -0.767381
     44          1           0        3.563844   -1.747750   -3.336146
     45          1           0        5.124234   -0.464478   -1.898048
     46          1           0        3.980403    0.891287   -1.808348
     47          1           0        4.736300    0.482503   -3.355128
     48          1           0        2.452510   -1.417952   -5.331851
     49          1           0        0.713980   -0.308884   -6.702836
     50          1           0       -0.673409    1.510102   -5.722843
     51          1           0       -0.303755    2.201123   -3.361108
     52          1           0        1.424988    1.094710   -1.996314
 ---------------------------------------------------------------------

 SCF Done:  E(RB3LYP) =  -1524.35867471     A.U. after   15 cycles

 Excitation energies and oscillator strengths:

 Excited state symmetry could not be determined.
 Excited State   1:      Triplet-?Sym    3.7473 eV  330.87 nm  f=0.0000  <S**2>=2.000
      96 ->104        -0.16224
      96 ->106        -0.10253
      97 ->104         0.21099
      97 ->105         0.14118
      98 ->104         0.11697
      98 ->105         0.23928
      98 ->106        -0.33411
     100 ->103        -0.14208
     100 ->104        -0.35049
     100 ->106        -0.21918
 This state for optimization and/or second-order correction.
 Total Energy, E(TD-HF/TD-DFT) =  -1524.22096554
 Copying the excited state density for this state as the 1-particle RhoCI density.

 Excited state symmetry could not be determined.
 Excited State   2:      Triplet-?Sym    4.0308 eV  307.59 nm  f=0.0000  <S**2>=2.000
      99 ->112         0.11928
     102 ->104        -0.11515
     102 ->105         0.21337
     102 ->106         0.11998
     102 ->107        -0.44027
     102 ->108        -0.43583
     102 ->109         0.11323

 Excited state symmetry could not be determined.
 Excited State   3:      Singlet-?Sym    4.8168 eV  257.40 nm  f=0.0053  <S**2>=0.000
      96 ->103         0.12807
     101 ->103         0.63767
     101 ->106        -0.10991
     102 ->103         0.18184

 Excited state symmetry could not be determined.
 Excited State   4:      Singlet-?Sym    5.0846 eV  243.84 nm  f=0.0154  <S**2>=0.000
      96 ->103        -0.10964
      97 ->103        -0.10006
     101 ->103        -0.12630
     102 ->103         0.60838
     102 ->104        -0.17065
     102 ->105         0.21771

 Alpha  occ. eigenvalues --  -88.91026 -19.10139 -14.41537 -14.38612 -14.35421
 Alpha  occ. eigenvalues --  -14.35202 -14.34044 -10.28450 -10.27903 -10.26363
 Alpha  occ. eigenvalues --  -10.25545 -10.23011 -10.22704 -10.22394 -10.21934
 Alpha  occ. eigenvalues --  -10.21681 -10.20540 -10.19542 -10.18667 -10.18348
 Alpha  occ. eigenvalues --  -10.18261 -10.18208 -10.18062 -10.18014 -10.17488
 Alpha  occ. eigenvalues --  -10.17451 -10.17229  -7.97094  -5.93633  -5.93214
 Alpha  occ. eigenvalues --   -5.92567  -1.07223  -1.01962  -0.98468  -0.93777
 Alpha  occ. eigenvalues --   -0.91162  -0.85638  -0.84393  -0.80709  -0.80117
 Alpha  occ. eigenvalues --   -0.78319  -0.77231  -0.76122  -0.73553  -0.71849
 Alpha  occ. eigenvalues --   -0.69684  -0.69186  -0.68920  -0.66908  -0.63230
 Alpha  occ. eigenvalues --   -0.61582  -0.59923  -0.58462  -0.58028  -0.57374
 Alpha  occ. eigenvalues --   -0.56157  -0.54299  -0.53095  -0.51788  -0.51604
 Alpha  occ. eigenvalues --   -0.48718  -0.47855  -0.47556  -0.47465  -0.46788
 Alpha  occ. eigenvalues --   -0.45782  -0.45527  -0.45135  -0.43933  -0.43238
 Alpha  occ. eigenvalues --   -0.42780  -0.42248  -0.41869  -0.41612  -0.41502
 Alpha  occ. eigenvalues --   -0.41035  -0.40403  -0.40214  -0.39638  -0.39294
 Alpha  occ. eigenvalues --   -0.38131  -0.38017  -0.37708  -0.37329  -0.36852
 Alpha  occ. eigenvalues --   -0.36622  -0.35592  -0.34915  -0.34595  -0.33040
 Alpha  occ. eigenvalues --   -0.32743  -0.31843  -0.30932  -0.29741  -0.27328
 Alpha  occ. eigenvalues --   -0.24787  -0.24467  -0.24121  -0.23810  -0.23139
 Alpha  occ. eigenvalues --   -0.22568  -0.21073
 Alpha virt. eigenvalues --   -0.00731   0.00519   0.00630   0.00975   0.02287
 Alpha virt. eigenvalues --    0.03602   0.04150   0.06567   0.07824   0.08097
 Alpha virt. eigenvalues --    0.09661   0.10047   0.10913   0.11424   0.11930

 Mulliken charges:
               1
     1  C   -0.458048
     2  C   -0.170433
     3  N   -0.466613
     4  C    0.508543
     5  C   -0.440664
     6  C    0.326499
     7  C   -0.229771
     8  C   -0.189177
     9  C    0.025166
    10  N   -0.424944
    11  C   -0.348351
    12  N   -0.355274
    13  N   -0.376446
    14  C    0.295826
    15  S    0.179985
    16  C   -0.532870
    17  C    0.600870
    18  O   -0.509180
    19  N   -0.602442
    20  C   -0.065683
    21  C   -0.446016
    22  C    0.194510
    23  C   -0.186140
    24  C   -0.128156
    25  C   -0.129999
    26  C   -0.133688
    27  C   -0.197003
    28  H    0.175859
    29  H    0.189240
    30  H    0.157060
    31  H    0.170117
    32  H    0.187226
    33  H    0.173202
    34  H    0.189543
    35  H    0.115833
    36  H    0.125511
    37  H    0.140531
    38  H    0.210554
    39  H    0.168061
    40  H    0.168756
    41  H    0.213475
    42  H    0.211333
    43  H    0.378369
    44  H    0.172861
    45  H    0.154257
    46  H    0.150749
    47  H    0.154280
    48  H    0.134727
    49  H    0.127787
    50  H    0.124409
    51  H    0.122663
    52  H    0.143097
 Sum of Mulliken charges =  -0.00000

 Dipole moment (field-independent basis, Debye):
    X=             -3.0707    Y=              2.2498    Z=              3.0424  Tot=              4.8731
 Quadrupole moment (field-independent basis, Debye-Ang):
   XX=           -160.3384   YY=           -174.6553   ZZ=           -160.8046
   XY=              6.9440   XZ=              7.0758   YZ=             -8.3092

 Normal termination of Gaussian 16 at Sat Nov  5 12:20:30 2022.
