 Gaussian 16, Revision B.01,
 Gaussian 16:  ES64L-G16RevB.01 20-Dec-2017

 -------------------------------------------------------------------
 #p b3lyp/6-31g(d) 6D 10F nosymm GFInput td=(50-50,nstate=2) SCF=XQC
 -------------------------------------------------------------------

 ------------------------------
 Gaussian input prepared by ASE
 ------------------------------
 Symbolic Z-matrix:
 Charge =  0 Multiplicity = 1

                          Input orientation:
 ---------------------------------------------------------------------
 Center     Atomic      Atomic             Coordinates (Angstroms)
 Number     Number       Type             X           Y           Z
 ---------------------------------------------------------------------
      1          7           0       -3.897803   -4.297583   -0.958679
      2          6           0       -3.302585   -3.335063   -0.676519
      3          6           0       -2.600481   -2.147186   -0.315171
      4          6           0       -1.120045   -2.292989   -0.358043
      5          8           0       -0.591134   -3.389461   -0.237034
      6          6           0       -0.273800   -1.085336   -0.743936
      7         16           0        1.477571   -1.424154   -0.299662
      8          6           0        2.039184    0.248384   -0.369307
      9          7           0        1.317390    1.335248   -0.532394
     10          7           0        2.176015    2.410635   -0.502623
     11          6           0        3.401542    1.956328   -0.327714
     12          6           0        4.565891    2.823700   -0.256285
     13          6           0        4.536300    4.178738   -0.506607
     14          6           0        5.797150    4.811105   -0.334680
     15          6           0        6.780408    3.938590    0.046272
     16         16           0        6.181278    2.319403    0.202298
     17          7           0        3.374186    0.569687   -0.235943
     18          6           0        4.453735   -0.361643   -0.076798
     19          6           0        4.777628   -0.832261    1.198770
     20          6           0        5.818363   -1.748913    1.346798
     21          6           0        6.527108   -2.190691    0.227857
     22          6           0        6.194014   -1.720407   -1.044388
     23          6           0        5.153470   -0.806223   -1.202210
     24          6           0       -3.306585   -1.016723    0.117040
     25          6           0       -2.650436   -0.028050    1.013668
     26          6           0       -2.706877    1.349944    0.734738
     27          6           0       -2.056688    2.268954    1.549789
     28          6           0       -1.363455    1.799568    2.663100
     29          9           0       -0.741651    2.683904    3.459845
     30          6           0       -1.300502    0.447090    2.979956
     31          6           0       -1.943631   -0.465068    2.146666
     32          7           0       -4.610366   -0.776087   -0.204993
     33          6           0       -5.544821   -0.054178    0.674107
     34          6           0       -6.764776   -0.939911    0.958861
     35          8           0       -7.403791   -1.342156   -0.239264
     36          6           0       -6.519477   -2.100785   -1.060564
     37          6           0       -5.282650   -1.273556   -1.416886
     38          1           0       -0.350773   -0.958553   -1.830956
     39          1           0       -0.576474   -0.145523   -0.289421
     40          1           0        3.623801    4.682773   -0.800956
     41          1           0        5.965779    5.870857   -0.491911
     42          1           0        7.825296    4.142772    0.238173
     43          1           0        4.216686   -0.478134    2.057978
     44          1           0        6.073596   -2.117427    2.335993
     45          1           0        7.336934   -2.904952    0.346660
     46          1           0        6.741350   -2.067650   -1.915769
     47          1           0        4.878188   -0.434328   -2.184074
     48          1           0       -3.235881    1.696799   -0.147951
     49          1           0       -2.060875    3.330807    1.329736
     50          1           0       -0.754497    0.126311    3.860528
     51          1           0       -1.904903   -1.525374    2.375688
     52          1           0       -5.045765    0.214121    1.605292
     53          1           0       -5.876838    0.866274    0.175260
     54          1           0       -6.451567   -1.819352    1.545207
     55          1           0       -7.504305   -0.377446    1.537221
     56          1           0       -6.220783   -3.029881   -0.557128
     57          1           0       -7.077061   -2.352831   -1.966720
     58          1           0       -5.604987   -0.389368   -1.985572
     59          1           0       -4.586595   -1.842751   -2.029287
 ---------------------------------------------------------------------

 SCF Done:  E(RB3LYP) =  -2362.45444307     A.U. after   16 cycles

 Excitation energies and oscillator strengths:

 Excited state symmetry could not be determined.
 Excited State   1:      Triplet-?Sym    2.4872 eV  498.50 nm  f=0.0000  <S**2>=2.000
     137 ->139         0.67859
     137 ->145         0.10078
     138 ->139         0.10994
 This state for optimization and/or second-order correction.
 Total Energy, E(TD-HF/TD-DFT) =  -2362.36304137
 Copying the excited state density for this state as the 1-particle RhoCI density.

 Excited state symmetry could not be determined.
 Excited State   2:      Triplet-?Sym    2.6585 eV  466.36 nm  f=0.0000  <S**2>=2.000
     136 ->140        -0.20966
     138 ->140         0.63465
     138 ->141         0.13036

 Excited state symmetry could not be determined.
 Excited State   3:      Singlet-?Sym    3.0163 eV  411.04 nm  f=0.0057  <S**2>=0.000
     138 ->139         0.70268

 Excited state symmetry could not be determined.
 Excited State   4:      Singlet-?Sym    3.7253 eV  332.82 nm  f=0.1804  <S**2>=0.000
     133 ->139         0.18427
     135 ->139        -0.12978
     137 ->139         0.64412

 Alpha  occ. eigenvalues --  -88.91358 -88.89542 -24.72230 -19.16431 -19.13545
 Alpha  occ. eigenvalues --  -14.40698 -14.40250 -14.33844 -14.33769 -14.31920
 Alpha  occ. eigenvalues --  -10.29583 -10.28503 -10.28349 -10.27027 -10.25977
 Alpha  occ. eigenvalues --  -10.25231 -10.25056 -10.24683 -10.24320 -10.24105
 Alpha  occ. eigenvalues --  -10.22973 -10.22766 -10.22561 -10.22398 -10.22221
 Alpha  occ. eigenvalues --  -10.22121 -10.21804 -10.21803 -10.21799 -10.21746
 Alpha  occ. eigenvalues --  -10.21261 -10.21223 -10.20990 -10.20926 -10.20895
 Alpha  occ. eigenvalues --  -10.19627 -10.19362  -7.97408  -7.95561  -5.93826
 Alpha  occ. eigenvalues --   -5.93446  -5.93107  -5.92096  -5.91692  -5.91024
 Alpha  occ. eigenvalues --   -1.23548  -1.06031  -1.05394  -1.03825  -0.98609
 Alpha  occ. eigenvalues --   -0.93553  -0.89025  -0.88797  -0.88520  -0.86386
 Alpha  occ. eigenvalues --   -0.83810  -0.82719  -0.79906  -0.78683  -0.78020
 Alpha  occ. eigenvalues --   -0.76748  -0.76611  -0.76288  -0.73989  -0.73740
 Alpha  occ. eigenvalues --   -0.72641  -0.69013  -0.68117  -0.66007  -0.64946
 Alpha  occ. eigenvalues --   -0.64738  -0.63001  -0.62746  -0.62290  -0.59008
 Alpha  occ. eigenvalues --   -0.58622  -0.56983  -0.56690  -0.55891  -0.55145
 Alpha  occ. eigenvalues --   -0.54339  -0.53164  -0.52308  -0.51403  -0.50856
 Alpha  occ. eigenvalues --   -0.50062  -0.49583  -0.49323  -0.48793  -0.48381
 Alpha  occ. eigenvalues --   -0.48079  -0.47603  -0.47341  -0.46487  -0.45832
 Alpha  occ. eigenvalues --   -0.45609  -0.45328  -0.44644  -0.44415  -0.43827
 Alpha  occ. eigenvalues --   -0.43214  -0.42642  -0.42309  -0.41497  -0.41338
 Alpha  occ. eigenvalues --   -0.40439  -0.40097  -0.39093  -0.38904  -0.38627
 Alpha  occ. eigenvalues --   -0.38375  -0.38298  -0.37910  -0.37709  -0.37076
 Alpha  occ. eigenvalues --   -0.36779  -0.36590  -0.35173  -0.34736  -0.34577
 Alpha  occ. eigenvalues --   -0.34315  -0.33084  -0.32059  -0.31498  -0.30892
 Alpha  occ. eigenvalues --   -0.30629  -0.29471  -0.28319  -0.27816  -0.27568
 Alpha  occ. eigenvalues --   -0.27128  -0.26057  -0.25612  -0.25317  -0.24713
 Alpha  occ. eigenvalues --   -0.24518  -0.22452  -0.20128
 Alpha virt. eigenvalues --   -0.07261  -0.03831  -0.03514  -0.02837  -0.02034
 Alpha virt. eigenvalues --   -0.01594   0.01148   0.02531   0.03379   0.03846
 Alpha virt. eigenvalues --    0.04450   0.04813   0.06669   0.07804   0.07994

 Mulliken charges:
               1
     1  N   -0.521754
     2  C    0.308354
     3  C   -0.083719
     4  C    0.416385
     5  O   -0.451948
     6  C   -0.522129
     7  S    0.198246
     8  C    0.266643
     9  N   -0.345041
    10  N   -0.370513
    11  C    0.497819
    12  C   -0.186225
    13  C   -0.111092
    14  C   -0.101256
    15  C   -0.350055
    16  S    0.269643
    17  N   -0.587209
    18  C    0.186429
    19  C   -0.107769
    20  C   -0.139087
    21  C   -0.112421
    22  C   -0.139210
    23  C   -0.103759
    24  C    0.305541
    25  C   -0.001182
    26  C   -0.145494
    27  C   -0.180180
    28  C    0.399127
    29  F   -0.282783
    30  C   -0.196281
    31  C   -0.153635
    32  N   -0.444408
    33  C   -0.168848
    34  C   -0.033125
    35  O   -0.462331
    36  C   -0.049507
    37  C   -0.173062
    38  H    0.211637
    39  H    0.238180
    40  H    0.169626
    41  H    0.145435
    42  H    0.174043
    43  H    0.156404
    44  H    0.146076
    45  H    0.142998
    46  H    0.146455
    47  H    0.156892
    48  H    0.154175
    49  H    0.166398
    50  H    0.162737
    51  H    0.174408
    52  H    0.178401
    53  H    0.160640
    54  H    0.141403
    55  H    0.158360
    56  H    0.174375
    57  H    0.160850
    58  H    0.162363
    59  H    0.193987
 Sum of Mulliken charges =  -0.00000

 Dipole moment (field-independent basis, Debye):
    X=              1.5910    Y=              4.6250    Z=              1.7412  Tot=              5.1917
 Quadrupole moment (field-independent basis, Debye-Ang):
   XX=           -183.5786   YY=           -252.0802   ZZ=           -213.3443
   XY=            -21.7501   XZ=             -3.8379   YZ=             -6.6124

 Normal termination of Gaussian 16 at Sat Nov  5 12:09:02 2022.
