 Gaussian 16, Revision B.01,
 Gaussian 16:  ES64L-G16RevB.01 20-Dec-2017

 -----------------------------
 #p b3lyp/6-31g(d) opt SCF=XQC
 -----------------------------

 ------------------------------
 Gaussian input prepared by ASE
 ------------------------------
 Symbolic Z-matrix:
 Charge =  0 Multiplicity = 1

 SCF Done:  E(RB3LYP) =  -2362.43175752     A.U. after   16 cycles
 SCF Done:  E(RB3LYP) =  -2362.43849633     A.U. after   16 cycles
 SCF Done:  E(RB3LYP) =  -2362.44438831     A.U. after   16 cycles
 SCF Done:  E(RB3LYP) =  -2362.44206419     A.U. after   14 cycles
 SCF Done:  E(RB3LYP) =  -2362.44406014     A.U. after   15 cycles
 SCF Done:  E(RB3LYP) =  -2362.44911624     A.U. after   12 cycles
 SCF Done:  E(RB3LYP) =  -2362.45143702     A.U. after   14 cycles
 SCF Done:  E(RB3LYP) =  -2362.45227011     A.U. after   14 cycles
 SCF Done:  E(RB3LYP) =  -2362.45330323     A.U. after   13 cycles
 SCF Done:  E(RB3LYP) =  -2362.45312804     A.U. after   14 cycles
 SCF Done:  E(RB3LYP) =  -2362.45443757     A.U. after   11 cycles
 SCF Done:  E(RB3LYP) =  -2362.45444353     A.U. after   11 cycles
 SCF Done:  E(RB3LYP) =  -2362.45444710     A.U. after   10 cycles
 SCF Done:  E(RB3LYP) =  -2362.45444994     A.U. after   10 cycles
 SCF Done:  E(RB3LYP) =  -2362.45445026     A.U. after    9 cycles
 SCF Done:  E(RB3LYP) =  -2362.45445033     A.U. after    8 cycles
 SCF Done:  E(RB3LYP) =  -2362.45445038     A.U. after    7 cycles
 SCF Done:  E(RB3LYP) =  -2362.45445040     A.U. after    7 cycles
 SCF Done:  E(RB3LYP) =  -2362.45445041     A.U. after    7 cycles
 SCF Done:  E(RB3LYP) =  -2362.45445042     A.U. after    7 cycles
 Optimization completed.
    -- Stationary point found.

                         Standard orientation:
 ---------------------------------------------------------------------
 Center     Atomic      Atomic             Coordinates (Angstroms)
 Number     Number       Type             X           Y           Z
 ---------------------------------------------------------------------
      1          7           0        5.235431    3.300296   -0.286794
      2          6           0        4.418785    2.469590   -0.228848
      3          6           0        3.442487    1.432870   -0.147413
      4          6           0        2.046996    1.935854   -0.027431
      5          8           0        1.814683    3.046513    0.429853
      6          6           0        0.918069    1.127266   -0.656066
      7         16           0       -0.685220    1.736368    0.005703
      8          6           0       -1.653212    0.338160   -0.469323
      9          7           0       -1.232355   -0.797960   -0.980174
     10          7           0       -2.335168   -1.598641   -1.173286
     11          6           0       -3.403500   -0.932197   -0.781591
     12          6           0       -4.748841   -1.478161   -0.853164
     13          6           0       -5.066472   -2.672318   -1.463708
     14          6           0       -6.444481   -3.005426   -1.367158
     15          6           0       -7.170194   -2.067308   -0.684168
     16         16           0       -6.178491   -0.752134   -0.143883
     17          7           0       -3.024513    0.322585   -0.319168
     18          6           0       -3.830888    1.401322    0.175011
     19          6           0       -4.010891    1.554326    1.552563
     20          6           0       -4.783567    2.613268    2.028910
     21          6           0       -5.369390    3.510874    1.134131
     22          6           0       -5.180366    3.355029   -0.240900
     23          6           0       -4.407358    2.301200   -0.725952
     24          6           0        3.843643    0.091241   -0.097992
     25          6           0        2.968165   -0.923349    0.547059
     26          6           0        2.670373   -2.137154   -0.099357
     27          6           0        1.817425   -3.065369    0.485905
     28          6           0        1.278078   -2.778820    1.737844
     29          9           0        0.461177   -3.676468    2.312642
     30          6           0        1.563520   -1.597895    2.414230
     31          6           0        2.407701   -0.669174    1.810197
     32          7           0        5.040220   -0.353900   -0.579145
     33          6           0        5.770723   -1.497769   -0.008963
     34          6           0        7.178411   -1.049106    0.404576
     35          8           0        7.885348   -0.489356   -0.687471
     36          6           0        7.213288    0.660175   -1.196368
     37          6           0        5.803326    0.290173   -1.661256
     38          1           0        0.948465    1.299305   -1.739158
     39          1           0        0.977574    0.053180   -0.500364
     40          1           0       -4.314840   -3.275902   -1.957754
     41          1           0       -6.877967   -3.904239   -1.791960
     42          1           0       -8.230543   -2.060403   -0.469875
     43          1           0       -3.548661    0.847234    2.234226
     44          1           0       -4.926181    2.736194    3.098492
     45          1           0       -5.970341    4.334758    1.508527
     46          1           0       -5.631314    4.055914   -0.937221
     47          1           0       -4.246127    2.168243   -1.791067
     48          1           0        3.084456   -2.335906   -1.083393
     49          1           0        1.549878   -3.989813   -0.013889
     50          1           0        1.126358   -1.418671    3.390547
     51          1           0        2.641544    0.259583    2.321004
     52          1           0        5.230195   -1.891074    0.852016
     53          1           0        5.853065   -2.290595   -0.764582
     54          1           0        7.104824   -0.323680    1.231414
     55          1           0        7.757491   -1.912865    0.745686
     56          1           0        7.165419    1.451725   -0.436735
     57          1           0        7.806583    1.017242   -2.042565
     58          1           0        5.884732   -0.446859   -2.473199
     59          1           0        5.267631    1.159395   -2.036749
 ---------------------------------------------------------------------

 The electronic state is 1-A.
 Alpha  occ. eigenvalues --  -88.91358 -88.89543 -24.72230 -19.16431 -19.13545
 Alpha  occ. eigenvalues --  -14.40698 -14.40250 -14.33845 -14.33769 -14.31920
 Alpha  occ. eigenvalues --  -10.29583 -10.28503 -10.28349 -10.27027 -10.25977
 Alpha  occ. eigenvalues --  -10.25231 -10.25057 -10.24683 -10.24320 -10.24105
 Alpha  occ. eigenvalues --  -10.22973 -10.22766 -10.22561 -10.22398 -10.22221
 Alpha  occ. eigenvalues --  -10.22121 -10.21804 -10.21803 -10.21799 -10.21746
 Alpha  occ. eigenvalues --  -10.21261 -10.21223 -10.20990 -10.20926 -10.20895
 Alpha  occ. eigenvalues --  -10.19627 -10.19362  -7.97408  -7.95561  -5.93826
 Alpha  occ. eigenvalues --   -5.93446  -5.93107  -5.92096  -5.91692  -5.91024
 Alpha  occ. eigenvalues --   -1.23548  -1.06032  -1.05394  -1.03825  -0.98609
 Alpha  occ. eigenvalues --   -0.93553  -0.89025  -0.88797  -0.88520  -0.86386
 Alpha  occ. eigenvalues --   -0.83810  -0.82719  -0.79906  -0.78683  -0.78020
 Alpha  occ. eigenvalues --   -0.76748  -0.76611  -0.76288  -0.73989  -0.73740
 Alpha  occ. eigenvalues --   -0.72641  -0.69013  -0.68117  -0.66007  -0.64946
 Alpha  occ. eigenvalues --   -0.64738  -0.63001  -0.62746  -0.62290  -0.59009
 Alpha  occ. eigenvalues --   -0.58622  -0.56983  -0.56690  -0.55891  -0.55145
 Alpha  occ. eigenvalues --   -0.54339  -0.53164  -0.52308  -0.51403  -0.50856
 Alpha  occ. eigenvalues --   -0.50062  -0.49583  -0.49323  -0.48793  -0.48381
 Alpha  occ. eigenvalues --   -0.48079  -0.47603  -0.47341  -0.46487  -0.45832
 Alpha  occ. eigenvalues --   -0.45609  -0.45328  -0.44644  -0.44415  -0.43827
 Alpha  occ. eigenvalues --   -0.43214  -0.42642  -0.42309  -0.41497  -0.41338
 Alpha  occ. eigenvalues --   -0.40439  -0.40097  -0.39093  -0.38904  -0.38627
 Alpha  occ. eigenvalues --   -0.38375  -0.38298  -0.37910  -0.37709  -0.37076
 Alpha  occ. eigenvalues --   -0.36779  -0.36590  -0.35173  -0.34736  -0.34577
 Alpha  occ. eigenvalues --   -0.34315  -0.33084  -0.32059  -0.31498  -0.30892
 Alpha  occ. eigenvalues --   -0.30629  -0.29471  -0.28319  -0.27816  -0.27568
 Alpha  occ. eigenvalues --   -0.27128  -0.26057  -0.25612  -0.25317  -0.24713
 Alpha  occ. eigenvalues --   -0.24518  -0.22452  -0.20128
 Alpha virt. eigenvalues --   -0.07261  -0.03831  -0.03514  -0.02837  -0.02034
 Alpha virt. eigenvalues --   -0.01594   0.01148   0.02531   0.03379   0.03846
 Alpha virt. eigenvalues --    0.04450   0.04813   0.06669   0.07804   0.07994

 Mulliken charges:
               1
     1  N   -0.521742
     2  C    0.308339
     3  C   -0.083700
     4  C    0.416378
     5  O   -0.451948
     6  C   -0.522132
     7  S    0.198241
     8  C    0.266646
     9  N   -0.345043
    10  N   -0.370523
    11  C    0.497830
    12  C   -0.186211
    13  C   -0.111090
    14  C   -0.101257
    15  C   -0.350051
    16  S    0.269636
    17  N   -0.587211
    18  C    0.186424
    19  C   -0.107774
    20  C   -0.139076
    21  C   -0.112429
    22  C   -0.139203
    23  C   -0.103762
    24  C    0.305532
    25  C   -0.001187
    26  C   -0.145489
    27  C   -0.180166
    28  C    0.399127
    29  F   -0.282784
    30  C   -0.196304
    31  C   -0.153614
    32  N   -0.444444
    33  C   -0.168842
    34  C   -0.033130
    35  O   -0.462328
    36  C   -0.049524
    37  C   -0.173039
    38  H    0.211637
    39  H    0.238182
    40  H    0.169626
    41  H    0.145435
    42  H    0.174043
    43  H    0.156401
    44  H    0.146075
    45  H    0.142998
    46  H    0.146456
    47  H    0.156890
    48  H    0.154175
    49  H    0.166398
    50  H    0.162736
    51  H    0.174409
    52  H    0.178402
    53  H    0.160643
    54  H    0.141406
    55  H    0.158359
    56  H    0.174378
    57  H    0.160851
    58  H    0.162362
    59  H    0.193987
 Sum of Mulliken charges =  -0.00000

 Dipole moment (field-independent basis, Debye):
    X=             -2.6924    Y=             -4.4056    Z=              0.5438  Tot=              5.1917
 Quadrupole moment (field-independent basis, Debye-Ang):
   XX=           -200.6125   YY=           -238.0529   ZZ=           -212.4258
   XY=            -37.3414   XZ=             -4.3200   YZ=             -0.5903

 Normal termination of Gaussian 16 at Fri Nov  4 21:42:21 2022.
