 Gaussian 16, Revision B.01,
 Gaussian 16:  ES64L-G16RevB.01 20-Dec-2017

 -----------------------------
 #p b3lyp/6-31g(d) opt SCF=XQC
 -----------------------------

 ------------------------------
 Gaussian input prepared by ASE
 ------------------------------
 Symbolic Z-matrix:
 Charge =  0 Multiplicity = 1

 SCF Done:  E(RB3LYP) =  -1755.93551754     A.U. after   15 cycles
 SCF Done:  E(RB3LYP) =  -1755.94573330     A.U. after   13 cycles
 SCF Done:  E(RB3LYP) =  -1755.94669996     A.U. after   12 cycles
 SCF Done:  E(RB3LYP) =  -1755.94675679     A.U. after   12 cycles
 SCF Done:  E(RB3LYP) =  -1755.94697009     A.U. after   11 cycles
 SCF Done:  E(RB3LYP) =  -1755.94702981     A.U. after   10 cycles
 SCF Done:  E(RB3LYP) =  -1755.94708470     A.U. after   11 cycles
 SCF Done:  E(RB3LYP) =  -1755.94709599     A.U. after   10 cycles
 SCF Done:  E(RB3LYP) =  -1755.94710769     A.U. after   10 cycles
 SCF Done:  E(RB3LYP) =  -1755.94712468     A.U. after   11 cycles
 SCF Done:  E(RB3LYP) =  -1755.94628597     A.U. after   16 cycles
 SCF Done:  E(RB3LYP) =  -1755.94572265     A.U. after   12 cycles
 SCF Done:  E(RB3LYP) =  -1755.94482572     A.U. after   13 cycles
 SCF Done:  E(RB3LYP) =  -1755.94742933     A.U. after    9 cycles
 SCF Done:  E(RB3LYP) =  -1755.94747869     A.U. after   10 cycles
 SCF Done:  E(RB3LYP) =  -1755.94749149     A.U. after   10 cycles
 SCF Done:  E(RB3LYP) =  -1755.94749377     A.U. after    9 cycles
 SCF Done:  E(RB3LYP) =  -1755.94749497     A.U. after    9 cycles
 SCF Done:  E(RB3LYP) =  -1755.94749518     A.U. after    7 cycles
 SCF Done:  E(RB3LYP) =  -1755.94749524     A.U. after    7 cycles
 Optimization completed.
    -- Stationary point found.

                         Standard orientation:
 ---------------------------------------------------------------------
 Center     Atomic      Atomic             Coordinates (Angstroms)
 Number     Number       Type             X           Y           Z
 ---------------------------------------------------------------------
      1          6           0       -5.586739   -3.457269    2.324198
      2          8           0       -4.592869   -2.451867    2.218918
      3          6           0       -4.541222   -1.711138    1.072822
      4          6           0       -5.402681   -1.887364   -0.009479
      5          6           0       -5.259899   -1.067851   -1.140202
      6          8           0       -6.148377   -1.324518   -2.148292
      7          6           0       -6.072756   -0.538280   -3.324976
      8          6           0       -4.272920   -0.084952   -1.190494
      9          6           0       -3.411459    0.084931   -0.088802
     10          6           0       -2.362401    1.121019   -0.130182
     11          6           0       -2.254758    2.217047   -1.034386
     12          6           0       -1.112794    2.899823   -0.667026
     13          7           0       -0.491296    3.989825   -1.236146
     14          7           0       -0.615557    2.215962    0.434706
     15         16           0        0.861434    2.426243    1.299429
     16          8           0        1.370471    3.722951    0.835188
     17          8           0        0.572754    2.177564    2.702653
     18          6           0        1.912299    1.128464    0.679302
     19          6           0        2.849094    1.418499   -0.309754
     20          6           0        3.670348    0.395493   -0.786055
     21          6           0        3.572659   -0.912260   -0.290466
     22          6           0        4.420908   -2.080401   -0.797922
     23          6           0        5.356360   -1.768145   -1.989268
     24          6           0        6.648705   -1.020293   -1.609175
     25          6           0        7.402517   -1.724461   -0.471673
     26          6           0        6.483791   -1.951049    0.736970
     27          6           0        5.238802   -2.755245    0.338117
     28          6           0        2.602017   -1.166940    0.697208
     29          6           0        1.774147   -0.165682    1.189673
     30          7           0       -1.367262    1.106263    0.748635
     31          6           0       -3.546365   -0.723837    1.037810
     32          1           0       -6.598246   -3.034632    2.258587
     33          1           0       -5.468673   -4.226141    1.548856
     34          1           0       -5.449230   -3.912314    3.306980
     35          1           0       -6.185550   -2.635219   -0.018422
     36          1           0       -6.240589    0.526061   -3.112061
     37          1           0       -5.103768   -0.654989   -3.828666
     38          1           0       -6.865484   -0.903517   -3.980920
     39          1           0       -4.147629    0.532909   -2.070223
     40          1           0       -2.930923    2.496656   -1.828903
     41          1           0        0.153369    4.481112   -0.627545
     42          1           0       -1.115941    4.596178   -1.751065
     43          1           0        2.939616    2.428856   -0.693415
     44          1           0        4.389899    0.634781   -1.559913
     45          1           0        3.696003   -2.829316   -1.149795
     46          1           0        4.811186   -1.224031   -2.770674
     47          1           0        5.639577   -2.730991   -2.436523
     48          1           0        7.289749   -0.934452   -2.495880
     49          1           0        6.420557    0.005871   -1.293898
     50          1           0        8.282434   -1.136860   -0.181395
     51          1           0        7.777216   -2.696172   -0.826794
     52          1           0        7.023456   -2.478516    1.533448
     53          1           0        6.179068   -0.981026    1.154783
     54          1           0        4.603152   -2.931649    1.213071
     55          1           0        5.555671   -3.745457   -0.019155
     56          1           0        2.484118   -2.176026    1.082854
     57          1           0        1.028457   -0.375800    1.947955
     58          1           0       -2.893382   -0.593267    1.892316
 ---------------------------------------------------------------------

 The electronic state is 1-A.
 Alpha  occ. eigenvalues --  -89.12708 -19.17370 -19.17024 -19.15913 -19.15425
 Alpha  occ. eigenvalues --  -14.41456 -14.35298 -14.34144 -10.27213 -10.24324
 Alpha  occ. eigenvalues --  -10.24068 -10.23889 -10.23483 -10.23055 -10.21584
 Alpha  occ. eigenvalues --  -10.21559 -10.21445 -10.21194 -10.20441 -10.20397
 Alpha  occ. eigenvalues --  -10.20345 -10.19530 -10.18927 -10.18859 -10.18512
 Alpha  occ. eigenvalues --  -10.18279 -10.18243 -10.17649 -10.17590 -10.17580
 Alpha  occ. eigenvalues --  -10.16782  -8.15189  -6.11746  -6.11595  -6.11451
 Alpha  occ. eigenvalues --   -1.12667  -1.05960  -1.05612  -1.03641  -1.01643
 Alpha  occ. eigenvalues --   -0.92460  -0.88026  -0.85299  -0.83886  -0.82397
 Alpha  occ. eigenvalues --   -0.78811  -0.76685  -0.76424  -0.75567  -0.75010
 Alpha  occ. eigenvalues --   -0.74432  -0.73793  -0.69835  -0.68816  -0.67994
 Alpha  occ. eigenvalues --   -0.63912  -0.63003  -0.62108  -0.60946  -0.60287
 Alpha  occ. eigenvalues --   -0.58749  -0.57472  -0.56820  -0.55743  -0.55115
 Alpha  occ. eigenvalues --   -0.53140  -0.52347  -0.49933  -0.49431  -0.49046
 Alpha  occ. eigenvalues --   -0.48193  -0.48071  -0.47744  -0.47324  -0.46623
 Alpha  occ. eigenvalues --   -0.46379  -0.46044  -0.45668  -0.45446  -0.44797
 Alpha  occ. eigenvalues --   -0.44357  -0.44273  -0.43592  -0.43448  -0.42863
 Alpha  occ. eigenvalues --   -0.41276  -0.41045  -0.39814  -0.39417  -0.38402
 Alpha  occ. eigenvalues --   -0.37975  -0.37908  -0.37404  -0.36853  -0.36741
 Alpha  occ. eigenvalues --   -0.36040  -0.35077  -0.34908  -0.34441  -0.33809
 Alpha  occ. eigenvalues --   -0.33656  -0.33115  -0.32828  -0.32553  -0.32151
 Alpha  occ. eigenvalues --   -0.31684  -0.31612  -0.31037  -0.30617  -0.30339
 Alpha  occ. eigenvalues --   -0.28745  -0.26764  -0.26648  -0.25329  -0.21743
 Alpha  occ. eigenvalues --   -0.20965  -0.20154
 Alpha virt. eigenvalues --   -0.04378  -0.01966  -0.01334   0.02558   0.03581
 Alpha virt. eigenvalues --    0.04987   0.06338   0.07659   0.08332   0.09153
 Alpha virt. eigenvalues --    0.09720   0.10392   0.10591   0.10770   0.11154

 Mulliken charges:
               1
     1  C   -0.212400
     2  O   -0.511918
     3  C    0.390142
     4  C   -0.256425
     5  C    0.381660
     6  O   -0.515424
     7  C   -0.210993
     8  C   -0.266191
     9  C    0.125353
    10  C    0.284202
    11  C   -0.320399
    12  C    0.572488
    13  N   -0.810205
    14  N   -0.490402
    15  S    1.267138
    16  O   -0.562520
    17  O   -0.495730
    18  C   -0.158123
    19  C   -0.140017
    20  C   -0.192165
    21  C    0.181606
    22  C   -0.168482
    23  C   -0.279775
    24  C   -0.264563
    25  C   -0.256032
    26  C   -0.259945
    27  C   -0.267725
    28  C   -0.185976
    29  C   -0.117515
    30  N   -0.379923
    31  C   -0.237544
    32  H    0.152071
    33  H    0.150739
    34  H    0.168156
    35  H    0.136956
    36  H    0.149518
    37  H    0.151596
    38  H    0.167242
    39  H    0.125022
    40  H    0.130018
    41  H    0.373831
    42  H    0.333629
    43  H    0.177140
    44  H    0.144050
    45  H    0.145507
    46  H    0.138242
    47  H    0.135391
    48  H    0.134994
    49  H    0.136636
    50  H    0.134152
    51  H    0.127733
    52  H    0.135283
    53  H    0.140249
    54  H    0.138819
    55  H    0.132739
    56  H    0.144289
    57  H    0.192658
    58  H    0.161140
 Sum of Mulliken charges =  -0.00000

 Dipole moment (field-independent basis, Debye):
    X=              0.8835    Y=             -1.7215    Z=             -4.9338  Tot=              5.2997
 Quadrupole moment (field-independent basis, Debye-Ang):
   XX=           -163.7009   YY=           -173.3331   ZZ=           -187.2303
   XY=             -6.4725   XZ=              3.0992   YZ=            -18.1358

 Normal termination of Gaussian 16 at Fri Nov  4 21:42:07 2022.
