 Gaussian 16, Revision B.01,
 Gaussian 16:  ES64L-G16RevB.01 20-Dec-2017

 -------------------------------------------------------------------
 #p b3lyp/6-31g(d) 6D 10F nosymm GFInput td=(50-50,nstate=2) SCF=XQC
 -------------------------------------------------------------------

 ------------------------------
 Gaussian input prepared by ASE
 ------------------------------
 Symbolic Z-matrix:
 Charge =  0 Multiplicity = 1

                          Input orientation:
 ---------------------------------------------------------------------
 Center     Atomic      Atomic             Coordinates (Angstroms)
 Number     Number       Type             X           Y           Z
 ---------------------------------------------------------------------
      1          6           0        6.171145    0.021158    3.552285
      2          8           0        5.151190   -0.553790    2.753022
      3          6           0        5.025352   -0.129193    1.461215
      4          6           0        5.834773    0.844999    0.877837
      5          6           0        5.616969    1.205836   -0.461148
      6          8           0        6.458897    2.173538   -0.936779
      7          6           0        6.306568    2.592723   -2.281975
      8          6           0        4.607169    0.602438   -1.208786
      9          6           0        3.798865   -0.382847   -0.608323
     10          6           0        2.726351   -1.028164   -1.388704
     11          6           0        2.548938   -1.016292   -2.802504
     12          6           0        1.412122   -1.759860   -3.047404
     13          7           0        0.738683   -2.017812   -4.221373
     14          7           0        0.986412   -2.199608   -1.800762
     15         16           0       -0.449343   -3.041614   -1.350097
     16          8           0       -1.009779   -3.508124   -2.624604
     17          8           0       -0.084758   -3.969258   -0.291433
     18          6           0       -1.501152   -1.770768   -0.677970
     19          6           0       -2.492876   -1.207616   -1.477520
     20          6           0       -3.314252   -0.215403   -0.940196
     21          6           0       -3.162711    0.223233    0.382681
     22          6           0       -4.009397    1.330163    1.014677
     23          6           0       -5.010484    2.036696    0.071006
     24          6           0       -6.298252    1.238531   -0.209164
     25          6           0       -6.977892    0.777215    1.088247
     26          6           0       -5.994530    0.002990    1.976949
     27          6           0       -4.753746    0.849939    2.291502
     28          6           0       -2.138045   -0.360196    1.152211
     29          6           0       -1.308765   -1.351149    0.641608
     30          7           0        1.777413   -1.727535   -0.777773
     31          6           0        4.008359   -0.747438    0.720115
     32          1           0        7.168436   -0.167664    3.132961
     33          1           0        6.031161    1.104106    3.670137
     34          1           0        6.093540   -0.460707    4.528818
     35          1           0        6.632575    1.341624    1.415543
     36          1           0        6.461305    1.762784   -2.984527
     37          1           0        5.316215    3.033144   -2.459438
     38          1           0        7.073074    3.352362   -2.447796
     39          1           0        4.423967    0.895218   -2.234500
     40          1           0        3.177771   -0.556951   -3.550977
     41          1           0        0.114832   -2.816064   -4.190502
     42          1           0        1.322948   -1.982465   -5.046220
     43          1           0       -2.625020   -1.546282   -2.499310
     44          1           0       -4.077075    0.217795   -1.576048
     45          1           0       -3.286759    2.092657    1.341133
     46          1           0       -4.517643    2.316355   -0.868551
     47          1           0       -5.294509    2.982179    0.553411
     48          1           0       -6.984983    1.857870   -0.800240
     49          1           0       -6.077279    0.354503   -0.820827
     50          1           0       -7.854841    0.160026    0.856235
     51          1           0       -7.348411    1.654300    1.639762
     52          1           0       -6.481479   -0.298707    2.912736
     53          1           0       -5.690679   -0.923561    1.469460
     54          1           0       -4.070986    0.296492    2.945910
     55          1           0       -5.066222    1.741785    2.853227
     56          1           0       -1.978494   -0.023178    2.172917
     57          1           0       -0.521275   -1.789896    1.243734
     58          1           0        3.396611   -1.510519    1.186039
 ---------------------------------------------------------------------

 SCF Done:  E(RB3LYP) =  -1755.94747547     A.U. after   15 cycles

 Excitation energies and oscillator strengths:

 Excited state symmetry could not be determined.
 Excited State   1:      Triplet-?Sym    3.0707 eV  403.76 nm  f=0.0000  <S**2>=2.000
     115 ->120        -0.13859
     116 ->118        -0.18797
     116 ->119        -0.12321
     116 ->120         0.15939
     116 ->122         0.10371
     117 ->118         0.36645
     117 ->119         0.26976
     117 ->120        -0.35773
     117 ->121        -0.11780
 This state for optimization and/or second-order correction.
 Total Energy, E(TD-HF/TD-DFT) =  -1755.83462911
 Copying the excited state density for this state as the 1-particle RhoCI density.

 Excited state symmetry could not be determined.
 Excited State   2:      Triplet-?Sym    3.5807 eV  346.26 nm  f=0.0000  <S**2>=2.000
     112 ->118         0.13239
     113 ->119         0.12074
     114 ->118        -0.15053
     115 ->118         0.33725
     115 ->119         0.18441
     115 ->120        -0.24466
     116 ->118         0.24531
     116 ->121        -0.16385
     117 ->118        -0.20010
     117 ->120        -0.12518
     117 ->122         0.18461

 Excited state symmetry could not be determined.
 Excited State   3:      Singlet-?Sym    3.7379 eV  331.69 nm  f=0.0117  <S**2>=0.000
     116 ->118        -0.22144
     117 ->118         0.66308

 Excited state symmetry could not be determined.
 Excited State   4:      Singlet-?Sym    4.0372 eV  307.11 nm  f=0.0067  <S**2>=0.000
     116 ->118         0.65352
     117 ->118         0.23146

 Alpha  occ. eigenvalues --  -89.12708 -19.17370 -19.17024 -19.15913 -19.15425
 Alpha  occ. eigenvalues --  -14.41456 -14.35298 -14.34144 -10.27213 -10.24324
 Alpha  occ. eigenvalues --  -10.24068 -10.23889 -10.23483 -10.23055 -10.21584
 Alpha  occ. eigenvalues --  -10.21559 -10.21445 -10.21194 -10.20441 -10.20397
 Alpha  occ. eigenvalues --  -10.20345 -10.19530 -10.18927 -10.18859 -10.18512
 Alpha  occ. eigenvalues --  -10.18279 -10.18242 -10.17649 -10.17590 -10.17580
 Alpha  occ. eigenvalues --  -10.16782  -8.15189  -6.11746  -6.11595  -6.11451
 Alpha  occ. eigenvalues --   -1.12667  -1.05960  -1.05612  -1.03641  -1.01643
 Alpha  occ. eigenvalues --   -0.92460  -0.88026  -0.85299  -0.83886  -0.82397
 Alpha  occ. eigenvalues --   -0.78811  -0.76686  -0.76424  -0.75567  -0.75010
 Alpha  occ. eigenvalues --   -0.74432  -0.73794  -0.69835  -0.68816  -0.67994
 Alpha  occ. eigenvalues --   -0.63912  -0.63003  -0.62108  -0.60946  -0.60287
 Alpha  occ. eigenvalues --   -0.58749  -0.57472  -0.56820  -0.55744  -0.55115
 Alpha  occ. eigenvalues --   -0.53140  -0.52347  -0.49933  -0.49431  -0.49046
 Alpha  occ. eigenvalues --   -0.48193  -0.48071  -0.47744  -0.47324  -0.46623
 Alpha  occ. eigenvalues --   -0.46379  -0.46044  -0.45668  -0.45446  -0.44797
 Alpha  occ. eigenvalues --   -0.44357  -0.44273  -0.43593  -0.43448  -0.42863
 Alpha  occ. eigenvalues --   -0.41276  -0.41045  -0.39814  -0.39417  -0.38402
 Alpha  occ. eigenvalues --   -0.37975  -0.37908  -0.37404  -0.36853  -0.36741
 Alpha  occ. eigenvalues --   -0.36040  -0.35077  -0.34908  -0.34441  -0.33809
 Alpha  occ. eigenvalues --   -0.33656  -0.33115  -0.32828  -0.32553  -0.32151
 Alpha  occ. eigenvalues --   -0.31684  -0.31612  -0.31037  -0.30617  -0.30339
 Alpha  occ. eigenvalues --   -0.28745  -0.26764  -0.26648  -0.25329  -0.21743
 Alpha  occ. eigenvalues --   -0.20965  -0.20154
 Alpha virt. eigenvalues --   -0.04378  -0.01966  -0.01334   0.02558   0.03581
 Alpha virt. eigenvalues --    0.04987   0.06339   0.07659   0.08332   0.09153
 Alpha virt. eigenvalues --    0.09720   0.10392   0.10591   0.10770   0.11154

 Mulliken charges:
               1
     1  C   -0.212402
     2  O   -0.511918
     3  C    0.390154
     4  C   -0.256430
     5  C    0.381670
     6  O   -0.515429
     7  C   -0.210990
     8  C   -0.266189
     9  C    0.125357
    10  C    0.284197
    11  C   -0.320395
    12  C    0.572504
    13  N   -0.810224
    14  N   -0.490459
    15  S    1.267240
    16  O   -0.562544
    17  O   -0.495725
    18  C   -0.158145
    19  C   -0.140027
    20  C   -0.192164
    21  C    0.181585
    22  C   -0.168433
    23  C   -0.279809
    24  C   -0.264529
    25  C   -0.256037
    26  C   -0.259954
    27  C   -0.267711
    28  C   -0.185987
    29  C   -0.117507
    30  N   -0.379907
    31  C   -0.237560
    32  H    0.152072
    33  H    0.150739
    34  H    0.168156
    35  H    0.136956
    36  H    0.149517
    37  H    0.151595
    38  H    0.167242
    39  H    0.125020
    40  H    0.130018
    41  H    0.373829
    42  H    0.333628
    43  H    0.177134
    44  H    0.144049
    45  H    0.145505
    46  H    0.138244
    47  H    0.135391
    48  H    0.134989
    49  H    0.136631
    50  H    0.134149
    51  H    0.127735
    52  H    0.135283
    53  H    0.140251
    54  H    0.138815
    55  H    0.132733
    56  H    0.144291
    57  H    0.192657
    58  H    0.161140
 Sum of Mulliken charges =  -0.00000

 Dipole moment (field-independent basis, Debye):
    X=             -1.0931    Y=              4.8957    Z=             -1.7099  Tot=              5.2997
 Quadrupole moment (field-independent basis, Debye-Ang):
   XX=           -165.1969   YY=           -204.2839   ZZ=           -159.3136
   XY=              1.8747   XZ=             -7.2299   YZ=              2.1008

 Normal termination of Gaussian 16 at Sat Nov  5 12:16:18 2022.
