 Gaussian 16, Revision B.01,
 Gaussian 16:  ES64L-G16RevB.01 20-Dec-2017

 -------------------------------------------------------------------
 #p b3lyp/6-31g(d) 6D 10F nosymm GFInput td=(50-50,nstate=2) SCF=XQC
 -------------------------------------------------------------------

 ------------------------------
 Gaussian input prepared by ASE
 ------------------------------
 Symbolic Z-matrix:
 Charge =  0 Multiplicity = 1

                          Input orientation:
 ---------------------------------------------------------------------
 Center     Atomic      Atomic             Coordinates (Angstroms)
 Number     Number       Type             X           Y           Z
 ---------------------------------------------------------------------
      1          6           0        3.699291    0.841618    3.194921
      2          6           0        2.915484    0.603894    1.901636
      3          8           0        2.878199    1.831135    1.153803
      4          6           0        1.615399    2.471443    1.034286
      5          6           0        0.684297    1.907046   -0.064105
      6          6           0        1.476957    1.705047   -1.363045
      7          6           0       -0.468206    2.933715   -0.297471
      8          6           0       -1.737469    2.232634   -0.800195
      9          6           0       -2.286512    1.320779    0.310645
     10          7           0       -3.325587    0.376840   -0.178504
     11          6           0       -4.614140    0.460605    0.391610
     12          6           0       -5.408497   -0.689566    0.583080
     13          6           0       -6.658255   -0.547548    1.169434
     14          6           0       -7.089489    0.718677    1.576046
     15          6           0       -6.219130    1.785570    1.376426
     16          7           0       -5.019685    1.672914    0.794186
     17          6           0       -3.049196   -0.542419   -1.202949
     18          6           0       -4.044482   -0.943297   -2.122140
     19          6           0       -3.717173   -1.863874   -3.106010
     20          6           0       -2.411696   -2.360109   -3.183310
     21          6           0       -1.487874   -1.873719   -2.266429
     22          7           0       -1.787306   -0.991707   -1.301133
     23          6           0       -1.110865    0.650224    1.091588
     24          7           0        0.156586    0.585575    0.365626
     25          6           0        3.532154   -0.470261    1.017076
     26          6           0        4.849910   -0.354182    0.560063
     27          6           0        5.404176   -1.331395   -0.267862
     28          6           0        6.807215   -1.163285   -0.788431
     29          9           0        7.394403   -2.353614   -1.044792
     30          9           0        6.829651   -0.457739   -1.943121
     31          9           0        7.593740   -0.502658    0.089705
     32          6           0        4.649280   -2.436696   -0.663511
     33          6           0        3.332286   -2.549423   -0.221137
     34          6           0        2.474434   -3.684800   -0.707909
     35          9           0        1.793793   -3.343254   -1.836627
     36          9           0        3.202633   -4.779033   -1.015869
     37          9           0        1.549614   -4.051433    0.203963
     38          6           0        2.778448   -1.575871    0.614786
     39          1           0        4.711472    1.200995    2.981821
     40          1           0        3.775679   -0.079264    3.784595
     41          1           0        3.194026    1.601137    3.801367
     42          1           0        1.894596    0.294512    2.137962
     43          1           0        1.086406    2.464335    2.001048
     44          1           0        1.848776    3.516780    0.797517
     45          1           0        0.810637    1.416194   -2.184737
     46          1           0        1.990361    2.628484   -1.652188
     47          1           0        2.232466    0.925814   -1.238414
     48          1           0       -0.142039    3.701649   -1.008915
     49          1           0       -0.700339    3.463942    0.638930
     50          1           0       -1.501057    1.644279   -1.693859
     51          1           0       -2.506141    2.958186   -1.088119
     52          1           0       -2.832920    1.956112    1.007677
     53          1           0       -5.039607   -1.666901    0.293760
     54          1           0       -7.281758   -1.423256    1.329746
     55          1           0       -8.057064    0.869636    2.043444
     56          1           0       -6.494971    2.790967    1.691228
     57          1           0       -5.042599   -0.525058   -2.067043
     58          1           0       -4.472528   -2.178748   -3.821345
     59          1           0       -2.118630   -3.084599   -3.935757
     60          1           0       -0.454143   -2.213038   -2.284692
     61          1           0       -0.947488    1.219001    2.016051
     62          1           0       -1.392338   -0.362615    1.391448
     63          1           0       -0.021807    0.004873   -0.452641
     64          1           0        5.448275    0.503810    0.847507
     65          1           0        5.083880   -3.199068   -1.299311
     66          1           0        1.746466   -1.659990    0.936756
 ---------------------------------------------------------------------

 SCF Done:  E(RB3LYP) =  -1939.01887799     A.U. after   14 cycles

 Excitation energies and oscillator strengths:

 Excited state symmetry could not be determined.
 Excited State   1:      Triplet-?Sym    3.1897 eV  388.70 nm  f=0.0000  <S**2>=2.000
     131 ->145        -0.10515
     132 ->142         0.10538
     134 ->146         0.12887
     139 ->142        -0.21399
     139 ->144        -0.26038
     140 ->142         0.40118
     140 ->144         0.41026
 This state for optimization and/or second-order correction.
 Total Energy, E(TD-HF/TD-DFT) =  -1938.90165892
 Copying the excited state density for this state as the 1-particle RhoCI density.

 Excited state symmetry could not be determined.
 Excited State   2:      Triplet-?Sym    3.4038 eV  364.25 nm  f=0.0000  <S**2>=2.000
     134 ->145        -0.13078
     139 ->142        -0.21366
     139 ->144         0.21797
     140 ->142         0.47364
     140 ->144        -0.36849

 Excited state symmetry could not be determined.
 Excited State   3:      Singlet-?Sym    3.8741 eV  320.03 nm  f=0.1005  <S**2>=0.000
     140 ->142         0.67827
     140 ->144        -0.16210

 Excited state symmetry could not be determined.
 Excited State   4:      Singlet-?Sym    3.9491 eV  313.95 nm  f=0.0172  <S**2>=0.000
     139 ->141         0.18718
     140 ->141         0.67989

 Alpha  occ. eigenvalues --  -24.72744 -24.72668 -24.72298 -24.72285 -24.72244
 Alpha  occ. eigenvalues --  -24.71634 -19.14052 -14.36711 -14.33422 -14.33244
 Alpha  occ. eigenvalues --  -14.30338 -10.43509 -10.43101 -10.26928 -10.26832
 Alpha  occ. eigenvalues --  -10.23700 -10.22911 -10.22751 -10.22333 -10.22045
 Alpha  occ. eigenvalues --  -10.22018 -10.21660 -10.21555 -10.21393 -10.21330
 Alpha  occ. eigenvalues --  -10.21304 -10.20987 -10.20855 -10.20799 -10.20298
 Alpha  occ. eigenvalues --  -10.20186 -10.20040 -10.19865 -10.19657 -10.18031
 Alpha  occ. eigenvalues --  -10.17935 -10.17666 -10.16687  -1.30233  -1.29812
 Alpha  occ. eigenvalues --   -1.21762  -1.21293  -1.21179  -1.20783  -1.02164
 Alpha  occ. eigenvalues --   -0.99046  -0.95039  -0.91079  -0.89827  -0.88492
 Alpha  occ. eigenvalues --   -0.80997  -0.80708  -0.80293  -0.80106  -0.78239
 Alpha  occ. eigenvalues --   -0.77519  -0.77023  -0.74208  -0.73359  -0.70453
 Alpha  occ. eigenvalues --   -0.69612  -0.68395  -0.68065  -0.65469  -0.64647
 Alpha  occ. eigenvalues --   -0.64493  -0.63286  -0.62914  -0.62719  -0.61312
 Alpha  occ. eigenvalues --   -0.60256  -0.58288  -0.58122  -0.58076  -0.57607
 Alpha  occ. eigenvalues --   -0.57561  -0.55455  -0.55130  -0.53700  -0.52276
 Alpha  occ. eigenvalues --   -0.51380  -0.50749  -0.50460  -0.49461  -0.49190
 Alpha  occ. eigenvalues --   -0.48798  -0.48544  -0.47565  -0.47101  -0.46481
 Alpha  occ. eigenvalues --   -0.46077  -0.45732  -0.45452  -0.45293  -0.45148
 Alpha  occ. eigenvalues --   -0.44811  -0.44239  -0.43770  -0.43471  -0.42361
 Alpha  occ. eigenvalues --   -0.42021  -0.41766  -0.41701  -0.41354  -0.41293
 Alpha  occ. eigenvalues --   -0.40937  -0.40602  -0.40494  -0.40367  -0.40102
 Alpha  occ. eigenvalues --   -0.39826  -0.39745  -0.39529  -0.39406  -0.39026
 Alpha  occ. eigenvalues --   -0.38742  -0.37830  -0.37613  -0.37049  -0.36705
 Alpha  occ. eigenvalues --   -0.36274  -0.36045  -0.35803  -0.35146  -0.34395
 Alpha  occ. eigenvalues --   -0.33549  -0.33404  -0.31693  -0.30944  -0.30094
 Alpha  occ. eigenvalues --   -0.29263  -0.28556  -0.27338  -0.27212  -0.26824
 Alpha  occ. eigenvalues --   -0.26679  -0.26392  -0.25002  -0.21594  -0.19857
 Alpha virt. eigenvalues --   -0.03472  -0.03436  -0.02656  -0.02532  -0.01968
 Alpha virt. eigenvalues --    0.01042   0.07606   0.08953   0.09368   0.09587
 Alpha virt. eigenvalues --    0.10066   0.10226   0.11464   0.12221   0.12372

 Mulliken charges:
               1
     1  C   -0.453731
     2  C    0.068686
     3  O   -0.492692
     4  C   -0.028193
     5  C    0.216697
     6  C   -0.477045
     7  C   -0.305073
     8  C   -0.281927
     9  C    0.025717
    10  N   -0.549274
    11  C    0.461235
    12  C   -0.164088
    13  C   -0.107647
    14  C   -0.149964
    15  C    0.039547
    16  N   -0.486655
    17  C    0.479455
    18  C   -0.175740
    19  C   -0.106338
    20  C   -0.154834
    21  C    0.037323
    22  N   -0.514571
    23  C   -0.149309
    24  N   -0.597422
    25  C    0.157005
    26  C   -0.195577
    27  C   -0.017319
    28  C    0.789994
    29  F   -0.270190
    30  F   -0.259357
    31  F   -0.269618
    32  C   -0.197201
    33  C   -0.017157
    34  C    0.791374
    35  F   -0.261535
    36  F   -0.267446
    37  F   -0.266897
    38  C   -0.210709
    39  H    0.154856
    40  H    0.145831
    41  H    0.150331
    42  H    0.158024
    43  H    0.119756
    44  H    0.136586
    45  H    0.141378
    46  H    0.144028
    47  H    0.168533
    48  H    0.139388
    49  H    0.129766
    50  H    0.148699
    51  H    0.148909
    52  H    0.173461
    53  H    0.153371
    54  H    0.144809
    55  H    0.137513
    56  H    0.142320
    57  H    0.154052
    58  H    0.144786
    59  H    0.140763
    60  H    0.153088
    61  H    0.133481
    62  H    0.154075
    63  H    0.335006
    64  H    0.165167
    65  H    0.170345
    66  H    0.172155
 Sum of Mulliken charges =  -0.00000

 Dipole moment (field-independent basis, Debye):
    X=             -5.8195    Y=              0.2204    Z=              0.6547  Tot=              5.8603
 Quadrupole moment (field-independent basis, Debye-Ang):
   XX=           -214.0466   YY=           -218.2106   ZZ=           -208.2588
   XY=              8.5992   XZ=              5.2222   YZ=              4.2826

 Normal termination of Gaussian 16 at Sat Nov  5 12:23:28 2022.
