 Gaussian 16, Revision B.01,
 Gaussian 16:  ES64L-G16RevB.01 20-Dec-2017

 -------------------------------------------------------------------
 #p b3lyp/6-31g(d) 6D 10F nosymm GFInput td=(50-50,nstate=2) SCF=XQC
 -------------------------------------------------------------------

 ------------------------------
 Gaussian input prepared by ASE
 ------------------------------
 Symbolic Z-matrix:
 Charge =  0 Multiplicity = 1

                          Input orientation:
 ---------------------------------------------------------------------
 Center     Atomic      Atomic             Coordinates (Angstroms)
 Number     Number       Type             X           Y           Z
 ---------------------------------------------------------------------
      1          6           0        2.721390    2.897836    1.256285
      2          6           0        1.858292    1.636151    1.132660
      3          6           0        1.919940    0.973283   -0.257447
      4          6           0        1.199654    1.792848   -1.339539
      5          6           0        1.450763   -0.515842   -0.220341
      6          7           0        2.387365   -1.325763    0.572083
      7         16           0        3.371586   -2.456565   -0.179353
      8          8           0        2.841097   -2.829648   -1.498185
      9          8           0        3.648140   -3.471054    0.839955
     10          6           0        4.874792   -1.514765   -0.493990
     11          6           0        5.529023   -1.684566   -1.714697
     12          6           0        6.718597   -0.993293   -1.950125
     13          6           0        7.236060   -0.134394   -0.981671
     14          6           0        6.567746    0.025706    0.236317
     15          6           0        7.067587    1.015730    1.255038
     16          9           0        6.450696    2.216978    1.114000
     17          9           0        6.831261    0.601825    2.516576
     18          9           0        8.392713    1.239641    1.135119
     19          6           0        5.389185   -0.674864    0.492686
     20          6           0        0.059858   -0.718591    0.419362
     21          8           0       -0.046836   -1.144896    1.566241
     22          7           0       -0.991652   -0.384171   -0.382295
     23          6           0       -2.368493   -0.410495   -0.084561
     24          6           0       -2.895149   -0.848505    1.132107
     25          6           0       -4.277007   -0.812649    1.260807
     26          8           0       -4.963366   -1.206532    2.387928
     27          6           0       -6.295364   -1.016059    2.102653
     28          6           0       -7.343656   -1.288378    2.970146
     29          6           0       -8.632043   -1.028672    2.499088
     30          6           0       -8.848268   -0.516691    1.208436
     31          6           0       -7.781459   -0.250016    0.352255
     32          6           0       -6.480147   -0.502672    0.803060
     33          6           0       -5.145626   -0.370513    0.252893
     34          6           0       -4.607960    0.068741   -0.966497
     35          6           0       -3.228382    0.047915   -1.125690
     36          8           0       -2.565725    0.453798   -2.260699
     37          6           0       -3.335745    0.893602   -3.369461
     38          1           0        2.640288    3.323304    2.262686
     39          1           0        2.419217    3.677692    0.547802
     40          1           0        3.779947    2.673602    1.077453
     41          1           0        2.186370    0.908780    1.884474
     42          1           0        0.813468    1.876198    1.374891
     43          1           0        2.977309    0.908300   -0.548843
     44          1           0        1.241008    1.292540   -2.316023
     45          1           0        0.147707    1.972527   -1.090160
     46          1           0        1.674680    2.771309   -1.460306
     47          1           0        1.425964   -0.901631   -1.246976
     48          1           0        1.930823   -1.740797    1.388879
     49          1           0        5.099627   -2.339782   -2.464737
     50          1           0        7.238566   -1.119460   -2.894927
     51          1           0        8.155480    0.410903   -1.166007
     52          1           0        4.868676   -0.555838    1.435959
     53          1           0       -0.787142   -0.080237   -1.325741
     54          1           0       -2.246828   -1.196648    1.922756
     55          1           0       -7.161012   -1.683898    3.963699
     56          1           0       -9.482735   -1.227311    3.144705
     57          1           0       -9.864189   -0.326573    0.874211
     58          1           0       -7.958587    0.145473   -0.644260
     59          1           0       -5.256825    0.416947   -1.761296
     60          1           0       -2.618640    1.148622   -4.151457
     61          1           0       -4.003147    0.100455   -3.729437
     62          1           0       -3.928891    1.781059   -3.114772
 ---------------------------------------------------------------------

 SCF Done:  E(RB3LYP) =  -2189.12490404     A.U. after   15 cycles

 Excitation energies and oscillator strengths:

 Excited state symmetry could not be determined.
 Excited State   1:      Triplet-?Sym    2.9298 eV  423.18 nm  f=0.0000  <S**2>=2.000
     137 ->141         0.10814
     138 ->141        -0.12420
     138 ->144        -0.11341
     139 ->141         0.64340
 This state for optimization and/or second-order correction.
 Total Energy, E(TD-HF/TD-DFT) =  -2189.01723603
 Copying the excited state density for this state as the 1-particle RhoCI density.

 Excited state symmetry could not be determined.
 Excited State   2:      Triplet-?Sym    3.5724 eV  347.06 nm  f=0.0000  <S**2>=2.000
     137 ->144        -0.11573
     138 ->141         0.61434
     138 ->144         0.13254
     139 ->141         0.15526
     139 ->144         0.10309

 Excited state symmetry could not be determined.
 Excited State   3:      Singlet-?Sym    3.9504 eV  313.85 nm  f=0.0144  <S**2>=0.000
     139 ->140         0.70463

 Excited state symmetry could not be determined.
 Excited State   4:      Singlet-?Sym    4.0574 eV  305.57 nm  f=0.5355  <S**2>=0.000
     138 ->141         0.16492
     138 ->144        -0.11184
     139 ->141         0.66270

 Alpha  occ. eigenvalues --  -89.11706 -24.73515 -24.73318 -24.72948 -19.20845
 Alpha  occ. eigenvalues --  -19.20164 -19.14754 -19.14388 -19.14015 -14.39098
 Alpha  occ. eigenvalues --  -14.36485 -10.44321 -10.30964 -10.26378 -10.25984
 Alpha  occ. eigenvalues --  -10.24992 -10.24867 -10.24822 -10.24790 -10.24107
 Alpha  occ. eigenvalues --  -10.23466 -10.23023 -10.22759 -10.22671 -10.22287
 Alpha  occ. eigenvalues --  -10.20651 -10.20591 -10.20388 -10.20135 -10.19925
 Alpha  occ. eigenvalues --  -10.19825 -10.19710 -10.19655 -10.19239 -10.18983
 Alpha  occ. eigenvalues --  -10.18423 -10.17585  -8.14180  -6.10682  -6.10594
 Alpha  occ. eigenvalues --   -6.10498  -1.30991  -1.22508  -1.21926  -1.11320
 Alpha  occ. eigenvalues --   -1.10476  -1.08586  -1.05839  -1.00310  -0.95688
 Alpha  occ. eigenvalues --   -0.92955  -0.89577  -0.86550  -0.85679  -0.81902
 Alpha  occ. eigenvalues --   -0.80702  -0.79221  -0.78863  -0.77154  -0.75158
 Alpha  occ. eigenvalues --   -0.74734  -0.73492  -0.71856  -0.71084  -0.71004
 Alpha  occ. eigenvalues --   -0.67873  -0.66375  -0.64304  -0.63743  -0.62591
 Alpha  occ. eigenvalues --   -0.61932  -0.61141  -0.60399  -0.58812  -0.58688
 Alpha  occ. eigenvalues --   -0.58460  -0.57838  -0.56883  -0.55286  -0.54522
 Alpha  occ. eigenvalues --   -0.53367  -0.52442  -0.51888  -0.51188  -0.49370
 Alpha  occ. eigenvalues --   -0.49180  -0.48917  -0.48444  -0.47859  -0.47577
 Alpha  occ. eigenvalues --   -0.47256  -0.46681  -0.46619  -0.46346  -0.46223
 Alpha  occ. eigenvalues --   -0.45952  -0.45883  -0.45107  -0.44422  -0.44256
 Alpha  occ. eigenvalues --   -0.43288  -0.42943  -0.42696  -0.42369  -0.42329
 Alpha  occ. eigenvalues --   -0.41926  -0.41669  -0.41246  -0.40824  -0.40650
 Alpha  occ. eigenvalues --   -0.39873  -0.39556  -0.39338  -0.38743  -0.38249
 Alpha  occ. eigenvalues --   -0.37730  -0.37315  -0.36898  -0.36696  -0.35825
 Alpha  occ. eigenvalues --   -0.35650  -0.35232  -0.34080  -0.33868  -0.33476
 Alpha  occ. eigenvalues --   -0.33023  -0.32927  -0.32246  -0.32104  -0.31423
 Alpha  occ. eigenvalues --   -0.30438  -0.28889  -0.28534  -0.27552  -0.27035
 Alpha  occ. eigenvalues --   -0.26414  -0.25576  -0.22478  -0.20682
 Alpha virt. eigenvalues --   -0.05037  -0.04329  -0.04159   0.00121   0.00224
 Alpha virt. eigenvalues --    0.01630   0.04661   0.05475   0.06553   0.07876
 Alpha virt. eigenvalues --    0.08006   0.08566   0.08850   0.09261   0.09376

 Mulliken charges:
               1
     1  C   -0.458725
     2  C   -0.266616
     3  C   -0.046780
     4  C   -0.482861
     5  C   -0.101931
     6  N   -0.725241
     7  S    1.212326
     8  O   -0.540273
     9  O   -0.514651
    10  C   -0.151998
    11  C   -0.135207
    12  C   -0.132042
    13  C   -0.148488
    14  C   -0.013410
    15  C    0.792297
    16  F   -0.257515
    17  F   -0.262383
    18  F   -0.266265
    19  C   -0.158173
    20  C    0.635809
    21  O   -0.521931
    22  N   -0.734779
    23  C    0.302612
    24  C   -0.259254
    25  C    0.315253
    26  O   -0.552175
    27  C    0.321467
    28  C   -0.201295
    29  C   -0.137114
    30  C   -0.144905
    31  C   -0.192183
    32  C    0.078743
    33  C    0.094539
    34  C   -0.274838
    35  C    0.336737
    36  O   -0.550817
    37  C   -0.214174
    38  H    0.150071
    39  H    0.142029
    40  H    0.149243
    41  H    0.155319
    42  H    0.140170
    43  H    0.141039
    44  H    0.141618
    45  H    0.154170
    46  H    0.161429
    47  H    0.183173
    48  H    0.386004
    49  H    0.187909
    50  H    0.154804
    51  H    0.165086
    52  H    0.191251
    53  H    0.366656
    54  H    0.204470
    55  H    0.149451
    56  H    0.134404
    57  H    0.130099
    58  H    0.130031
    59  H    0.141992
    60  H    0.174297
    61  H    0.161699
    62  H    0.159830
 Sum of Mulliken charges =  -0.00000

 Dipole moment (field-independent basis, Debye):
    X=             -2.3277    Y=              4.6713    Z=             -5.7090  Tot=              7.7351
 Quadrupole moment (field-independent basis, Debye-Ang):
   XX=           -189.8131   YY=           -238.9982   ZZ=           -206.7663
   XY=              3.1775   XZ=             -8.2251   YZ=             -3.1777

 Normal termination of Gaussian 16 at Sat Nov  5 12:03:44 2022.
