 Gaussian 16, Revision B.01,
 Gaussian 16:  ES64L-G16RevB.01 20-Dec-2017

 -----------------------------
 #p b3lyp/6-31g(d) opt SCF=XQC
 -----------------------------

 ------------------------------
 Gaussian input prepared by ASE
 ------------------------------
 Symbolic Z-matrix:
 Charge =  0 Multiplicity = 1

 SCF Done:  E(RB3LYP) =  -2189.11301579     A.U. after   15 cycles
 SCF Done:  E(RB3LYP) =  -2189.12347524     A.U. after   13 cycles
 SCF Done:  E(RB3LYP) =  -2189.12402367     A.U. after   12 cycles
 SCF Done:  E(RB3LYP) =  -2189.12384033     A.U. after   12 cycles
 SCF Done:  E(RB3LYP) =  -2189.12428726     A.U. after   12 cycles
 SCF Done:  E(RB3LYP) =  -2189.12465842     A.U. after   11 cycles
 SCF Done:  E(RB3LYP) =  -2189.12479886     A.U. after   10 cycles
 SCF Done:  E(RB3LYP) =  -2189.12484637     A.U. after   10 cycles
 SCF Done:  E(RB3LYP) =  -2189.12487439     A.U. after   10 cycles
 SCF Done:  E(RB3LYP) =  -2189.12489683     A.U. after   10 cycles
 SCF Done:  E(RB3LYP) =  -2189.12490087     A.U. after    9 cycles
 SCF Done:  E(RB3LYP) =  -2189.12490380     A.U. after    9 cycles
 SCF Done:  E(RB3LYP) =  -2189.12490472     A.U. after    7 cycles
 SCF Done:  E(RB3LYP) =  -2189.12490440     A.U. after    7 cycles
 SCF Done:  E(RB3LYP) =  -2189.12490435     A.U. after    7 cycles
 SCF Done:  E(RB3LYP) =  -2189.12490434     A.U. after    7 cycles
 SCF Done:  E(RB3LYP) =  -2189.12490439     A.U. after    6 cycles
 Optimization completed.
    -- Stationary point found.

                         Standard orientation:
 ---------------------------------------------------------------------
 Center     Atomic      Atomic             Coordinates (Angstroms)
 Number     Number       Type             X           Y           Z
 ---------------------------------------------------------------------
      1          6           0       -2.321967   -1.617124   -2.910149
      2          6           0       -1.416919   -1.249572   -1.727836
      3          6           0       -1.520504    0.227532   -1.300020
      4          6           0       -0.887022    1.187603   -2.319032
      5          6           0       -0.991749    0.458029    0.151285
      6          7           0       -1.855707   -0.227315    1.123401
      7         16           0       -2.830268    0.659691    2.160469
      8          8           0       -2.350816    2.043212    2.286640
      9          8           0       -3.016296   -0.187564    3.340390
     10          6           0       -4.383047    0.750274    1.251465
     11          6           0       -5.089164    1.953755    1.249105
     12          6           0       -6.315174    2.021053    0.585218
     13          6           0       -6.817959    0.902555   -0.077767
     14          6           0       -6.097537   -0.296046   -0.066955
     15          6           0       -6.585437   -1.485115   -0.851715
     16          9           0       -6.024029   -1.519926   -2.087454
     17          9           0       -6.271389   -2.649337   -0.247885
     18          9           0       -7.922644   -1.459641   -1.029772
     19          6           0       -4.881126   -0.382892    0.610047
     20          6           0        0.435768   -0.080305    0.390733
     21          8           0        0.615306   -1.134928    0.994047
     22          7           0        1.432693    0.697950   -0.119780
     23          6           0        2.822447    0.466625   -0.109645
     24          6           0        3.424999   -0.637231    0.496930
     25          6           0        4.809019   -0.712141    0.417812
     26          8           0        5.564826   -1.728420    0.958705
     27          6           0        6.872685   -1.423255    0.661621
     28          6           0        7.972183   -2.188792    1.023109
     29          6           0        9.224677   -1.713920    0.629359
     30          6           0        9.356989   -0.518367   -0.097146
     31          6           0        8.239788    0.236189   -0.450346
     32          6           0        6.973124   -0.220443   -0.066259
     33          6           0        5.609053    0.243768   -0.224104
     34          6           0        4.995330    1.349638   -0.831835
     35          6           0        3.611498    1.452189   -0.772640
     36          8           0        2.878486    2.475238   -1.327765
     37          6           0        3.575263    3.526764   -1.979308
     38          1           0       -2.208430   -2.675938   -3.167958
     39          1           0       -2.085879   -1.036040   -3.809058
     40          1           0       -3.378361   -1.447990   -2.668838
     41          1           0       -1.678803   -1.883150   -0.872311
     42          1           0       -0.371744   -1.484368   -1.973675
     43          1           0       -2.587510    0.481155   -1.234157
     44          1           0       -0.956473    2.231042   -1.984438
     45          1           0        0.167991    0.956093   -2.504550
     46          1           0       -1.405593    1.124131   -3.280632
     47          1           0       -1.002151    1.534619    0.361700
     48          1           0       -1.343648   -0.943965    1.644985
     49          1           0       -4.671586    2.819540    1.751392
     50          1           0       -6.875481    2.951080    0.578852
     51          1           0       -7.766089    0.955079   -0.602124
     52          1           0       -4.320071   -1.310203    0.623173
     53          1           0        1.170335    1.568385   -0.564527
     54          1           0        2.830465   -1.385482    1.000216
     55          1           0        7.854223   -3.109583    1.584511
     56          1           0       10.113179   -2.281376    0.891107
     57          1           0       10.347011   -0.178147   -0.387066
     58          1           0        8.352100    1.159672   -1.011944
     59          1           0        5.590202    2.101990   -1.335891
     60          1           0        2.811172    4.224807   -2.325273
     61          1           0        4.254944    4.041133   -1.288259
     62          1           0        4.144750    3.153220   -2.839783
 ---------------------------------------------------------------------

 The electronic state is 1-A.
 Alpha  occ. eigenvalues --  -89.11706 -24.73515 -24.73319 -24.72948 -19.20845
 Alpha  occ. eigenvalues --  -19.20164 -19.14754 -19.14388 -19.14014 -14.39098
 Alpha  occ. eigenvalues --  -14.36485 -10.44321 -10.30964 -10.26378 -10.25984
 Alpha  occ. eigenvalues --  -10.24992 -10.24867 -10.24822 -10.24790 -10.24107
 Alpha  occ. eigenvalues --  -10.23466 -10.23023 -10.22759 -10.22671 -10.22287
 Alpha  occ. eigenvalues --  -10.20651 -10.20591 -10.20388 -10.20135 -10.19925
 Alpha  occ. eigenvalues --  -10.19825 -10.19710 -10.19655 -10.19239 -10.18983
 Alpha  occ. eigenvalues --  -10.18423 -10.17585  -8.14180  -6.10682  -6.10595
 Alpha  occ. eigenvalues --   -6.10498  -1.30991  -1.22508  -1.21926  -1.11320
 Alpha  occ. eigenvalues --   -1.10476  -1.08586  -1.05839  -1.00310  -0.95688
 Alpha  occ. eigenvalues --   -0.92955  -0.89577  -0.86550  -0.85679  -0.81902
 Alpha  occ. eigenvalues --   -0.80702  -0.79221  -0.78863  -0.77154  -0.75158
 Alpha  occ. eigenvalues --   -0.74734  -0.73492  -0.71856  -0.71084  -0.71003
 Alpha  occ. eigenvalues --   -0.67873  -0.66375  -0.64304  -0.63743  -0.62591
 Alpha  occ. eigenvalues --   -0.61932  -0.61141  -0.60399  -0.58812  -0.58688
 Alpha  occ. eigenvalues --   -0.58460  -0.57838  -0.56883  -0.55286  -0.54522
 Alpha  occ. eigenvalues --   -0.53367  -0.52442  -0.51888  -0.51188  -0.49370
 Alpha  occ. eigenvalues --   -0.49180  -0.48917  -0.48444  -0.47859  -0.47578
 Alpha  occ. eigenvalues --   -0.47256  -0.46681  -0.46619  -0.46346  -0.46223
 Alpha  occ. eigenvalues --   -0.45952  -0.45883  -0.45107  -0.44422  -0.44256
 Alpha  occ. eigenvalues --   -0.43288  -0.42943  -0.42696  -0.42369  -0.42329
 Alpha  occ. eigenvalues --   -0.41926  -0.41669  -0.41246  -0.40824  -0.40650
 Alpha  occ. eigenvalues --   -0.39873  -0.39556  -0.39338  -0.38743  -0.38249
 Alpha  occ. eigenvalues --   -0.37730  -0.37315  -0.36898  -0.36696  -0.35825
 Alpha  occ. eigenvalues --   -0.35650  -0.35232  -0.34080  -0.33868  -0.33476
 Alpha  occ. eigenvalues --   -0.33023  -0.32927  -0.32246  -0.32104  -0.31423
 Alpha  occ. eigenvalues --   -0.30438  -0.28889  -0.28534  -0.27552  -0.27035
 Alpha  occ. eigenvalues --   -0.26414  -0.25576  -0.22478  -0.20682
 Alpha virt. eigenvalues --   -0.05037  -0.04329  -0.04159   0.00121   0.00225
 Alpha virt. eigenvalues --    0.01630   0.04661   0.05475   0.06553   0.07876
 Alpha virt. eigenvalues --    0.08006   0.08566   0.08850   0.09261   0.09376

 Mulliken charges:
               1
     1  C   -0.458739
     2  C   -0.266587
     3  C   -0.046835
     4  C   -0.482855
     5  C   -0.101913
     6  N   -0.725236
     7  S    1.212310
     8  O   -0.540261
     9  O   -0.514640
    10  C   -0.152016
    11  C   -0.135213
    12  C   -0.132044
    13  C   -0.148491
    14  C   -0.013404
    15  C    0.792306
    16  F   -0.257520
    17  F   -0.262387
    18  F   -0.266268
    19  C   -0.158167
    20  C    0.635816
    21  O   -0.521940
    22  N   -0.734768
    23  C    0.302595
    24  C   -0.259247
    25  C    0.315256
    26  O   -0.552178
    27  C    0.321472
    28  C   -0.201297
    29  C   -0.137112
    30  C   -0.144904
    31  C   -0.192189
    32  C    0.078745
    33  C    0.094534
    34  C   -0.274843
    35  C    0.336756
    36  O   -0.550822
    37  C   -0.214177
    38  H    0.150072
    39  H    0.142030
    40  H    0.149248
    41  H    0.155316
    42  H    0.140169
    43  H    0.141054
    44  H    0.141617
    45  H    0.154169
    46  H    0.161430
    47  H    0.183173
    48  H    0.386007
    49  H    0.187909
    50  H    0.154804
    51  H    0.165086
    52  H    0.191251
    53  H    0.366655
    54  H    0.204468
    55  H    0.149451
    56  H    0.134404
    57  H    0.130099
    58  H    0.130031
    59  H    0.141992
    60  H    0.174301
    61  H    0.161698
    62  H    0.159830
 Sum of Mulliken charges =  -0.00000

 Dipole moment (field-independent basis, Debye):
    X=              1.8588    Y=              4.9458    Z=             -5.6495  Tot=              7.7351
 Quadrupole moment (field-independent basis, Debye-Ang):
   XX=           -187.2022   YY=           -207.1646   ZZ=           -233.0194
   XY=             -4.5281   XZ=             -0.6708   YZ=            -10.9085

 Normal termination of Gaussian 16 at Fri Nov  4 20:15:25 2022.
