 Gaussian 16, Revision B.01,
 Gaussian 16:  ES64L-G16RevB.01 20-Dec-2017

 -------------------------------------------------------------------
 #p b3lyp/6-31g(d) 6D 10F nosymm GFInput td=(50-50,nstate=2) SCF=XQC
 -------------------------------------------------------------------

 ------------------------------
 Gaussian input prepared by ASE
 ------------------------------
 Symbolic Z-matrix:
 Charge =  0 Multiplicity = 1

                          Input orientation:
 ---------------------------------------------------------------------
 Center     Atomic      Atomic             Coordinates (Angstroms)
 Number     Number       Type             X           Y           Z
 ---------------------------------------------------------------------
      1          6           0        8.521762    2.165654    1.935712
      2          8           0        7.349323    2.851498    1.527422
      3          6           0        6.170906    2.161803    1.510038
      4          6           0        5.043780    2.891376    1.104362
      5          6           0        3.798165    2.278962    1.056103
      6          6           0        3.631067    0.929698    1.408371
      7          6           0        2.279351    0.257776    1.312307
      8          6           0        2.051759   -0.382487   -0.073301
      9          7           0        0.764490   -1.053118   -0.179904
     10          7           0        0.626883   -2.296955    0.320782
     11          6           0       -0.667081   -2.612526    0.149538
     12          6           0       -1.325611   -3.911994    0.482810
     13          8           0       -2.472638   -4.079816    0.050566
     14          7           0       -0.698415   -4.881998    1.226225
     15          6           0       -1.421165   -6.120485    1.479912
     16          6           0        0.588378   -4.786254    1.899150
     17          6           0       -1.366782   -1.540379   -0.466167
     18          6           0       -0.416721   -0.560804   -0.658084
     19          6           0       -0.682544    0.762182   -1.301051
     20          6           0       -2.032698    0.659142   -2.035064
     21          7           0       -3.049105    0.069552   -1.163093
     22          6           0       -4.410167    0.261713   -1.670125
     23          6           0       -4.846317    1.699183   -1.647123
     24          6           0       -4.766917    2.620587   -0.574104
     25          7           0       -5.271713    3.812091   -0.891729
     26          7           0       -5.680131    3.678171   -2.173957
     27          6           0       -6.361543    4.778124   -2.826677
     28          6           0       -5.444534    2.429413   -2.659859
     29          6           0       -2.792312   -1.354402   -0.889495
     30          6           0        4.765087    0.219242    1.811336
     31          6           0        6.027608    0.816277    1.866735
     32          1           0        8.438755    1.802404    2.968761
     33          1           0        9.331855    2.894683    1.874579
     34          1           0        8.746218    1.318630    1.273691
     35          1           0        5.170207    3.936306    0.838527
     36          1           0        2.933660    2.862809    0.746456
     37          1           0        1.478115    0.982380    1.502510
     38          1           0        2.183485   -0.530001    2.067921
     39          1           0        2.103326    0.378273   -0.857914
     40          1           0        2.825137   -1.127888   -0.276203
     41          1           0       -0.802111   -6.979941    1.191406
     42          1           0       -1.662543   -6.215743    2.548020
     43          1           0       -2.342823   -6.115966    0.901104
     44          1           0        1.073868   -3.841843    1.671828
     45          1           0        0.450687   -4.879151    2.986292
     46          1           0        1.241506   -5.607558    1.573095
     47          1           0        0.106274    1.037947   -2.013686
     48          1           0       -0.736188    1.561600   -0.549585
     49          1           0       -2.366877    1.658113   -2.327422
     50          1           0       -1.899187    0.068958   -2.964534
     51          1           0       -5.070176   -0.334455   -1.026236
     52          1           0       -4.533927   -0.147144   -2.693564
     53          1           0       -4.344652    2.457279    0.408741
     54          1           0       -6.333769    4.626288   -3.908367
     55          1           0       -7.404903    4.846523   -2.498692
     56          1           0       -5.849972    5.710083   -2.577102
     57          1           0       -5.714181    2.155492   -3.670979
     58          1           0       -3.474581   -1.693796   -0.104320
     59          1           0       -3.006561   -1.989171   -1.771291
     60          1           0        4.667621   -0.826047    2.097442
     61          1           0        6.879574    0.229709    2.191223
 ---------------------------------------------------------------------

 SCF Done:  E(RB3LYP) =  -1373.43355274     A.U. after   16 cycles

 Excitation energies and oscillator strengths:

 Excited state symmetry could not be determined.
 Excited State   1:      Triplet-?Sym    3.6788 eV  337.02 nm  f=0.0000  <S**2>=2.000
     105 ->115        -0.38877
     110 ->116         0.10849
     112 ->114         0.23930
     112 ->115         0.15878
     112 ->116        -0.46790
 This state for optimization and/or second-order correction.
 Total Energy, E(TD-HF/TD-DFT) =  -1373.29835843
 Copying the excited state density for this state as the 1-particle RhoCI density.

 Excited state symmetry could not be determined.
 Excited State   2:      Triplet-?Sym    3.9678 eV  312.47 nm  f=0.0000  <S**2>=2.000
     106 ->114         0.34514
     108 ->114        -0.35281
     109 ->114        -0.16161
     110 ->114         0.27345
     110 ->118        -0.15744
     111 ->114         0.23696

 Excited state symmetry could not be determined.
 Excited State   3:      Singlet-?Sym    4.7112 eV  263.17 nm  f=0.0091  <S**2>=0.000
     108 ->114        -0.15506
     113 ->114         0.66843
     113 ->115        -0.10173

 Excited state symmetry could not be determined.
 Excited State   4:      Singlet-?Sym    4.8229 eV  257.08 nm  f=0.0126  <S**2>=0.000
     106 ->114        -0.24882
     108 ->114        -0.53770
     108 ->115         0.11079
     108 ->116        -0.12598
     110 ->114        -0.16675
     111 ->114        -0.14905
     113 ->114        -0.18308

 Alpha  occ. eigenvalues --  -19.18064 -19.09257 -14.40834 -14.40444 -14.35235
 Alpha  occ. eigenvalues --  -14.34558 -14.33567 -14.31849 -10.27510 -10.24969
 Alpha  occ. eigenvalues --  -10.24432 -10.23381 -10.22921 -10.21470 -10.21295
 Alpha  occ. eigenvalues --  -10.20899 -10.20663 -10.20541 -10.20143 -10.19910
 Alpha  occ. eigenvalues --  -10.19890 -10.19842 -10.19660 -10.19435 -10.19367
 Alpha  occ. eigenvalues --  -10.19305 -10.19137 -10.19029 -10.18754 -10.17605
 Alpha  occ. eigenvalues --  -10.17509  -1.06644  -1.04563  -1.03725  -1.01305
 Alpha  occ. eigenvalues --   -0.92063  -0.91519  -0.86021  -0.84406  -0.83321
 Alpha  occ. eigenvalues --   -0.81025  -0.78439  -0.77675  -0.75244  -0.75078
 Alpha  occ. eigenvalues --   -0.73590  -0.71602  -0.70969  -0.69885  -0.68622
 Alpha  occ. eigenvalues --   -0.67149  -0.64948  -0.64383  -0.61469  -0.61087
 Alpha  occ. eigenvalues --   -0.58690  -0.57809  -0.56967  -0.56349  -0.54422
 Alpha  occ. eigenvalues --   -0.53575  -0.53177  -0.51477  -0.50266  -0.49481
 Alpha  occ. eigenvalues --   -0.48694  -0.47259  -0.47126  -0.46845  -0.46704
 Alpha  occ. eigenvalues --   -0.46090  -0.45657  -0.45425  -0.44917  -0.44814
 Alpha  occ. eigenvalues --   -0.44218  -0.43785  -0.43324  -0.42380  -0.42138
 Alpha  occ. eigenvalues --   -0.41520  -0.41072  -0.40700  -0.40030  -0.39415
 Alpha  occ. eigenvalues --   -0.39228  -0.38905  -0.38461  -0.38368  -0.37965
 Alpha  occ. eigenvalues --   -0.37351  -0.37083  -0.37036  -0.36569  -0.36121
 Alpha  occ. eigenvalues --   -0.36081  -0.35226  -0.34997  -0.34149  -0.33326
 Alpha  occ. eigenvalues --   -0.32753  -0.31653  -0.28295  -0.27758  -0.25398
 Alpha  occ. eigenvalues --   -0.24451  -0.24211  -0.23573  -0.23069  -0.22668
 Alpha  occ. eigenvalues --   -0.22367  -0.21729  -0.20704
 Alpha virt. eigenvalues --   -0.01032  -0.00465   0.00894   0.02499   0.04473
 Alpha virt. eigenvalues --    0.06702   0.07968   0.09239   0.10019   0.10274
 Alpha virt. eigenvalues --    0.10546   0.10851   0.11639   0.12009   0.12084

 Mulliken charges:
               1
     1  C   -0.215369
     2  O   -0.506376
     3  C    0.374300
     4  C   -0.169962
     5  C   -0.187703
     6  C    0.166157
     7  C   -0.356677
     8  C   -0.140648
     9  N   -0.324323
    10  N   -0.422282
    11  C    0.233956
    12  C    0.605775
    13  O   -0.554965
    14  N   -0.436357
    15  C   -0.318395
    16  C   -0.333475
    17  C   -0.030436
    18  C    0.366119
    19  C   -0.333840
    20  C   -0.136580
    21  N   -0.416739
    22  C   -0.192086
    23  C    0.032515
    24  C    0.019452
    25  N   -0.302774
    26  N   -0.230929
    27  C   -0.303830
    28  C    0.026327
    29  C   -0.164055
    30  C   -0.193412
    31  C   -0.192930
    32  H    0.152613
    33  H    0.170877
    34  H    0.151929
    35  H    0.139533
    36  H    0.125650
    37  H    0.153572
    38  H    0.166964
    39  H    0.160308
    40  H    0.176429
    41  H    0.146305
    42  H    0.147180
    43  H    0.204114
    44  H    0.212628
    45  H    0.142910
    46  H    0.146223
    47  H    0.145996
    48  H    0.165044
    49  H    0.154435
    50  H    0.116909
    51  H    0.155900
    52  H    0.113043
    53  H    0.144668
    54  H    0.162548
    55  H    0.176721
    56  H    0.186491
    57  H    0.150787
    58  H    0.170437
    59  H    0.137652
    60  H    0.129037
    61  H    0.132636
 Sum of Mulliken charges =  -0.00000

 Dipole moment (field-independent basis, Debye):
    X=              3.4714    Y=              1.3753    Z=             -1.4665  Tot=              4.0116
 Quadrupole moment (field-independent basis, Debye-Ang):
   XX=           -153.3339   YY=           -182.3329   ZZ=           -168.0534
   XY=            -14.4754   XZ=             23.0365   YZ=            -18.6191

 Normal termination of Gaussian 16 at Sat Nov  5 12:01:47 2022.
