 Gaussian 16, Revision B.01,
 Gaussian 16:  ES64L-G16RevB.01 20-Dec-2017

 -----------------------------
 #p b3lyp/6-31g(d) opt SCF=XQC
 -----------------------------

 ------------------------------
 Gaussian input prepared by ASE
 ------------------------------
 Symbolic Z-matrix:
 Charge =  0 Multiplicity = 1

 SCF Done:  E(RB3LYP) =  -1373.42506108     A.U. after   15 cycles
 SCF Done:  E(RB3LYP) =  -1373.43018231     A.U. after   12 cycles
 SCF Done:  E(RB3LYP) =  -1373.43221957     A.U. after   12 cycles
 SCF Done:  E(RB3LYP) =  -1373.43298099     A.U. after   12 cycles
 SCF Done:  E(RB3LYP) =  -1373.43309496     A.U. after   11 cycles
 SCF Done:  E(RB3LYP) =  -1373.43317451     A.U. after   10 cycles
 SCF Done:  E(RB3LYP) =  -1373.43321362     A.U. after   10 cycles
 SCF Done:  E(RB3LYP) =  -1373.43324693     A.U. after   11 cycles
 SCF Done:  E(RB3LYP) =  -1373.43327648     A.U. after   11 cycles
 SCF Done:  E(RB3LYP) =  -1373.43329214     A.U. after   11 cycles
 SCF Done:  E(RB3LYP) =  -1373.43353288     A.U. after   10 cycles
 SCF Done:  E(RB3LYP) =  -1373.43354644     A.U. after   10 cycles
 SCF Done:  E(RB3LYP) =  -1373.43355041     A.U. after    9 cycles
 SCF Done:  E(RB3LYP) =  -1373.43355349     A.U. after    9 cycles
 SCF Done:  E(RB3LYP) =  -1373.43355418     A.U. after    8 cycles
 SCF Done:  E(RB3LYP) =  -1373.43355474     A.U. after    8 cycles
 SCF Done:  E(RB3LYP) =  -1373.43355487     A.U. after    7 cycles
 SCF Done:  E(RB3LYP) =  -1373.43355489     A.U. after    6 cycles
 SCF Done:  E(RB3LYP) =  -1373.43355495     A.U. after    6 cycles
 SCF Done:  E(RB3LYP) =  -1373.43355497     A.U. after    6 cycles
 Optimization completed.
    -- Stationary point found.

                         Standard orientation:
 ---------------------------------------------------------------------
 Center     Atomic      Atomic             Coordinates (Angstroms)
 Number     Number       Type             X           Y           Z
 ---------------------------------------------------------------------
      1          6           0       -8.715208   -2.454806   -0.190636
      2          8           0       -7.457185   -3.103973   -0.103137
      3          6           0       -6.344244   -2.333511    0.076860
      4          6           0       -5.129144   -3.028800    0.162711
      5          6           0       -3.940916   -2.334111    0.348328
      6          6           0       -3.920023   -0.933903    0.455605
      7          6           0       -2.617892   -0.180893    0.614590
      8          6           0       -2.008647    0.209974   -0.748381
      9          7           0       -0.764938    0.954407   -0.617316
     10          7           0       -0.813235    2.276237   -0.358111
     11          6           0        0.465105    2.661593   -0.214583
     12          6           0        0.962313    4.050488    0.024383
     13          8           0        2.181044    4.230839   -0.088918
     14          7           0        0.118994    5.085098    0.348952
     15          6           0        0.702581    6.404968    0.543749
     16          6           0       -1.306049    5.008010    0.633802
     17          6           0        1.342681    1.556507   -0.378342
     18          6           0        0.517059    0.482638   -0.631655
     19          6           0        0.994707   -0.909287   -0.893872
     20          6           0        2.498091   -0.831022   -1.219478
     21          7           0        3.196731   -0.008334   -0.231490
     22          6           0        4.651268   -0.176471   -0.281991
     23          6           0        5.098286   -1.543691    0.151553
     24          6           0        4.730002   -2.255109    1.319848
     25          7           0        5.336630   -3.438442    1.404180
     26          7           0        6.101229   -3.509361    0.290984
     27          6           0        6.972965   -4.650019    0.092897
     28          6           0        5.987102   -2.395484   -0.481840
     29          6           0        2.833968    1.415212   -0.333294
     30          6           0       -5.140414   -0.258410    0.369086
     31          6           0       -6.347295   -0.938132    0.182283
     32          1           0       -8.949799   -1.901909    0.728767
     33          1           0       -9.452157   -3.247553   -0.331805
     34          1           0       -8.756392   -1.765873   -1.044907
     35          1           0       -5.144534   -4.111650    0.087020
     36          1           0       -3.008751   -2.890882    0.420453
     37          1           0       -1.889853   -0.788748    1.165661
     38          1           0       -2.769406    0.737753    1.192403
     39          1           0       -1.806969   -0.683861   -1.346225
     40          1           0       -2.706870    0.838180   -1.307619
     41          1           0        0.174053    7.141971   -0.074808
     42          1           0        0.615867    6.715057    1.594709
     43          1           0        1.753690    6.370766    0.263585
     44          1           0       -1.678375    4.000773    0.472134
     45          1           0       -1.497356    5.310650    1.673647
     46          1           0       -1.855071    5.697895   -0.021989
     47          1           0        0.458386   -1.376321   -1.730751
     48          1           0        0.845132   -1.549361   -0.013768
     49          1           0        2.929314   -1.835361   -1.198486
     50          1           0        2.629252   -0.435298   -2.247221
     51          1           0        5.076524    0.580960    0.389632
     52          1           0        5.060567    0.045804   -1.288458
     53          1           0        4.032731   -1.949378    2.088811
     54          1           0        7.261331   -4.702815   -0.959688
     55          1           0        7.874706   -4.569663    0.710360
     56          1           0        6.434840   -5.559419    0.368499
     57          1           0        6.535616   -2.290934   -1.408290
     58          1           0        3.245485    1.949040    0.528600
     59          1           0        3.282113    1.892360   -1.226543
     60          1           0       -5.158674    0.826111    0.455493
     61          1           0       -7.271926   -0.374917    0.127089
 ---------------------------------------------------------------------

 The electronic state is 1-A.
 Alpha  occ. eigenvalues --  -19.18064 -19.09257 -14.40834 -14.40444 -14.35235
 Alpha  occ. eigenvalues --  -14.34558 -14.33567 -14.31849 -10.27510 -10.24969
 Alpha  occ. eigenvalues --  -10.24432 -10.23381 -10.22921 -10.21470 -10.21295
 Alpha  occ. eigenvalues --  -10.20899 -10.20663 -10.20541 -10.20143 -10.19910
 Alpha  occ. eigenvalues --  -10.19890 -10.19842 -10.19660 -10.19435 -10.19367
 Alpha  occ. eigenvalues --  -10.19305 -10.19137 -10.19029 -10.18754 -10.17605
 Alpha  occ. eigenvalues --  -10.17509  -1.06644  -1.04563  -1.03725  -1.01305
 Alpha  occ. eigenvalues --   -0.92063  -0.91519  -0.86021  -0.84406  -0.83321
 Alpha  occ. eigenvalues --   -0.81025  -0.78439  -0.77675  -0.75244  -0.75078
 Alpha  occ. eigenvalues --   -0.73590  -0.71602  -0.70969  -0.69885  -0.68622
 Alpha  occ. eigenvalues --   -0.67149  -0.64948  -0.64383  -0.61469  -0.61087
 Alpha  occ. eigenvalues --   -0.58690  -0.57809  -0.56967  -0.56349  -0.54422
 Alpha  occ. eigenvalues --   -0.53575  -0.53177  -0.51477  -0.50266  -0.49481
 Alpha  occ. eigenvalues --   -0.48694  -0.47259  -0.47126  -0.46845  -0.46704
 Alpha  occ. eigenvalues --   -0.46090  -0.45657  -0.45425  -0.44917  -0.44814
 Alpha  occ. eigenvalues --   -0.44218  -0.43785  -0.43324  -0.42380  -0.42138
 Alpha  occ. eigenvalues --   -0.41520  -0.41072  -0.40700  -0.40030  -0.39415
 Alpha  occ. eigenvalues --   -0.39228  -0.38905  -0.38461  -0.38368  -0.37965
 Alpha  occ. eigenvalues --   -0.37351  -0.37083  -0.37036  -0.36569  -0.36121
 Alpha  occ. eigenvalues --   -0.36081  -0.35226  -0.34997  -0.34149  -0.33326
 Alpha  occ. eigenvalues --   -0.32753  -0.31653  -0.28295  -0.27758  -0.25398
 Alpha  occ. eigenvalues --   -0.24451  -0.24211  -0.23573  -0.23069  -0.22668
 Alpha  occ. eigenvalues --   -0.22367  -0.21729  -0.20704
 Alpha virt. eigenvalues --   -0.01033  -0.00465   0.00894   0.02499   0.04473
 Alpha virt. eigenvalues --    0.06702   0.07968   0.09239   0.10019   0.10274
 Alpha virt. eigenvalues --    0.10546   0.10851   0.11639   0.12009   0.12084

 Mulliken charges:
               1
     1  C   -0.215368
     2  O   -0.506375
     3  C    0.374307
     4  C   -0.169960
     5  C   -0.187714
     6  C    0.166163
     7  C   -0.356675
     8  C   -0.140653
     9  N   -0.324317
    10  N   -0.422279
    11  C    0.233930
    12  C    0.605764
    13  O   -0.554966
    14  N   -0.436345
    15  C   -0.318364
    16  C   -0.333485
    17  C   -0.030420
    18  C    0.366119
    19  C   -0.333844
    20  C   -0.136578
    21  N   -0.416727
    22  C   -0.192088
    23  C    0.032507
    24  C    0.019452
    25  N   -0.302771
    26  N   -0.230925
    27  C   -0.303828
    28  C    0.026323
    29  C   -0.164062
    30  C   -0.193408
    31  C   -0.192938
    32  H    0.152612
    33  H    0.170877
    34  H    0.151929
    35  H    0.139533
    36  H    0.125651
    37  H    0.153570
    38  H    0.166965
    39  H    0.160309
    40  H    0.176429
    41  H    0.146298
    42  H    0.147173
    43  H    0.204108
    44  H    0.212628
    45  H    0.142913
    46  H    0.146225
    47  H    0.145996
    48  H    0.165043
    49  H    0.154433
    50  H    0.116907
    51  H    0.155901
    52  H    0.113044
    53  H    0.144668
    54  H    0.162547
    55  H    0.176721
    56  H    0.186490
    57  H    0.150788
    58  H    0.170439
    59  H    0.137653
    60  H    0.129035
    61  H    0.132637
 Sum of Mulliken charges =  -0.00000

 Dipole moment (field-independent basis, Debye):
    X=             -2.8482    Y=             -1.9062    Z=             -2.0850  Tot=              4.0116
 Quadrupole moment (field-independent basis, Debye-Ang):
   XX=           -140.3166   YY=           -178.0775   ZZ=           -184.9720
   XY=            -20.8684   XZ=            -11.0770   YZ=             12.7728

 Normal termination of Gaussian 16 at Fri Nov  4 20:49:09 2022.
