 Gaussian 16, Revision B.01,
 Gaussian 16:  ES64L-G16RevB.01 20-Dec-2017

 -------------------------------------------------------------------
 #p b3lyp/6-31g(d) 6D 10F nosymm GFInput td=(50-50,nstate=2) SCF=XQC
 -------------------------------------------------------------------

 ------------------------------
 Gaussian input prepared by ASE
 ------------------------------
 Symbolic Z-matrix:
 Charge =  0 Multiplicity = 1

                          Input orientation:
 ---------------------------------------------------------------------
 Center     Atomic      Atomic             Coordinates (Angstroms)
 Number     Number       Type             X           Y           Z
 ---------------------------------------------------------------------
      1          6           0       -4.864351    1.148505    1.850872
      2          6           0       -3.609385    0.696872    1.142350
      3          6           0       -2.379862    0.702827    1.809252
      4          6           0       -1.206144    0.294318    1.177950
      5          6           0       -1.235630   -0.134218   -0.151394
      6          6           0        0.040052   -0.600163   -0.866767
      7          6           0        1.178047    0.370853   -0.701127
      8          6           0        2.273436    0.131906    0.064679
      9          7           0        2.474580   -1.064193    0.725713
     10          6           0        1.627459   -2.121456    0.412103
     11          7           0        1.999188   -3.354338    0.914777
     12          6           0        1.287091   -4.535027    0.692795
     13          8           0        1.627999   -5.597672    1.178631
     14          7           0        0.194943   -4.350693   -0.126463
     15          6           0       -0.265425   -3.142882   -0.702644
     16          8           0       -1.239811   -3.159455   -1.440378
     17          6           0        0.510400   -1.961089   -0.356960
     18          6           0        3.203218    1.283636    0.077110
     19          6           0        4.414188    1.508110    0.710993
     20          6           0        5.055126    2.743956    0.494992
     21          6           0        4.489483    3.711403   -0.331719
     22          6           0        3.257077    3.474726   -0.971577
     23          6           0        2.631910    2.264472   -0.754678
     24          6           0        1.323489    1.722805   -1.291896
     25          8           0        0.572651    2.287794   -2.067755
     26          6           0       -2.463685   -0.145113   -0.818755
     27          6           0       -3.648930    0.262046   -0.199535
     28          6           0       -4.950174    0.232886   -0.966389
     29          1           0       -5.620695    0.353325    1.886147
     30          1           0       -4.649545    1.449076    2.881094
     31          1           0       -5.332132    2.003293    1.344821
     32          1           0       -2.341562    1.037528    2.843865
     33          1           0       -0.266609    0.317978    1.724940
     34          1           0       -0.209768   -0.698342   -1.930339
     35          1           0        3.394344   -1.268777    1.092501
     36          1           0        2.784218   -3.454795    1.544308
     37          1           0       -0.345359   -5.180372   -0.342888
     38          1           0        4.872148    0.769493    1.365417
     39          1           0        6.004873    2.941966    0.983813
     40          1           0        5.002937    4.656678   -0.482384
     41          1           0        2.802003    4.218673   -1.619211
     42          1           0       -2.498455   -0.494255   -1.847364
     43          1           0       -5.691577   -0.417677   -0.484091
     44          1           0       -5.403820    1.230492   -1.035040
     45          1           0       -4.797942   -0.135097   -1.985216
 ---------------------------------------------------------------------

 SCF Done:  E(RB3LYP) =  -1238.55927411     A.U. after   16 cycles

 Excitation energies and oscillator strengths:

 Excited state symmetry could not be determined.
 Excited State   1:      Triplet-?Sym    1.9321 eV  641.70 nm  f=0.0000  <S**2>=2.000
      94 -> 98        -0.20777
      96 -> 98         0.25216
      97 -> 98         0.61076
 This state for optimization and/or second-order correction.
 Total Energy, E(TD-HF/TD-DFT) =  -1238.48827008
 Copying the excited state density for this state as the 1-particle RhoCI density.

 Excited state symmetry could not be determined.
 Excited State   2:      Triplet-?Sym    2.5229 eV  491.43 nm  f=0.0000  <S**2>=2.000
      93 -> 98         0.60365
      94 -> 98        -0.19636
      95 -> 98         0.17545
      96 -> 98         0.17765
      97 -> 98        -0.10673

 Excited state symmetry could not be determined.
 Excited State   3:      Singlet-?Sym    2.7540 eV  450.20 nm  f=0.0182  <S**2>=0.000
      96 -> 98         0.14983
      97 -> 98         0.68178

 Excited state symmetry could not be determined.
 Excited State   4:      Singlet-?Sym    2.9193 eV  424.71 nm  f=0.0247  <S**2>=0.000
      93 -> 98         0.34131
      94 -> 98        -0.14766
      95 -> 98         0.17189
      96 -> 98         0.56210
      97 -> 98        -0.10126

 Alpha  occ. eigenvalues --  -19.14205 -19.13438 -19.12344 -14.41992 -14.41390
 Alpha  occ. eigenvalues --  -14.38862 -10.34517 -10.31261 -10.30383 -10.27682
 Alpha  occ. eigenvalues --  -10.26581 -10.22512 -10.22069 -10.21527 -10.21450
 Alpha  occ. eigenvalues --  -10.21196 -10.21098 -10.20877 -10.20634 -10.19966
 Alpha  occ. eigenvalues --  -10.18425 -10.18351 -10.18295 -10.17669 -10.17665
 Alpha  occ. eigenvalues --  -10.17593 -10.17317 -10.17117  -1.08153  -1.04045
 Alpha  occ. eigenvalues --   -1.03748  -1.02538  -0.96784  -0.92744  -0.89185
 Alpha  occ. eigenvalues --   -0.85595  -0.83714  -0.82178  -0.77606  -0.77053
 Alpha  occ. eigenvalues --   -0.75296  -0.74845  -0.71065  -0.70666  -0.67958
 Alpha  occ. eigenvalues --   -0.67073  -0.65558  -0.65430  -0.63027  -0.61371
 Alpha  occ. eigenvalues --   -0.58731  -0.58514  -0.57714  -0.55853  -0.55206
 Alpha  occ. eigenvalues --   -0.53128  -0.52554  -0.49781  -0.49544  -0.48632
 Alpha  occ. eigenvalues --   -0.47920  -0.47201  -0.46221  -0.46041  -0.44960
 Alpha  occ. eigenvalues --   -0.44773  -0.44305  -0.43537  -0.42770  -0.42365
 Alpha  occ. eigenvalues --   -0.41993  -0.41445  -0.40975  -0.39906  -0.39550
 Alpha  occ. eigenvalues --   -0.39071  -0.39011  -0.38738  -0.38018  -0.37618
 Alpha  occ. eigenvalues --   -0.37150  -0.36698  -0.36080  -0.34895  -0.33177
 Alpha  occ. eigenvalues --   -0.32778  -0.32194  -0.29800  -0.28953  -0.28433
 Alpha  occ. eigenvalues --   -0.27281  -0.26335  -0.25336  -0.24505  -0.23048
 Alpha  occ. eigenvalues --   -0.22039  -0.21748
 Alpha virt. eigenvalues --   -0.09040  -0.03128  -0.02344   0.00619   0.01084
 Alpha virt. eigenvalues --    0.02077   0.02262   0.03093   0.06397   0.08949
 Alpha virt. eigenvalues --    0.09346   0.10147   0.10354   0.11361   0.12284

 Mulliken charges:
               1
     1  C   -0.532520
     2  C    0.134057
     3  C   -0.186133
     4  C   -0.189972
     5  C    0.215814
     6  C   -0.304204
     7  C    0.044911
     8  C    0.242293
     9  N   -0.805450
    10  C    0.590843
    11  N   -0.761143
    12  C    0.771556
    13  O   -0.501745
    14  N   -0.701542
    15  C    0.608387
    16  O   -0.506550
    17  C    0.013195
    18  C    0.124564
    19  C   -0.203479
    20  C   -0.129898
    21  C   -0.132618
    22  C   -0.185665
    23  C    0.050226
    24  C    0.346135
    25  O   -0.462321
    26  C   -0.229249
    27  C    0.131834
    28  C   -0.532518
    29  H    0.158569
    30  H    0.151476
    31  H    0.159318
    32  H    0.115124
    33  H    0.114031
    34  H    0.175316
    35  H    0.334597
    36  H    0.346357
    37  H    0.357005
    38  H    0.122742
    39  H    0.140881
    40  H    0.142901
    41  H    0.162446
    42  H    0.135973
    43  H    0.157193
    44  H    0.157083
    45  H    0.160183
 Sum of Mulliken charges =  -0.00000

 Dipole moment (field-independent basis, Debye):
    X=              5.1024    Y=              1.6587    Z=              3.3405  Tot=              6.3202
 Quadrupole moment (field-independent basis, Debye-Ang):
   XX=           -128.1577   YY=           -174.4009   ZZ=           -161.5223
   XY=              3.5282   XZ=              4.1700   YZ=              4.2439

 Normal termination of Gaussian 16 at Sat Nov  5 12:07:20 2022.
