 Gaussian 16, Revision B.01,
 Gaussian 16:  ES64L-G16RevB.01 20-Dec-2017

 -----------------------------
 #p b3lyp/6-31g(d) opt SCF=XQC
 -----------------------------

 ------------------------------
 Gaussian input prepared by ASE
 ------------------------------
 Symbolic Z-matrix:
 Charge =  0 Multiplicity = 1

 SCF Done:  E(RB3LYP) =  -1238.55311450     A.U. after   17 cycles
 SCF Done:  E(RB3LYP) =  -1238.55894204     A.U. after   13 cycles
 SCF Done:  E(RB3LYP) =  -1238.55908349     A.U. after   12 cycles
 SCF Done:  E(RB3LYP) =  -1238.55908304     A.U. after   11 cycles
 SCF Done:  E(RB3LYP) =  -1238.55913926     A.U. after   11 cycles
 SCF Done:  E(RB3LYP) =  -1238.55915478     A.U. after   10 cycles
 SCF Done:  E(RB3LYP) =  -1238.55921208     A.U. after   12 cycles
 SCF Done:  E(RB3LYP) =  -1238.55923711     A.U. after   12 cycles
 SCF Done:  E(RB3LYP) =  -1238.55925292     A.U. after   10 cycles
 SCF Done:  E(RB3LYP) =  -1238.55925913     A.U. after    9 cycles
 SCF Done:  E(RB3LYP) =  -1238.55926225     A.U. after   10 cycles
 SCF Done:  E(RB3LYP) =  -1238.55926666     A.U. after   10 cycles
 SCF Done:  E(RB3LYP) =  -1238.55926967     A.U. after   10 cycles
 SCF Done:  E(RB3LYP) =  -1238.55927124     A.U. after   10 cycles
 SCF Done:  E(RB3LYP) =  -1238.55927148     A.U. after    8 cycles
 SCF Done:  E(RB3LYP) =  -1238.55927152     A.U. after    7 cycles
 Optimization completed.
    -- Stationary point found.

                         Standard orientation:
 ---------------------------------------------------------------------
 Center     Atomic      Atomic             Coordinates (Angstroms)
 Number     Number       Type             X           Y           Z
 ---------------------------------------------------------------------
      1          6           0        4.291978   -3.266089    1.907900
      2          6           0        3.287717   -2.406235    1.177811
      3          6           0        2.189512   -1.869599    1.857877
      4          6           0        1.246224   -1.075706    1.207510
      5          6           0        1.381145   -0.797454   -0.154856
      6          6           0        0.363254    0.083226   -0.892778
      7          6           0       -1.057568   -0.336599   -0.627541
      8          6           0       -1.930982    0.377733    0.127648
      9          7           0       -1.609661    1.601246    0.682488
     10          6           0       -0.428160    2.204768    0.265852
     11          7           0       -0.256018    3.517943    0.661834
     12          6           0        0.854992    4.295157    0.327197
     13          8           0        0.987027    5.439212    0.721116
     14          7           0        1.744610    3.627931   -0.486031
     15          6           0        1.660231    2.296639   -0.958550
     16          8           0        2.525464    1.866221   -1.706926
     17          6           0        0.496156    1.553318   -0.499817
     18          6           0       -3.239845   -0.302056    0.253718
     19          6           0       -4.409325    0.025019    0.920039
     20          6           0       -5.497496   -0.864439    0.822455
     21          6           0       -5.401690   -2.037322    0.077791
     22          6           0       -4.207997   -2.362268   -0.595830
     23          6           0       -3.144399   -1.489820   -0.494886
     24          6           0       -1.755163   -1.558673   -1.094265
     25          8           0       -1.327471   -2.433989   -1.826270
     26          6           0        2.479943   -1.329026   -0.835797
     27          6           0        3.433767   -2.127214   -0.197728
     28          6           0        4.602249   -2.678931   -0.980294
     29          1           0        5.302566   -2.839101    1.863113
     30          1           0        4.023979   -3.376234    2.963307
     31          1           0        4.357800   -4.272482    1.473838
     32          1           0        2.069967   -2.081101    2.918485
     33          1           0        0.401199   -0.680242    1.766103
     34          1           0        0.581453   -0.008058   -1.963894
     35          1           0       -2.354399    2.183572    1.041121
     36          1           0       -0.906287    3.971373    1.289707
     37          1           0        2.559077    4.153530   -0.781873
     38          1           0       -4.505313    0.932685    1.512055
     39          1           0       -6.423808   -0.628614    1.338697
     40          1           0       -6.254609   -2.707268    0.017932
     41          1           0       -4.116450   -3.273131   -1.180574
     42          1           0        2.602266   -1.102463   -1.891663
     43          1           0        5.562657   -2.343971   -0.566844
     44          1           0        4.618895   -3.776766   -0.965874
     45          1           0        4.561092   -2.359705   -2.025759
 ---------------------------------------------------------------------

 The electronic state is 1-A.
 Alpha  occ. eigenvalues --  -19.14205 -19.13438 -19.12344 -14.41992 -14.41390
 Alpha  occ. eigenvalues --  -14.38862 -10.34517 -10.31261 -10.30383 -10.27682
 Alpha  occ. eigenvalues --  -10.26581 -10.22512 -10.22069 -10.21527 -10.21450
 Alpha  occ. eigenvalues --  -10.21196 -10.21098 -10.20877 -10.20634 -10.19966
 Alpha  occ. eigenvalues --  -10.18425 -10.18351 -10.18295 -10.17668 -10.17665
 Alpha  occ. eigenvalues --  -10.17593 -10.17317 -10.17117  -1.08153  -1.04045
 Alpha  occ. eigenvalues --   -1.03748  -1.02538  -0.96784  -0.92744  -0.89185
 Alpha  occ. eigenvalues --   -0.85595  -0.83714  -0.82178  -0.77606  -0.77053
 Alpha  occ. eigenvalues --   -0.75296  -0.74845  -0.71065  -0.70666  -0.67958
 Alpha  occ. eigenvalues --   -0.67073  -0.65558  -0.65430  -0.63027  -0.61371
 Alpha  occ. eigenvalues --   -0.58731  -0.58514  -0.57714  -0.55853  -0.55206
 Alpha  occ. eigenvalues --   -0.53128  -0.52554  -0.49781  -0.49544  -0.48632
 Alpha  occ. eigenvalues --   -0.47920  -0.47201  -0.46221  -0.46041  -0.44960
 Alpha  occ. eigenvalues --   -0.44773  -0.44305  -0.43537  -0.42770  -0.42365
 Alpha  occ. eigenvalues --   -0.41993  -0.41445  -0.40975  -0.39906  -0.39550
 Alpha  occ. eigenvalues --   -0.39071  -0.39011  -0.38738  -0.38018  -0.37618
 Alpha  occ. eigenvalues --   -0.37150  -0.36698  -0.36080  -0.34895  -0.33177
 Alpha  occ. eigenvalues --   -0.32778  -0.32194  -0.29799  -0.28953  -0.28433
 Alpha  occ. eigenvalues --   -0.27281  -0.26335  -0.25336  -0.24505  -0.23048
 Alpha  occ. eigenvalues --   -0.22039  -0.21748
 Alpha virt. eigenvalues --   -0.09040  -0.03128  -0.02344   0.00619   0.01084
 Alpha virt. eigenvalues --    0.02077   0.02262   0.03093   0.06397   0.08949
 Alpha virt. eigenvalues --    0.09346   0.10147   0.10354   0.11361   0.12284

 Mulliken charges:
               1
     1  C   -0.532522
     2  C    0.134080
     3  C   -0.186136
     4  C   -0.189991
     5  C    0.215837
     6  C   -0.304214
     7  C    0.044920
     8  C    0.242317
     9  N   -0.805472
    10  C    0.590837
    11  N   -0.761154
    12  C    0.771566
    13  O   -0.501744
    14  N   -0.701541
    15  C    0.608389
    16  O   -0.506550
    17  C    0.013194
    18  C    0.124549
    19  C   -0.203460
    20  C   -0.129902
    21  C   -0.132613
    22  C   -0.185653
    23  C    0.050209
    24  C    0.346137
    25  O   -0.462324
    26  C   -0.229249
    27  C    0.131821
    28  C   -0.532520
    29  H    0.158568
    30  H    0.151475
    31  H    0.159317
    32  H    0.115124
    33  H    0.114033
    34  H    0.175315
    35  H    0.334598
    36  H    0.346357
    37  H    0.357005
    38  H    0.122742
    39  H    0.140880
    40  H    0.142900
    41  H    0.162445
    42  H    0.135972
    43  H    0.157193
    44  H    0.157084
    45  H    0.160184
 Sum of Mulliken charges =  -0.00000

 Dipole moment (field-independent basis, Debye):
    X=             -5.1791    Y=              0.7780    Z=              3.5376  Tot=              6.3201
 Quadrupole moment (field-independent basis, Debye-Ang):
   XX=           -135.5604   YY=           -170.5044   ZZ=           -160.5934
   XY=            -12.7103   XZ=             -5.1013   YZ=             -2.3253

 Normal termination of Gaussian 16 at Fri Nov  4 20:07:48 2022.
