 Gaussian 16, Revision B.01,
 Gaussian 16:  ES64L-G16RevB.01 20-Dec-2017

 -----------------------------
 #p b3lyp/6-31g(d) opt SCF=XQC
 -----------------------------

 ------------------------------
 Gaussian input prepared by ASE
 ------------------------------
 Symbolic Z-matrix:
 Charge =  0 Multiplicity = 1

 SCF Done:  E(RB3LYP) =  -2283.75780334     A.U. after   15 cycles
 SCF Done:  E(RB3LYP) =  -2283.76643918     A.U. after   12 cycles
 SCF Done:  E(RB3LYP) =  -2283.76729819     A.U. after   12 cycles
 SCF Done:  E(RB3LYP) =  -2283.76745857     A.U. after   11 cycles
 SCF Done:  E(RB3LYP) =  -2283.76752042     A.U. after   11 cycles
 SCF Done:  E(RB3LYP) =  -2283.76759326     A.U. after   12 cycles
 SCF Done:  E(RB3LYP) =  -2283.76768657     A.U. after   13 cycles
 SCF Done:  E(RB3LYP) =  -2283.76788717     A.U. after   12 cycles
 SCF Done:  E(RB3LYP) =  -2283.76802480     A.U. after   12 cycles
 SCF Done:  E(RB3LYP) =  -2283.76811955     A.U. after   12 cycles
 SCF Done:  E(RB3LYP) =  -2283.76825252     A.U. after   11 cycles
 SCF Done:  E(RB3LYP) =  -2283.76825556     A.U. after    9 cycles
 SCF Done:  E(RB3LYP) =  -2283.76825929     A.U. after   10 cycles
 SCF Done:  E(RB3LYP) =  -2283.76826199     A.U. after   10 cycles
 SCF Done:  E(RB3LYP) =  -2283.76826355     A.U. after   10 cycles
 SCF Done:  E(RB3LYP) =  -2283.76826446     A.U. after   10 cycles
 SCF Done:  E(RB3LYP) =  -2283.76826472     A.U. after    8 cycles
 SCF Done:  E(RB3LYP) =  -2283.76826481     A.U. after    7 cycles
 SCF Done:  E(RB3LYP) =  -2283.76826487     A.U. after    7 cycles
 SCF Done:  E(RB3LYP) =  -2283.76826490     A.U. after    7 cycles
 Optimization completed.
    -- Stationary point found.

                         Standard orientation:
 ---------------------------------------------------------------------
 Center     Atomic      Atomic             Coordinates (Angstroms)
 Number     Number       Type             X           Y           Z
 ---------------------------------------------------------------------
      1          6           0      -11.207787    2.364739    0.776884
      2          8           0       -9.872720    1.852216    0.632146
      3          6           0       -9.795516    0.541478    0.309566
      4          8           0      -10.762847   -0.176916    0.147880
      5          6           0       -8.399086    0.091784    0.178430
      6          6           0       -7.249587    0.812618    0.338623
      7          6           0       -6.067756    0.029262    0.128343
      8          6           0       -4.721061    0.422362    0.205921
      9          6           0       -3.711709   -0.505569   -0.038046
     10          7           0       -2.374632   -0.051734    0.057393
     11          6           0       -1.207653   -0.757416   -0.109718
     12          8           0       -1.128441   -1.931440   -0.423978
     13          6           0        0.048199    0.070443    0.205131
     14          8           0        1.016066   -0.254127   -0.773090
     15          6           0        2.279758    0.230886   -0.634147
     16          6           0        3.186279   -0.166632   -1.629127
     17          6           0        4.502478    0.271613   -1.586760
     18          6           0        4.917956    1.105986   -0.543155
     19         16           0        6.600540    1.707809   -0.512009
     20          8           0        7.266235    1.210699   -1.717016
     21          8           0        6.581752    3.134224   -0.168859
     22          7           0        7.266951    0.989105    0.894239
     23          6           0        8.006410   -0.226156    0.855550
     24          6           0        9.292437   -0.267637    1.408195
     25          6           0       10.001927   -1.467225    1.442367
     26          6           0        9.447939   -2.629341    0.904254
     27          6           0        8.169459   -2.583135    0.344654
     28          6           0        7.442076   -1.394761    0.329599
     29          6           0        4.021028    1.514732    0.442636
     30          6           0        2.698407    1.077829    0.403029
     31          6           0       -4.035914   -1.844316   -0.365474
     32          6           0       -5.362541   -2.243790   -0.442674
     33          6           0       -6.379691   -1.315663   -0.197805
     34         16           0       -8.109760   -1.590800   -0.239693
     35          1           0      -11.763673    2.256044   -0.158063
     36          1           0      -11.088260    3.417704    1.033028
     37          1           0      -11.738870    1.832684    1.570510
     38          1           0       -7.249112    1.865046    0.597092
     39          1           0       -4.475097    1.452172    0.457616
     40          1           0       -2.279352    0.932307    0.270094
     41          1           0        0.396535   -0.214771    1.208519
     42          1           0       -0.152159    1.152128    0.207373
     43          1           0        2.832689   -0.815866   -2.423145
     44          1           0        5.211257   -0.019557   -2.354323
     45          1           0        7.725433    1.738783    1.406956
     46          1           0        9.736028    0.640994    1.809120
     47          1           0       10.996284   -1.486444    1.880061
     48          1           0       10.005472   -3.561253    0.921400
     49          1           0        7.725198   -3.482659   -0.072729
     50          1           0        6.437725   -1.374956   -0.079750
     51          1           0        4.349148    2.177913    1.236175
     52          1           0        2.009971    1.405809    1.173019
     53          1           0       -3.236758   -2.546195   -0.556487
     54          1           0       -5.597856   -3.273399   -0.694972
 ---------------------------------------------------------------------

 The electronic state is 1-A.
 Alpha  occ. eigenvalues --  -89.11529 -88.91733 -19.20751 -19.20241 -19.14688
 Alpha  occ. eigenvalues --  -19.14445 -19.14390 -19.14175 -14.40303 -14.37468
 Alpha  occ. eigenvalues --  -10.32908 -10.31849 -10.28044 -10.27851 -10.25732
 Alpha  occ. eigenvalues --  -10.24838 -10.23950 -10.23875 -10.23524 -10.22954
 Alpha  occ. eigenvalues --  -10.22388 -10.21991 -10.21947 -10.21732 -10.21669
 Alpha  occ. eigenvalues --  -10.21550 -10.21331 -10.20968 -10.20489 -10.19624
 Alpha  occ. eigenvalues --  -10.19542 -10.19449 -10.19278 -10.18992  -8.14048
 Alpha  occ. eigenvalues --   -7.97773  -6.10563  -6.10458  -6.10340  -5.94211
 Alpha  occ. eigenvalues --   -5.93848  -5.93407  -1.11242  -1.11064  -1.09986
 Alpha  occ. eigenvalues --   -1.05931  -1.02236  -1.00411  -0.96649  -0.93738
 Alpha  occ. eigenvalues --   -0.90550  -0.88205  -0.84699  -0.84467  -0.80149
 Alpha  occ. eigenvalues --   -0.78723  -0.77605  -0.76946  -0.75557  -0.75050
 Alpha  occ. eigenvalues --   -0.74178  -0.72673  -0.72111  -0.67305  -0.65589
 Alpha  occ. eigenvalues --   -0.64930  -0.63471  -0.61826  -0.61710  -0.61163
 Alpha  occ. eigenvalues --   -0.59029  -0.58178  -0.56769  -0.56560  -0.55261
 Alpha  occ. eigenvalues --   -0.54387  -0.52986  -0.52555  -0.52047  -0.50571
 Alpha  occ. eigenvalues --   -0.50114  -0.49274  -0.49160  -0.48976  -0.48181
 Alpha  occ. eigenvalues --   -0.47380  -0.46855  -0.45708  -0.45356  -0.45155
 Alpha  occ. eigenvalues --   -0.44886  -0.44680  -0.44334  -0.43945  -0.43594
 Alpha  occ. eigenvalues --   -0.42956  -0.42624  -0.42528  -0.42186  -0.41991
 Alpha  occ. eigenvalues --   -0.40657  -0.39606  -0.39126  -0.38977  -0.38383
 Alpha  occ. eigenvalues --   -0.37412  -0.37088  -0.36713  -0.35789  -0.35627
 Alpha  occ. eigenvalues --   -0.35431  -0.35198  -0.34907  -0.33944  -0.32373
 Alpha  occ. eigenvalues --   -0.31566  -0.31132  -0.31023  -0.30920  -0.30120
 Alpha  occ. eigenvalues --   -0.29262  -0.28542  -0.27807  -0.27538  -0.25436
 Alpha  occ. eigenvalues --   -0.24945  -0.24068  -0.22658  -0.22652
 Alpha virt. eigenvalues --   -0.06876  -0.03740  -0.03162  -0.02528  -0.00537
 Alpha virt. eigenvalues --   -0.00419   0.00182   0.01386   0.02723   0.04282
 Alpha virt. eigenvalues --    0.05663   0.07346   0.08164   0.08209   0.08605

 Mulliken charges:
               1
     1  C   -0.219200
     2  O   -0.464413
     3  C    0.632726
     4  O   -0.485375
     5  C   -0.226635
     6  C   -0.141648
     7  C    0.143212
     8  C   -0.251254
     9  C    0.346757
    10  N   -0.723159
    11  C    0.612953
    12  O   -0.478407
    13  C   -0.130644
    14  O   -0.491849
    15  C    0.388718
    16  C   -0.170968
    17  C   -0.150654
    18  C   -0.151852
    19  S    1.223465
    20  O   -0.517238
    21  O   -0.549954
    22  N   -0.807500
    23  C    0.321002
    24  C   -0.171748
    25  C   -0.135594
    26  C   -0.125534
    27  C   -0.142664
    28  C   -0.143457
    29  C   -0.132434
    30  C   -0.189688
    31  C   -0.146780
    32  C   -0.196045
    33  C   -0.128810
    34  S    0.281292
    35  H    0.175507
    36  H    0.166397
    37  H    0.175252
    38  H    0.164346
    39  H    0.128805
    40  H    0.334277
    41  H    0.179911
    42  H    0.145163
    43  H    0.162945
    44  H    0.189360
    45  H    0.357876
    46  H    0.129147
    47  H    0.134676
    48  H    0.131344
    49  H    0.135461
    50  H    0.144198
    51  H    0.172894
    52  H    0.143864
    53  H    0.196795
    54  H    0.155167
 Sum of Mulliken charges =  -0.00000

 Dipole moment (field-independent basis, Debye):
    X=             -2.1756    Y=              2.3096    Z=              4.0594  Tot=              5.1523
 Quadrupole moment (field-independent basis, Debye-Ang):
   XX=           -232.2040   YY=           -206.2067   ZZ=           -207.7132
   XY=            -46.7893   XZ=             14.0748   YZ=             10.2942

 Normal termination of Gaussian 16 at Fri Nov  4 20:19:14 2022.
