 Gaussian 16, Revision B.01,
 Gaussian 16:  ES64L-G16RevB.01 20-Dec-2017

 -------------------------------------------------------------------
 #p b3lyp/6-31g(d) 6D 10F nosymm GFInput td=(50-50,nstate=2) SCF=XQC
 -------------------------------------------------------------------

 ------------------------------
 Gaussian input prepared by ASE
 ------------------------------
 Symbolic Z-matrix:
 Charge =  0 Multiplicity = 1

                          Input orientation:
 ---------------------------------------------------------------------
 Center     Atomic      Atomic             Coordinates (Angstroms)
 Number     Number       Type             X           Y           Z
 ---------------------------------------------------------------------
      1          6           0       11.561460    1.443387   -0.767152
      2          8           0       10.184975    1.029520   -0.761372
      3          6           0        9.956047   -0.201263   -1.272077
      4          8           0       10.826306   -0.927541   -1.711542
      5          6           0        8.526439   -0.553339   -1.230832
      6          6           0        7.476755    0.184953   -0.762110
      7          6           0        6.219937   -0.492752   -0.887467
      8          6           0        4.937516   -0.052665   -0.518885
      9          6           0        3.834014   -0.875889   -0.728529
     10          7           0        2.567932   -0.377371   -0.339474
     11          6           0        1.332897   -0.968195   -0.455113
     12          8           0        1.119946   -2.085332   -0.891027
     13          6           0        0.180370   -0.044914   -0.029816
     14          8           0       -0.741044   -0.836488    0.693672
     15          6           0       -1.933908   -0.291309    1.056048
     16          6           0       -2.803343   -1.154615    1.740572
     17          6           0       -4.046675   -0.701864    2.159350
     18          6           0       -4.426992    0.617228    1.888672
     19         16           0       -6.008913    1.215070    2.466910
     20          8           0       -6.637267    0.131038    3.223452
     21          8           0       -5.823557    2.553623    3.038475
     22          7           0       -6.877705    1.536490    1.024667
     23          6           0       -7.770329    0.593300    0.442626
     24          6           0       -9.090176    0.972558    0.168457
     25          6           0       -9.956921    0.084121   -0.466357
     26          6           0       -9.525053   -1.197290   -0.810534
     27          6           0       -8.211455   -1.576556   -0.526952
     28          6           0       -7.330105   -0.686520    0.083460
     29          6           0       -3.564763    1.484457    1.219486
     30          6           0       -2.315128    1.034055    0.798379
     31          6           0        3.998018   -2.156029   -1.310685
     32          6           0        5.259725   -2.599735   -1.680414
     33          6           0        6.370882   -1.776280   -1.472506
     34         16           0        8.045062   -2.124258   -1.855424
     35          1           0       12.170569    0.757470   -0.172633
     36          1           0       11.566343    2.441249   -0.327973
     37          1           0       11.949688    1.469759   -1.788698
     38          1           0        7.598932    1.176621   -0.342493
     39          1           0        4.814755    0.931751   -0.071434
     40          1           0        2.590852    0.538030    0.089679
     41          1           0       -0.282959    0.357362   -0.942488
     42          1           0        0.525401    0.802706    0.580664
     43          1           0       -2.478940   -2.171927    1.932491
     44          1           0       -4.724615   -1.354988    2.697985
     45          1           0       -7.269423    2.469487    1.130375
     46          1           0       -9.436564    1.963096    0.454773
     47          1           0      -10.976510    0.393855   -0.678946
     48          1           0      -10.203915   -1.892791   -1.295322
     49          1           0       -7.861845   -2.569872   -0.794934
     50          1           0       -6.302842   -0.979226    0.272493
     51          1           0       -3.862077    2.511012    1.032495
     52          1           0       -1.652454    1.719084    0.282628
     53          1           0        3.128616   -2.780480   -1.458913
     54          1           0        5.372047   -3.583715   -2.125712
 ---------------------------------------------------------------------

 SCF Done:  E(RB3LYP) =  -2283.76826327     A.U. after   15 cycles

 Excitation energies and oscillator strengths:

 Excited state symmetry could not be determined.
 Excited State   1:      Triplet-?Sym    2.7159 eV  456.51 nm  f=0.0000  <S**2>=2.000
     127 ->130         0.50867
     128 ->130        -0.25708
     129 ->130        -0.35933
 This state for optimization and/or second-order correction.
 Total Energy, E(TD-HF/TD-DFT) =  -2283.66845451
 Copying the excited state density for this state as the 1-particle RhoCI density.

 Excited state symmetry could not be determined.
 Excited State   2:      Triplet-?Sym    3.1844 eV  389.35 nm  f=0.0000  <S**2>=2.000
     127 ->130         0.43380
     128 ->130         0.30958
     129 ->130         0.43708

 Excited state symmetry could not be determined.
 Excited State   3:      Singlet-?Sym    3.7812 eV  327.90 nm  f=0.0340  <S**2>=0.000
     127 ->132         0.10625
     128 ->130         0.39513
     129 ->130         0.55832

 Excited state symmetry could not be determined.
 Excited State   4:      Singlet-?Sym    4.1010 eV  302.32 nm  f=0.0000  <S**2>=0.000
     128 ->130         0.57636
     129 ->130        -0.40821

 Alpha  occ. eigenvalues --  -89.11529 -88.91733 -19.20751 -19.20241 -19.14688
 Alpha  occ. eigenvalues --  -19.14445 -19.14390 -19.14175 -14.40302 -14.37468
 Alpha  occ. eigenvalues --  -10.32908 -10.31849 -10.28044 -10.27851 -10.25732
 Alpha  occ. eigenvalues --  -10.24838 -10.23950 -10.23875 -10.23524 -10.22954
 Alpha  occ. eigenvalues --  -10.22388 -10.21991 -10.21947 -10.21732 -10.21669
 Alpha  occ. eigenvalues --  -10.21550 -10.21331 -10.20968 -10.20489 -10.19624
 Alpha  occ. eigenvalues --  -10.19542 -10.19449 -10.19278 -10.18992  -8.14048
 Alpha  occ. eigenvalues --   -7.97773  -6.10563  -6.10458  -6.10340  -5.94211
 Alpha  occ. eigenvalues --   -5.93848  -5.93407  -1.11242  -1.11064  -1.09986
 Alpha  occ. eigenvalues --   -1.05931  -1.02236  -1.00411  -0.96649  -0.93738
 Alpha  occ. eigenvalues --   -0.90550  -0.88205  -0.84699  -0.84467  -0.80149
 Alpha  occ. eigenvalues --   -0.78723  -0.77605  -0.76946  -0.75557  -0.75050
 Alpha  occ. eigenvalues --   -0.74178  -0.72673  -0.72111  -0.67305  -0.65589
 Alpha  occ. eigenvalues --   -0.64930  -0.63471  -0.61826  -0.61710  -0.61163
 Alpha  occ. eigenvalues --   -0.59029  -0.58178  -0.56769  -0.56560  -0.55261
 Alpha  occ. eigenvalues --   -0.54387  -0.52986  -0.52555  -0.52047  -0.50571
 Alpha  occ. eigenvalues --   -0.50114  -0.49274  -0.49160  -0.48976  -0.48181
 Alpha  occ. eigenvalues --   -0.47380  -0.46855  -0.45708  -0.45356  -0.45155
 Alpha  occ. eigenvalues --   -0.44886  -0.44680  -0.44334  -0.43945  -0.43594
 Alpha  occ. eigenvalues --   -0.42956  -0.42624  -0.42528  -0.42186  -0.41991
 Alpha  occ. eigenvalues --   -0.40657  -0.39606  -0.39126  -0.38977  -0.38383
 Alpha  occ. eigenvalues --   -0.37412  -0.37088  -0.36713  -0.35789  -0.35627
 Alpha  occ. eigenvalues --   -0.35431  -0.35198  -0.34907  -0.33944  -0.32373
 Alpha  occ. eigenvalues --   -0.31566  -0.31132  -0.31023  -0.30920  -0.30120
 Alpha  occ. eigenvalues --   -0.29261  -0.28542  -0.27807  -0.27538  -0.25436
 Alpha  occ. eigenvalues --   -0.24945  -0.24068  -0.22658  -0.22652
 Alpha virt. eigenvalues --   -0.06876  -0.03740  -0.03162  -0.02528  -0.00537
 Alpha virt. eigenvalues --   -0.00419   0.00182   0.01386   0.02723   0.04281
 Alpha virt. eigenvalues --    0.05663   0.07346   0.08164   0.08209   0.08605

 Mulliken charges:
               1
     1  C   -0.219195
     2  O   -0.464412
     3  C    0.632721
     4  O   -0.485376
     5  C   -0.226632
     6  C   -0.141649
     7  C    0.143212
     8  C   -0.251250
     9  C    0.346761
    10  N   -0.723163
    11  C    0.612953
    12  O   -0.478411
    13  C   -0.130643
    14  O   -0.491848
    15  C    0.388733
    16  C   -0.170972
    17  C   -0.150659
    18  C   -0.151846
    19  S    1.223470
    20  O   -0.517233
    21  O   -0.549957
    22  N   -0.807498
    23  C    0.320976
    24  C   -0.171728
    25  C   -0.135596
    26  C   -0.125544
    27  C   -0.142657
    28  C   -0.143450
    29  C   -0.132441
    30  C   -0.189701
    31  C   -0.146779
    32  C   -0.196046
    33  C   -0.128811
    34  S    0.281288
    35  H    0.175505
    36  H    0.166395
    37  H    0.175251
    38  H    0.164347
    39  H    0.128806
    40  H    0.334277
    41  H    0.179911
    42  H    0.145161
    43  H    0.162945
    44  H    0.189360
    45  H    0.357875
    46  H    0.129146
    47  H    0.134676
    48  H    0.131346
    49  H    0.135461
    50  H    0.144198
    51  H    0.172894
    52  H    0.143865
    53  H    0.196796
    54  H    0.155167
 Sum of Mulliken charges =  -0.00000

 Dipole moment (field-independent basis, Debye):
    X=              2.1371    Y=              4.1598    Z=             -2.1623  Tot=              5.1523
 Quadrupole moment (field-independent basis, Debye-Ang):
   XX=           -215.9656   YY=           -202.3054   ZZ=           -229.1078
   XY=             30.0969   XZ=             39.0357   YZ=             -7.9618

 Normal termination of Gaussian 16 at Sat Nov  5 12:03:36 2022.
