 Gaussian 16, Revision B.01,
 Gaussian 16:  ES64L-G16RevB.01 20-Dec-2017

 -------------------------------------------------------------------
 #p b3lyp/6-31g(d) 6D 10F nosymm GFInput td=(50-50,nstate=2) SCF=XQC
 -------------------------------------------------------------------

 ------------------------------
 Gaussian input prepared by ASE
 ------------------------------
 Symbolic Z-matrix:
 Charge =  0 Multiplicity = 1

                          Input orientation:
 ---------------------------------------------------------------------
 Center     Atomic      Atomic             Coordinates (Angstroms)
 Number     Number       Type             X           Y           Z
 ---------------------------------------------------------------------
      1          6           0       -5.731361    1.662765   -0.616642
      2          8           0       -4.942636    0.523606   -0.294445
      3          6           0       -3.612553    0.685677   -0.064807
      4          6           0       -2.954751    1.930599   -0.125343
      5          6           0       -1.595360    2.000976    0.124975
      6          6           0       -0.861824    0.847611    0.434930
      7          6           0        0.580488    0.925303    0.717929
      8          8           0        1.226147    1.968370    0.716010
      9          6           0        1.195058   -0.385059    1.023578
     10          8           0        2.496052   -0.445513    1.428667
     11          6           0        3.503851   -0.053902    0.552247
     12          6           0        4.693804    0.371105    1.140922
     13          6           0        5.769197    0.717574    0.325714
     14          6           0        5.657558    0.642258   -1.065205
     15          6           0        4.460570    0.209526   -1.636519
     16          6           0        3.377355   -0.148831   -0.832204
     17          6           0        0.448129   -1.514638    1.027595
     18          6           0        0.993389   -2.890324    1.363455
     19          9           0        2.141452   -3.128682    0.705704
     20          9           0        1.239267   -3.011912    2.681712
     21          9           0        0.112452   -3.846613    1.019983
     22          8           0       -0.883810   -1.541195    0.794771
     23          6           0       -1.549538   -0.378005    0.489816
     24          6           0       -2.921332   -0.499056    0.243838
     25          6           0       -3.646663   -1.818712    0.302105
     26          1           0       -6.746808    1.288324   -0.754473
     27          1           0       -5.722325    2.399465    0.196080
     28          1           0       -5.389541    2.137810   -1.544485
     29          1           0       -3.503808    2.833022   -0.365533
     30          1           0       -1.062513    2.945428    0.088515
     31          1           0        4.755788    0.428557    2.222713
     32          1           0        6.697109    1.052415    0.781335
     33          1           0        6.497019    0.917218   -1.697146
     34          1           0        4.364706    0.141583   -2.716845
     35          1           0        2.452059   -0.503309   -1.274804
     36          1           0       -4.159630   -2.019735   -0.644886
     37          1           0       -2.958842   -2.639448    0.509168
     38          1           0       -4.418156   -1.804258    1.080683
 ---------------------------------------------------------------------

 SCF Done:  E(RB3LYP) =  -1294.13621197     A.U. after   16 cycles

 Excitation energies and oscillator strengths:

 Excited state symmetry could not be determined.
 Excited State   1:      Triplet-?Sym    2.8745 eV  431.32 nm  f=0.0000  <S**2>=2.000
      85 -> 91        -0.18218
      86 -> 91         0.16174
      88 -> 91         0.36195
      89 -> 91        -0.19586
      90 -> 91         0.48450
 This state for optimization and/or second-order correction.
 Total Energy, E(TD-HF/TD-DFT) =  -1294.03057449
 Copying the excited state density for this state as the 1-particle RhoCI density.

 Excited state symmetry could not be determined.
 Excited State   2:      Triplet-?Sym    3.1405 eV  394.79 nm  f=0.0000  <S**2>=2.000
      85 -> 91        -0.12865
      86 -> 91        -0.35832
      88 -> 91         0.46040
      90 -> 91        -0.32243

 Excited state symmetry could not be determined.
 Excited State   3:      Singlet-?Sym    3.3701 eV  367.89 nm  f=0.0098  <S**2>=0.000
      86 -> 91         0.25788
      89 -> 91         0.10191
      90 -> 91         0.63938

 Excited state symmetry could not be determined.
 Excited State   4:      Singlet-?Sym    4.0054 eV  309.54 nm  f=0.0230  <S**2>=0.000
      86 -> 91         0.53117
      88 -> 91        -0.11659
      89 -> 91         0.32199
      90 -> 91        -0.28559

 Alpha  occ. eigenvalues --  -24.73440 -24.73142 -24.72946 -19.24250 -19.20132
 Alpha  occ. eigenvalues --  -19.19784 -19.12894 -10.44890 -10.29152 -10.28042
 Alpha  occ. eigenvalues --  -10.27811 -10.27309 -10.27017 -10.25886 -10.24893
 Alpha  occ. eigenvalues --  -10.21572 -10.21110 -10.20998 -10.20813 -10.19119
 Alpha  occ. eigenvalues --  -10.18940 -10.18829 -10.18742 -10.18394 -10.18245
 Alpha  occ. eigenvalues --   -1.31215  -1.22508  -1.22182  -1.13511  -1.08972
 Alpha  occ. eigenvalues --   -1.08744  -1.02720  -0.88132  -0.85387  -0.82860
 Alpha  occ. eigenvalues --   -0.79846  -0.78555  -0.74554  -0.74221  -0.73746
 Alpha  occ. eigenvalues --   -0.71242  -0.70161  -0.66555  -0.65132  -0.61847
 Alpha  occ. eigenvalues --   -0.60672  -0.59739  -0.59221  -0.59005  -0.58269
 Alpha  occ. eigenvalues --   -0.56907  -0.55114  -0.52874  -0.51520  -0.51262
 Alpha  occ. eigenvalues --   -0.49273  -0.48924  -0.48489  -0.46769  -0.46430
 Alpha  occ. eigenvalues --   -0.46162  -0.45554  -0.44054  -0.43644  -0.43224
 Alpha  occ. eigenvalues --   -0.42946  -0.42545  -0.42258  -0.42131  -0.41957
 Alpha  occ. eigenvalues --   -0.41656  -0.40708  -0.40437  -0.40222  -0.39163
 Alpha  occ. eigenvalues --   -0.39020  -0.38377  -0.37531  -0.36639  -0.36010
 Alpha  occ. eigenvalues --   -0.34528  -0.34349  -0.33647  -0.32588  -0.27928
 Alpha  occ. eigenvalues --   -0.25905  -0.24753  -0.24425  -0.23849  -0.22070
 Alpha virt. eigenvalues --   -0.06662  -0.02406  -0.00756   0.00300   0.01426
 Alpha virt. eigenvalues --    0.06556   0.07449   0.08388   0.09283   0.10208
 Alpha virt. eigenvalues --    0.12691   0.13118   0.13899   0.14075   0.14731

 Mulliken charges:
               1
     1  C   -0.221545
     2  O   -0.502096
     3  C    0.329492
     4  C   -0.187237
     5  C   -0.193565
     6  C    0.076966
     7  C    0.413452
     8  O   -0.499320
     9  C    0.266960
    10  O   -0.575529
    11  C    0.376688
    12  C   -0.164897
    13  C   -0.137521
    14  C   -0.126010
    15  C   -0.138675
    16  C   -0.160122
    17  C    0.123147
    18  C    0.838143
    19  F   -0.253640
    20  F   -0.250935
    21  F   -0.262042
    22  O   -0.537471
    23  C    0.223649
    24  C    0.065873
    25  C   -0.517482
    26  H    0.178694
    27  H    0.161647
    28  H    0.161169
    29  H    0.144809
    30  H    0.172514
    31  H    0.144676
    32  H    0.133216
    33  H    0.127738
    34  H    0.132210
    35  H    0.132780
    36  H    0.172094
    37  H    0.179568
    38  H    0.172601
 Sum of Mulliken charges =  -0.00000

 Dipole moment (field-independent basis, Debye):
    X=             -4.6531    Y=              1.2208    Z=             -1.9507  Tot=              5.1910
 Quadrupole moment (field-independent basis, Debye-Ang):
   XX=           -113.4478   YY=           -143.5277   ZZ=           -137.1499
   XY=             -8.3005   XZ=             -0.2822   YZ=             -0.4487

 Normal termination of Gaussian 16 at Sat Nov  5 12:04:32 2022.
