 Gaussian 16, Revision B.01,
 Gaussian 16:  ES64L-G16RevB.01 20-Dec-2017

 -----------------------------
 #p b3lyp/6-31g(d) opt SCF=XQC
 -----------------------------

 ------------------------------
 Gaussian input prepared by ASE
 ------------------------------
 Symbolic Z-matrix:
 Charge =  0 Multiplicity = 1

 SCF Done:  E(RB3LYP) =  -1294.12601776     A.U. after   16 cycles
 SCF Done:  E(RB3LYP) =  -1294.12798674     A.U. after   15 cycles
 SCF Done:  E(RB3LYP) =  -1294.13084132     A.U. after   15 cycles
 SCF Done:  E(RB3LYP) =  -1294.13149767     A.U. after   12 cycles
 SCF Done:  E(RB3LYP) =  -1294.13216225     A.U. after   13 cycles
 SCF Done:  E(RB3LYP) =  -1294.13267153     A.U. after   12 cycles
 SCF Done:  E(RB3LYP) =  -1294.13344500     A.U. after   15 cycles
 SCF Done:  E(RB3LYP) =  -1294.13423918     A.U. after   12 cycles
 SCF Done:  E(RB3LYP) =  -1294.13494094     A.U. after   13 cycles
 SCF Done:  E(RB3LYP) =  -1294.13496423     A.U. after   13 cycles
 SCF Done:  E(RB3LYP) =  -1294.13619391     A.U. after   13 cycles
 SCF Done:  E(RB3LYP) =  -1294.13614295     A.U. after   12 cycles
 SCF Done:  E(RB3LYP) =  -1294.13620676     A.U. after   12 cycles
 SCF Done:  E(RB3LYP) =  -1294.13620608     A.U. after   10 cycles
 SCF Done:  E(RB3LYP) =  -1294.13620863     A.U. after   10 cycles
 SCF Done:  E(RB3LYP) =  -1294.13620894     A.U. after    8 cycles
 SCF Done:  E(RB3LYP) =  -1294.13621001     A.U. after    9 cycles
 SCF Done:  E(RB3LYP) =  -1294.13621043     A.U. after    8 cycles
 SCF Done:  E(RB3LYP) =  -1294.13621060     A.U. after    7 cycles
 SCF Done:  E(RB3LYP) =  -1294.13621062     A.U. after    6 cycles
 Optimization completed.
    -- Stationary point found.

                         Standard orientation:
 ---------------------------------------------------------------------
 Center     Atomic      Atomic             Coordinates (Angstroms)
 Number     Number       Type             X           Y           Z
 ---------------------------------------------------------------------
      1          6           0       -6.222015   -1.624113    0.305815
      2          8           0       -5.316225   -0.529734    0.379691
      3          6           0       -4.000550   -0.743120    0.112132
      4          6           0       -3.468268   -1.999462   -0.240686
      5          6           0       -2.113870   -2.122974   -0.497409
      6          6           0       -1.262047   -1.013608   -0.407397
      7          6           0        0.175301   -1.141772   -0.697213
      8          8           0        0.717041   -2.188089   -1.038691
      9          6           0        0.923748    0.125809   -0.551512
     10          8           0        2.238207    0.181968   -0.911210
     11          6           0        3.171532   -0.577103   -0.211321
     12          6           0        4.335378   -0.905049   -0.904913
     13          6           0        5.342481   -1.608577   -0.247745
     14          6           0        5.188798   -1.983224    1.089719
     15          6           0        4.019320   -1.641601    1.769462
     16          6           0        3.005190   -0.929686    1.126488
     17          6           0        0.289679    1.264445   -0.183639
     18          6           0        0.976557    2.610403   -0.045013
     19          9           0        2.117903    2.500233    0.656907
     20          9           0        1.280123    3.132274   -1.248566
     21          9           0        0.180040    3.485971    0.593308
     22          8           0       -1.041004    1.349739    0.042152
     23          6           0       -1.826144    0.225825   -0.055687
     24          6           0       -3.187845    0.399615    0.213657
     25          6           0       -3.780183    1.732318    0.593169
     26          1           0       -7.200979   -1.213496    0.557532
     27          1           0       -6.254811   -2.049815   -0.704644
     28          1           0       -5.961023   -2.409998    1.025307
     29          1           0       -4.109924   -2.869251   -0.313258
     30          1           0       -1.676089   -3.076454   -0.773937
     31          1           0        4.430302   -0.610057   -1.944809
     32          1           0        6.249584   -1.868645   -0.786503
     33          1           0        5.974675   -2.535182    1.597053
     34          1           0        3.891757   -1.922782    2.811372
     35          1           0        2.103048   -0.647173    1.659449
     36          1           0       -4.305046    1.662730    1.552343
     37          1           0       -3.009552    2.500274    0.670305
     38          1           0       -4.521061    2.053716   -0.148045
 ---------------------------------------------------------------------

 The electronic state is 1-A.
 Alpha  occ. eigenvalues --  -24.73440 -24.73142 -24.72946 -19.24250 -19.20132
 Alpha  occ. eigenvalues --  -19.19784 -19.12894 -10.44890 -10.29152 -10.28042
 Alpha  occ. eigenvalues --  -10.27811 -10.27309 -10.27017 -10.25886 -10.24893
 Alpha  occ. eigenvalues --  -10.21572 -10.21110 -10.20998 -10.20813 -10.19119
 Alpha  occ. eigenvalues --  -10.18940 -10.18829 -10.18742 -10.18394 -10.18245
 Alpha  occ. eigenvalues --   -1.31215  -1.22508  -1.22182  -1.13511  -1.08972
 Alpha  occ. eigenvalues --   -1.08744  -1.02720  -0.88132  -0.85387  -0.82860
 Alpha  occ. eigenvalues --   -0.79846  -0.78555  -0.74554  -0.74221  -0.73746
 Alpha  occ. eigenvalues --   -0.71242  -0.70161  -0.66555  -0.65132  -0.61847
 Alpha  occ. eigenvalues --   -0.60672  -0.59739  -0.59221  -0.59005  -0.58269
 Alpha  occ. eigenvalues --   -0.56907  -0.55114  -0.52874  -0.51520  -0.51262
 Alpha  occ. eigenvalues --   -0.49273  -0.48924  -0.48489  -0.46769  -0.46430
 Alpha  occ. eigenvalues --   -0.46162  -0.45554  -0.44054  -0.43644  -0.43224
 Alpha  occ. eigenvalues --   -0.42946  -0.42545  -0.42258  -0.42131  -0.41957
 Alpha  occ. eigenvalues --   -0.41656  -0.40708  -0.40437  -0.40222  -0.39163
 Alpha  occ. eigenvalues --   -0.39020  -0.38377  -0.37531  -0.36639  -0.36010
 Alpha  occ. eigenvalues --   -0.34528  -0.34349  -0.33647  -0.32588  -0.27928
 Alpha  occ. eigenvalues --   -0.25905  -0.24753  -0.24425  -0.23849  -0.22070
 Alpha virt. eigenvalues --   -0.06662  -0.02406  -0.00756   0.00300   0.01426
 Alpha virt. eigenvalues --    0.06555   0.07449   0.08388   0.09283   0.10208
 Alpha virt. eigenvalues --    0.12691   0.13118   0.13899   0.14075   0.14731

 Mulliken charges:
               1
     1  C   -0.221547
     2  O   -0.502098
     3  C    0.329489
     4  C   -0.187230
     5  C   -0.193571
     6  C    0.076979
     7  C    0.413449
     8  O   -0.499325
     9  C    0.266982
    10  O   -0.575527
    11  C    0.376697
    12  C   -0.164904
    13  C   -0.137523
    14  C   -0.126006
    15  C   -0.138676
    16  C   -0.160127
    17  C    0.123121
    18  C    0.838128
    19  F   -0.253640
    20  F   -0.250926
    21  F   -0.262040
    22  O   -0.537466
    23  C    0.223648
    24  C    0.065877
    25  C   -0.517484
    26  H    0.178694
    27  H    0.161648
    28  H    0.161170
    29  H    0.144808
    30  H    0.172514
    31  H    0.144677
    32  H    0.133216
    33  H    0.127738
    34  H    0.132210
    35  H    0.132778
    36  H    0.172093
    37  H    0.179571
    38  H    0.172602
 Sum of Mulliken charges =  -0.00000

 Dipole moment (field-independent basis, Debye):
    X=             -4.8160    Y=             -1.3089    Z=              1.4283  Tot=              5.1910
 Quadrupole moment (field-independent basis, Debye-Ang):
   XX=           -108.9213   YY=           -142.6519   ZZ=           -137.2996
   XY=              7.2162   XZ=              0.9484   YZ=             -3.6401

 Normal termination of Gaussian 16 at Fri Nov  4 20:22:50 2022.
