 Gaussian 16, Revision B.01,
 Gaussian 16:  ES64L-G16RevB.01 20-Dec-2017

 -----------------------------
 #p b3lyp/6-31g(d) opt SCF=XQC
 -----------------------------

 ------------------------------
 Gaussian input prepared by ASE
 ------------------------------
 Symbolic Z-matrix:
 Charge =  0 Multiplicity = 1

 SCF Done:  E(RB3LYP) =  -1050.16400522     A.U. after   15 cycles
 SCF Done:  E(RB3LYP) =  -1050.16859804     A.U. after   14 cycles
 SCF Done:  E(RB3LYP) =  -1050.15455075     A.U. after   13 cycles
 SCF Done:  E(RB3LYP) =  -1050.16670580     A.U. after   12 cycles
 SCF Done:  E(RB3LYP) =  -1050.16911972     A.U. after   10 cycles
 SCF Done:  E(RB3LYP) =  -1050.17032390     A.U. after   11 cycles
 SCF Done:  E(RB3LYP) =  -1050.17055586     A.U. after   12 cycles
 SCF Done:  E(RB3LYP) =  -1050.17074279     A.U. after   12 cycles
 SCF Done:  E(RB3LYP) =  -1050.17122103     A.U. after   12 cycles
 SCF Done:  E(RB3LYP) =  -1050.17133733     A.U. after   11 cycles
 SCF Done:  E(RB3LYP) =  -1050.17180741     A.U. after   11 cycles
 SCF Done:  E(RB3LYP) =  -1050.17181150     A.U. after   10 cycles
 SCF Done:  E(RB3LYP) =  -1050.17181647     A.U. after   10 cycles
 SCF Done:  E(RB3LYP) =  -1050.17181885     A.U. after   10 cycles
 SCF Done:  E(RB3LYP) =  -1050.17181985     A.U. after    9 cycles
 SCF Done:  E(RB3LYP) =  -1050.17182047     A.U. after    8 cycles
 SCF Done:  E(RB3LYP) =  -1050.17182069     A.U. after    8 cycles
 SCF Done:  E(RB3LYP) =  -1050.17182073     A.U. after    7 cycles
 SCF Done:  E(RB3LYP) =  -1050.17182074     A.U. after    6 cycles
 SCF Done:  E(RB3LYP) =  -1050.17182075     A.U. after    6 cycles
 Optimization completed.
    -- Stationary point found.

                         Standard orientation:
 ---------------------------------------------------------------------
 Center     Atomic      Atomic             Coordinates (Angstroms)
 Number     Number       Type             X           Y           Z
 ---------------------------------------------------------------------
      1          8           0       -2.533502   -2.151933    0.701466
      2          6           0       -2.071079   -1.781838   -0.384067
      3          6           0       -2.950176   -1.490794   -1.596321
      4          6           0       -4.401720   -1.127567   -1.231631
      5          6           0       -4.581703    0.228608   -0.576731
      6          6           0       -4.694578    1.378072   -1.371602
      7          6           0       -4.921620    2.637895   -0.821781
      8          6           0       -5.052206    2.760548    0.564220
      9          6           0       -4.935716    1.638705    1.378161
     10          6           0       -4.688442    0.374018    0.823689
     11          8           0       -4.606983   -0.673759    1.687541
     12          7           0       -0.735838   -1.656692   -0.584344
     13          6           0        0.259939   -1.914744    0.457878
     14          6           0        1.375264   -0.913875    0.418628
     15          6           0        1.308506    0.493007    0.597574
     16          7           0        2.498599    1.069009    0.488731
     17          7           0        3.361275    0.047309    0.242411
     18          6           0        4.745915    0.309351    0.060699
     19          6           0        5.688928   -0.706318    0.251553
     20          6           0        7.042073   -0.437343    0.048209
     21          6           0        7.461526    0.839592   -0.326397
     22          6           0        6.513907    1.851372   -0.497297
     23          6           0        5.157713    1.593904   -0.310595
     24          6           0        2.715204   -1.154559    0.186687
     25          1           0       -2.949264   -2.400603   -2.214572
     26          1           0       -2.499989   -0.696823   -2.205178
     27          1           0       -4.809794   -1.915663   -0.590518
     28          1           0       -4.985429   -1.148720   -2.159375
     29          1           0       -4.623357    1.270812   -2.453202
     30          1           0       -5.010709    3.508473   -1.465456
     31          1           0       -5.240389    3.732906    1.012508
     32          1           0       -5.024189    1.710769    2.457930
     33          1           0       -3.988912   -1.352192    1.331484
     34          1           0       -0.401803   -1.341495   -1.484928
     35          1           0        0.663436   -2.930699    0.352806
     36          1           0       -0.283348   -1.884782    1.406682
     37          1           0        0.436303    1.100646    0.803579
     38          1           0        5.377180   -1.692902    0.578948
     39          1           0        7.769718   -1.229924    0.198638
     40          1           0        8.517044    1.045972   -0.477749
     41          1           0        6.829505    2.850469   -0.784708
     42          1           0        4.411746    2.368291   -0.441973
     43          1           0        3.237483   -2.074581   -0.029825
 ---------------------------------------------------------------------

 The electronic state is 1-A.
 Alpha  occ. eigenvalues --  -19.13598 -19.13362 -14.42922 -14.37816 -14.35864
 Alpha  occ. eigenvalues --  -10.30419 -10.24775 -10.24170 -10.23582 -10.22790
 Alpha  occ. eigenvalues --  -10.21570 -10.20859 -10.20733 -10.20483 -10.20289
 Alpha  occ. eigenvalues --  -10.20248 -10.19988 -10.19980 -10.19322 -10.18010
 Alpha  occ. eigenvalues --  -10.17737 -10.17542 -10.16989 -10.16658  -1.06111
 Alpha  occ. eigenvalues --   -1.05027  -1.02040  -0.93841  -0.88453  -0.83654
 Alpha  occ. eigenvalues --   -0.83522  -0.81240  -0.79342  -0.76011  -0.75364
 Alpha  occ. eigenvalues --   -0.73376  -0.71890  -0.70697  -0.65216  -0.63850
 Alpha  occ. eigenvalues --   -0.62657  -0.60133  -0.59034  -0.58484  -0.58078
 Alpha  occ. eigenvalues --   -0.57873  -0.55658  -0.51777  -0.51441  -0.50315
 Alpha  occ. eigenvalues --   -0.48841  -0.48661  -0.47497  -0.47108  -0.46656
 Alpha  occ. eigenvalues --   -0.45449  -0.45049  -0.44078  -0.43651  -0.43291
 Alpha  occ. eigenvalues --   -0.42796  -0.42149  -0.41529  -0.40478  -0.39427
 Alpha  occ. eigenvalues --   -0.39004  -0.38089  -0.37647  -0.37199  -0.36866
 Alpha  occ. eigenvalues --   -0.36522  -0.35928  -0.34803  -0.33430  -0.32037
 Alpha  occ. eigenvalues --   -0.30111  -0.29844  -0.29721  -0.27476  -0.27197
 Alpha  occ. eigenvalues --   -0.26388  -0.25743  -0.23235  -0.23030  -0.20195
 Alpha virt. eigenvalues --   -0.03176  -0.01379   0.00646   0.01218   0.02863
 Alpha virt. eigenvalues --    0.03083   0.04606   0.07338   0.07945   0.10092
 Alpha virt. eigenvalues --    0.10425   0.11218   0.11833   0.13624   0.14260

 Mulliken charges:
               1
     1  O   -0.550136
     2  C    0.634933
     3  C   -0.361595
     4  C   -0.367482
     5  C    0.133457
     6  C   -0.199599
     7  C   -0.132440
     8  C   -0.138228
     9  C   -0.158080
    10  C    0.273730
    11  O   -0.685848
    12  N   -0.590724
    13  C   -0.202050
    14  C   -0.009127
    15  C    0.030198
    16  N   -0.286791
    17  N   -0.375839
    18  C    0.333180
    19  C   -0.167235
    20  C   -0.141891
    21  C   -0.121691
    22  C   -0.139981
    23  C   -0.149900
    24  C    0.042389
    25  H    0.171639
    26  H    0.154392
    27  H    0.165431
    28  H    0.150149
    29  H    0.111496
    30  H    0.117880
    31  H    0.123338
    32  H    0.132669
    33  H    0.451601
    34  H    0.332416
    35  H    0.158509
    36  H    0.207414
    37  H    0.161691
    38  H    0.138506
    39  H    0.137722
    40  H    0.135440
    41  H    0.140081
    42  H    0.171702
    43  H    0.168677
 Sum of Mulliken charges =  -0.00000

 Dipole moment (field-independent basis, Debye):
    X=              5.2930    Y=             -1.8429    Z=             -4.0754  Tot=              6.9297
 Quadrupole moment (field-independent basis, Debye-Ang):
   XX=           -139.4507   YY=           -131.4894   ZZ=           -138.6752
   XY=             -7.0530   XZ=              9.1508   YZ=              3.5271

 Normal termination of Gaussian 16 at Fri Nov  4 20:16:47 2022.
