 Gaussian 16, Revision B.01,
 Gaussian 16:  ES64L-G16RevB.01 20-Dec-2017

 -------------------------------------------------------------------
 #p b3lyp/6-31g(d) 6D 10F nosymm GFInput td=(50-50,nstate=2) SCF=XQC
 -------------------------------------------------------------------

 ------------------------------
 Gaussian input prepared by ASE
 ------------------------------
 Symbolic Z-matrix:
 Charge =  0 Multiplicity = 1

                          Input orientation:
 ---------------------------------------------------------------------
 Center     Atomic      Atomic             Coordinates (Angstroms)
 Number     Number       Type             X           Y           Z
 ---------------------------------------------------------------------
      1          8           0       -2.256254    1.130283    2.358127
      2          6           0       -1.941164    0.016320    1.923395
      3          6           0       -2.964585   -1.084401    1.662435
      4          6           0       -4.389935   -0.554831    1.417795
      5          6           0       -4.592405    0.165176    0.098290
      6          6           0       -4.870877   -0.570189   -1.062537
      7          6           0       -5.124651    0.046822   -2.285606
      8          6           0       -5.112620    1.442443   -2.357688
      9          6           0       -4.830430    2.197397   -1.224104
     10          6           0       -4.556757    1.573440    0.002191
     11          8           0       -4.309083    2.384442    1.065980
     12          7           0       -0.647522   -0.319486    1.694564
     13          6           0        0.470881    0.601139    1.909076
     14          6           0        1.502592    0.481039    0.828160
     15          6           0        1.357304    0.717982   -0.564155
     16          7           0        2.485358    0.505089   -1.229075
     17          7           0        3.385663    0.131148   -0.281248
     18          6           0        4.720721   -0.186376   -0.649637
     19          6           0        5.747618   -0.134188    0.299068
     20          6           0        7.048616   -0.469616   -0.074548
     21          6           0        7.334622   -0.839035   -1.389297
     22          6           0        6.305591   -0.871052   -2.333202
     23          6           0        4.998961   -0.551412   -1.971319
     24          6           0        2.823070    0.099735    0.962738
     25          1           0       -2.966963   -1.732509    2.551219
     26          1           0       -2.639670   -1.707718    0.820015
     27          1           0       -4.670006    0.096295    2.252204
     28          1           0       -5.067769   -1.415677    1.454653
     29          1           0       -4.909887   -1.656473   -0.992520
     30          1           0       -5.343641   -0.551141   -3.165745
     31          1           0       -5.318735    1.943810   -3.300027
     32          1           0       -4.806263    3.282386   -1.257819
     33          1           0       -3.687252    1.940066    1.686396
     34          1           0       -0.435874   -1.238102    1.329418
     35          1           0        0.930736    0.416402    2.889086
     36          1           0        0.032794    1.602604    1.946950
     37          1           0        0.472166    1.037550   -1.099700
     38          1           0        5.542983    0.187654    1.315072
     39          1           0        7.841952   -0.426533    0.666426
     40          1           0        8.350491   -1.093593   -1.677100
     41          1           0        6.517499   -1.153108   -3.360792
     42          1           0        4.190794   -0.574298   -2.692252
     43          1           0        3.381931   -0.204769    1.835116
 ---------------------------------------------------------------------

 SCF Done:  E(RB3LYP) =  -1050.17182037     A.U. after   15 cycles

 Excitation energies and oscillator strengths:

 Excited state symmetry could not be determined.
 Excited State   1:      Triplet-?Sym    3.4850 eV  355.77 nm  f=0.0000  <S**2>=2.000
      81 -> 87         0.30317
      82 -> 86         0.13351
      83 -> 86         0.35259
      84 -> 86         0.46284
 This state for optimization and/or second-order correction.
 Total Energy, E(TD-HF/TD-DFT) =  -1050.04375033
 Copying the excited state density for this state as the 1-particle RhoCI density.

 Excited state symmetry could not be determined.
 Excited State   2:      Triplet-?Sym    3.6869 eV  336.28 nm  f=0.0000  <S**2>=2.000
      83 -> 88        -0.21318
      83 -> 89        -0.28491
      84 -> 88         0.16302
      84 -> 89         0.21700
      85 -> 89         0.13389
      85 -> 90        -0.49720
      85 -> 91        -0.11486

 Excited state symmetry could not be determined.
 Excited State   3:      Singlet-?Sym    4.3021 eV  288.20 nm  f=0.0001  <S**2>=0.000
      85 -> 86         0.70549

 Excited state symmetry could not be determined.
 Excited State   4:      Singlet-?Sym    4.8550 eV  255.37 nm  f=0.0000  <S**2>=0.000
      85 -> 87         0.70676

 Alpha  occ. eigenvalues --  -19.13599 -19.13362 -14.42922 -14.37816 -14.35864
 Alpha  occ. eigenvalues --  -10.30418 -10.24775 -10.24170 -10.23582 -10.22790
 Alpha  occ. eigenvalues --  -10.21570 -10.20859 -10.20733 -10.20483 -10.20289
 Alpha  occ. eigenvalues --  -10.20248 -10.19988 -10.19980 -10.19322 -10.18010
 Alpha  occ. eigenvalues --  -10.17737 -10.17542 -10.16989 -10.16658  -1.06111
 Alpha  occ. eigenvalues --   -1.05027  -1.02040  -0.93841  -0.88453  -0.83654
 Alpha  occ. eigenvalues --   -0.83522  -0.81240  -0.79342  -0.76011  -0.75364
 Alpha  occ. eigenvalues --   -0.73376  -0.71890  -0.70697  -0.65216  -0.63850
 Alpha  occ. eigenvalues --   -0.62657  -0.60133  -0.59034  -0.58484  -0.58078
 Alpha  occ. eigenvalues --   -0.57873  -0.55658  -0.51777  -0.51441  -0.50314
 Alpha  occ. eigenvalues --   -0.48841  -0.48661  -0.47498  -0.47108  -0.46656
 Alpha  occ. eigenvalues --   -0.45449  -0.45048  -0.44078  -0.43651  -0.43291
 Alpha  occ. eigenvalues --   -0.42796  -0.42149  -0.41528  -0.40478  -0.39427
 Alpha  occ. eigenvalues --   -0.39004  -0.38089  -0.37647  -0.37199  -0.36866
 Alpha  occ. eigenvalues --   -0.36521  -0.35928  -0.34803  -0.33430  -0.32037
 Alpha  occ. eigenvalues --   -0.30111  -0.29844  -0.29721  -0.27476  -0.27197
 Alpha  occ. eigenvalues --   -0.26388  -0.25743  -0.23235  -0.23030  -0.20195
 Alpha virt. eigenvalues --   -0.03176  -0.01379   0.00647   0.01218   0.02863
 Alpha virt. eigenvalues --    0.03083   0.04606   0.07338   0.07945   0.10092
 Alpha virt. eigenvalues --    0.10425   0.11219   0.11833   0.13624   0.14260

 Mulliken charges:
               1
     1  O   -0.550178
     2  C    0.634998
     3  C   -0.361629
     4  C   -0.367466
     5  C    0.133432
     6  C   -0.199598
     7  C   -0.132444
     8  C   -0.138223
     9  C   -0.158077
    10  C    0.273728
    11  O   -0.685845
    12  N   -0.590709
    13  C   -0.202056
    14  C   -0.009139
    15  C    0.030206
    16  N   -0.286791
    17  N   -0.375833
    18  C    0.333179
    19  C   -0.167234
    20  C   -0.141890
    21  C   -0.121690
    22  C   -0.139984
    23  C   -0.149898
    24  C    0.042383
    25  H    0.171639
    26  H    0.154390
    27  H    0.165431
    28  H    0.150150
    29  H    0.111496
    30  H    0.117880
    31  H    0.123338
    32  H    0.132670
    33  H    0.451606
    34  H    0.332414
    35  H    0.158510
    36  H    0.207416
    37  H    0.161689
    38  H    0.138506
    39  H    0.137722
    40  H    0.135440
    41  H    0.140081
    42  H    0.171702
    43  H    0.168678
 Sum of Mulliken charges =  -0.00000

 Dipole moment (field-independent basis, Debye):
    X=              4.9363    Y=             -4.6784    Z=              1.3284  Tot=              6.9296
 Quadrupole moment (field-independent basis, Debye-Ang):
   XX=           -136.2194   YY=           -142.5736   ZZ=           -132.8022
   XY=              9.5016   XZ=              7.3679   YZ=             -4.8874

 Normal termination of Gaussian 16 at Sat Nov  5 12:00:01 2022.
