 Gaussian 16, Revision B.01,
 Gaussian 16:  ES64L-G16RevB.01 20-Dec-2017

 -------------------------------------------------------------------
 #p b3lyp/6-31g(d) 6D 10F nosymm GFInput td=(50-50,nstate=2) SCF=XQC
 -------------------------------------------------------------------

 ------------------------------
 Gaussian input prepared by ASE
 ------------------------------
 Symbolic Z-matrix:
 Charge =  0 Multiplicity = 1

                          Input orientation:
 ---------------------------------------------------------------------
 Center     Atomic      Atomic             Coordinates (Angstroms)
 Number     Number       Type             X           Y           Z
 ---------------------------------------------------------------------
      1          6           0       -6.800889    3.361166    0.976576
      2          6           0       -6.034951    2.227492    0.335274
      3          6           0       -4.778429    2.452641   -0.250516
      4          6           0       -4.066791    1.418584   -0.849940
      5          6           0       -4.589418    0.116355   -0.881210
      6          6           0       -3.803670   -1.010807   -1.522363
      7          7           0       -2.594375   -1.371492   -0.778226
      8          6           0       -1.357109   -0.945462   -1.137569
      9          8           0       -1.159062   -0.283595   -2.158935
     10          6           0       -0.179468   -1.380301   -0.209694
     11          7           0        0.931143   -0.557070   -0.694458
     12          6           0        2.155237   -0.358945   -0.111555
     13          8           0        2.527724   -0.891955    0.934248
     14          7           0        2.945069    0.529949   -0.835103
     15          6           0        4.257460    0.962773   -0.563670
     16          6           0        5.012631    0.543113    0.542534
     17          6           0        6.307200    1.030453    0.715711
     18          6           0        6.895362    1.935505   -0.175735
     19          6           0        8.288688    2.473674    0.053041
     20          6           0        6.129321    2.340321   -1.275382
     21          6           0        4.835477    1.866816   -1.469276
     22          6           0       -0.498881   -1.094843    1.295234
     23          6           0       -0.945663   -2.346713    2.067105
     24          6           0        0.143507   -3.438666    2.063336
     25          6           0        0.856450   -3.574779    0.690367
     26          6           0        0.066219   -2.907881   -0.444531
     27          6           0       -5.838311   -0.112850   -0.300512
     28          6           0       -6.551278    0.929103    0.298621
     29          1           0       -7.055235    4.136798    0.243192
     30          1           0       -7.735033    3.009511    1.425636
     31          1           0       -6.212423    3.846714    1.764777
     32          1           0       -4.356531    3.455572   -0.239510
     33          1           0       -3.098574    1.614179   -1.304117
     34          1           0       -3.466980   -0.732239   -2.523476
     35          1           0       -4.431034   -1.904671   -1.612381
     36          1           0       -2.713600   -1.793360    0.132083
     37          1           0        0.697303   -0.101131   -1.571874
     38          1           0        2.537290    0.928542   -1.669718
     39          1           0        4.582014   -0.155824    1.245011
     40          1           0        6.876253    0.688994    1.578216
     41          1           0        8.925377    1.736965    0.555400
     42          1           0        8.773289    2.747543   -0.890700
     43          1           0        8.276645    3.373362    0.683754
     44          1           0        6.549549    3.037519   -1.997194
     45          1           0        4.267218    2.197997   -2.337171
     46          1           0       -1.243416   -0.293547    1.374679
     47          1           0        0.419103   -0.728488    1.758670
     48          1           0       -1.877230   -2.760403    1.649873
     49          1           0       -1.190393   -2.065301    3.098246
     50          1           0       -0.308236   -4.392655    2.362143
     51          1           0        0.889240   -3.195332    2.828773
     52          1           0        1.005944   -4.632582    0.442517
     53          1           0        1.843510   -3.112222    0.747507
     54          1           0        0.584978   -3.022706   -1.402556
     55          1           0       -0.904479   -3.408401   -0.554732
     56          1           0       -6.264872   -1.114054   -0.316706
     57          1           0       -7.522871    0.726627    0.743670
 ---------------------------------------------------------------------

 SCF Done:  E(RB3LYP) =  -1208.67501006     A.U. after   15 cycles

 Excitation energies and oscillator strengths:

 Excited state symmetry could not be determined.
 Excited State   1:      Triplet-?Sym    3.5576 eV  348.50 nm  f=0.0000  <S**2>=2.000
     101 ->105         0.29775
     101 ->106        -0.17532
     102 ->105         0.32664
     102 ->106         0.41116
     102 ->107         0.26915
 This state for optimization and/or second-order correction.
 Total Energy, E(TD-HF/TD-DFT) =  -1208.54427016
 Copying the excited state density for this state as the 1-particle RhoCI density.

 Excited state symmetry could not be determined.
 Excited State   2:      Triplet-?Sym    4.0645 eV  305.05 nm  f=0.0000  <S**2>=2.000
     102 ->105         0.56564
     102 ->106        -0.39706

 Excited state symmetry could not be determined.
 Excited State   3:      Singlet-?Sym    4.7723 eV  259.80 nm  f=0.0065  <S**2>=0.000
     102 ->103         0.69981

 Excited state symmetry could not be determined.
 Excited State   4:      Singlet-?Sym    4.9257 eV  251.71 nm  f=0.0002  <S**2>=0.000
     102 ->104         0.70606

 Alpha  occ. eigenvalues --  -19.12996 -19.10115 -14.37228 -14.36337 -14.34424
 Alpha  occ. eigenvalues --  -10.31017 -10.29737 -10.24545 -10.23270 -10.22418
 Alpha  occ. eigenvalues --  -10.20119 -10.19893 -10.19427 -10.19111 -10.19075
 Alpha  occ. eigenvalues --  -10.18999 -10.18808 -10.18775 -10.18490 -10.18335
 Alpha  occ. eigenvalues --  -10.18027 -10.18018 -10.17786 -10.17621 -10.17458
 Alpha  occ. eigenvalues --  -10.17403 -10.16964 -10.16829  -1.04964  -1.03547
 Alpha  occ. eigenvalues --   -0.93573  -0.93360  -0.91059  -0.85940  -0.83769
 Alpha  occ. eigenvalues --   -0.81891  -0.78774  -0.76108  -0.74632  -0.74315
 Alpha  occ. eigenvalues --   -0.74071  -0.73234  -0.71838  -0.67878  -0.66824
 Alpha  occ. eigenvalues --   -0.64035  -0.62376  -0.61428  -0.61202  -0.60147
 Alpha  occ. eigenvalues --   -0.58302  -0.57859  -0.56813  -0.55168  -0.53197
 Alpha  occ. eigenvalues --   -0.52689  -0.51053  -0.49699  -0.48417  -0.47740
 Alpha  occ. eigenvalues --   -0.46634  -0.46154  -0.45794  -0.45356  -0.44351
 Alpha  occ. eigenvalues --   -0.44029  -0.43246  -0.42765  -0.42228  -0.42062
 Alpha  occ. eigenvalues --   -0.41706  -0.41458  -0.40903  -0.40657  -0.40574
 Alpha  occ. eigenvalues --   -0.40202  -0.40053  -0.38649  -0.37961  -0.37553
 Alpha  occ. eigenvalues --   -0.37387  -0.37334  -0.37063  -0.35639  -0.35331
 Alpha  occ. eigenvalues --   -0.35133  -0.34696  -0.34411  -0.33904  -0.32829
 Alpha  occ. eigenvalues --   -0.31644  -0.31116  -0.30791  -0.28790  -0.27095
 Alpha  occ. eigenvalues --   -0.26415  -0.25283  -0.25096  -0.24244  -0.23909
 Alpha  occ. eigenvalues --   -0.23714  -0.19694
 Alpha virt. eigenvalues --   -0.00931  -0.00476   0.01128   0.01208   0.01831
 Alpha virt. eigenvalues --    0.06146   0.07289   0.07691   0.09432   0.10237
 Alpha virt. eigenvalues --    0.10576   0.11234   0.11339   0.12652   0.12944

 Mulliken charges:
               1
     1  C   -0.530986
     2  C    0.179299
     3  C   -0.176768
     4  C   -0.179970
     5  C    0.160113
     6  C   -0.237383
     7  N   -0.592806
     8  C    0.598076
     9  O   -0.551790
    10  C    0.191171
    11  N   -0.709080
    12  C    0.838423
    13  O   -0.554380
    14  N   -0.765594
    15  C    0.364559
    16  C   -0.161050
    17  C   -0.198590
    18  C    0.182848
    19  C   -0.529663
    20  C   -0.186033
    21  C   -0.201958
    22  C   -0.324622
    23  C   -0.285546
    24  C   -0.259130
    25  C   -0.279904
    26  C   -0.271647
    27  C   -0.187150
    28  C   -0.181443
    29  H    0.165306
    30  H    0.155675
    31  H    0.163794
    32  H    0.126510
    33  H    0.152853
    34  H    0.199599
    35  H    0.154215
    36  H    0.341533
    37  H    0.345834
    38  H    0.324957
    39  H    0.180362
    40  H    0.120054
    41  H    0.154493
    42  H    0.151599
    43  H    0.160582
    44  H    0.117805
    45  H    0.114480
    46  H    0.141587
    47  H    0.200332
    48  H    0.114994
    49  H    0.144026
    50  H    0.128490
    51  H    0.151347
    52  H    0.128327
    53  H    0.187798
    54  H    0.148078
    55  H    0.130554
    56  H    0.121990
    57  H    0.123831
 Sum of Mulliken charges =  -0.00000

 Dipole moment (field-independent basis, Debye):
    X=             -3.8854    Y=              0.0705    Z=             -0.0494  Tot=              3.8863
 Quadrupole moment (field-independent basis, Debye-Ang):
   XX=           -153.0704   YY=           -156.7040   ZZ=           -167.3053
   XY=              6.8389   XZ=             -8.5317   YZ=             -1.5956

 Normal termination of Gaussian 16 at Sat Nov  5 12:10:46 2022.
