 Gaussian 16, Revision B.01,
 Gaussian 16:  ES64L-G16RevB.01 20-Dec-2017

 -----------------------------
 #p b3lyp/6-31g(d) opt SCF=XQC
 -----------------------------

 ------------------------------
 Gaussian input prepared by ASE
 ------------------------------
 Symbolic Z-matrix:
 Charge =  0 Multiplicity = 1

 SCF Done:  E(RB3LYP) =  -1208.66702404     A.U. after   15 cycles
 SCF Done:  E(RB3LYP) =  -1208.67367684     A.U. after   12 cycles
 SCF Done:  E(RB3LYP) =  -1208.67376698     A.U. after   12 cycles
 SCF Done:  E(RB3LYP) =  -1208.67436697     A.U. after   12 cycles
 SCF Done:  E(RB3LYP) =  -1208.67445470     A.U. after   12 cycles
 SCF Done:  E(RB3LYP) =  -1208.67462030     A.U. after   11 cycles
 SCF Done:  E(RB3LYP) =  -1208.67467093     A.U. after   11 cycles
 SCF Done:  E(RB3LYP) =  -1208.67479051     A.U. after   11 cycles
 SCF Done:  E(RB3LYP) =  -1208.67486211     A.U. after   12 cycles
 SCF Done:  E(RB3LYP) =  -1208.67488392     A.U. after   10 cycles
 SCF Done:  E(RB3LYP) =  -1208.67501715     A.U. after    9 cycles
 SCF Done:  E(RB3LYP) =  -1208.67501771     A.U. after    9 cycles
 SCF Done:  E(RB3LYP) =  -1208.67501794     A.U. after    8 cycles
 SCF Done:  E(RB3LYP) =  -1208.67501828     A.U. after    9 cycles
 SCF Done:  E(RB3LYP) =  -1208.67501838     A.U. after    8 cycles
 SCF Done:  E(RB3LYP) =  -1208.67501845     A.U. after    8 cycles
 SCF Done:  E(RB3LYP) =  -1208.67501849     A.U. after    8 cycles
 SCF Done:  E(RB3LYP) =  -1208.67501850     A.U. after    6 cycles
 SCF Done:  E(RB3LYP) =  -1208.67501852     A.U. after    6 cycles
 SCF Done:  E(RB3LYP) =  -1208.67501853     A.U. after    6 cycles
 Optimization completed.
    -- Stationary point found.

                         Standard orientation:
 ---------------------------------------------------------------------
 Center     Atomic      Atomic             Coordinates (Angstroms)
 Number     Number       Type             X           Y           Z
 ---------------------------------------------------------------------
      1          6           0        6.742375   -3.320261    1.740080
      2          6           0        6.017771   -2.310173    0.881116
      3          6           0        4.749173   -2.598399    0.351705
      4          6           0        4.075147   -1.679479   -0.445968
      5          6           0        4.649071   -0.432914   -0.740259
      6          6           0        3.904414    0.571635   -1.597779
      7          7           0        2.715740    1.124424   -0.943786
      8          6           0        1.459965    0.684814   -1.210669
      9          8           0        1.228485   -0.161896   -2.076683
     10          6           0        0.307171    1.346141   -0.391775
     11          7           0       -0.838782    0.487351   -0.700700
     12          6           0       -2.065669    0.461309   -0.091188
     13          8           0       -2.409222    1.210006    0.824222
     14          7           0       -2.895406   -0.523147   -0.620215
     15          6           0       -4.222074   -0.838416   -0.268163
     16          6           0       -4.952094   -0.172872    0.728938
     17          6           0       -6.263821   -0.562130    0.995865
     18          6           0       -6.893881   -1.604617    0.305956
     19          6           0       -8.305920   -2.028328    0.637523
     20          6           0       -6.152361   -2.254747   -0.687723
     21          6           0       -4.842057   -1.883198   -0.972130
     22          6           0        0.625534    1.359184    1.140150
     23          6           0        1.127322    2.722458    1.642414
     24          6           0        0.082578    3.834132    1.415794
     25          6           0       -0.634020    3.717674    0.042920
     26          6           0        0.120966    2.802999   -0.932055
     27          6           0        5.910171   -0.141444   -0.216667
     28          6           0        6.585209   -1.068203    0.582326
     29          1           0        6.960408   -4.238177    1.179686
     30          1           0        7.692943   -2.922946    2.109543
     31          1           0        6.140574   -3.611603    2.609715
     32          1           0        4.287692   -3.560326    0.565530
     33          1           0        3.096724   -1.923766   -0.852157
     34          1           0        3.549838    0.109657   -2.521921
     35          1           0        4.566285    1.402507   -1.866587
     36          1           0        2.858107    1.716988   -0.137903
     37          1           0       -0.629501   -0.146171   -1.467036
     38          1           0       -2.509740   -1.098925   -1.356071
     39          1           0       -4.489002    0.636005    1.275454
     40          1           0       -6.812711   -0.030064    1.770434
     41          1           0       -8.909161   -1.179872    0.979140
     42          1           0       -8.807694   -2.468081   -0.231573
     43          1           0       -8.325333   -2.781113    1.437723
     44          1           0       -6.605139   -3.066266   -1.253513
     45          1           0       -4.293587   -2.406270   -1.754062
     46          1           0        1.338053    0.561186    1.381466
     47          1           0       -0.303046    1.131923    1.667193
     48          1           0        2.071689    3.004851    1.151023
     49          1           0        1.367888    2.646380    2.709502
     50          1           0        0.574109    4.809810    1.515304
     51          1           0       -0.666859    3.781516    2.213791
     52          1           0       -0.742941    4.708381   -0.414642
     53          1           0       -1.638319    3.316676    0.191566
     54          1           0       -0.399533    2.742019   -1.894068
     55          1           0        1.110057    3.231040   -1.140382
     56          1           0        6.376206    0.817552   -0.435216
     57          1           0        7.567215   -0.819170    0.978184
 ---------------------------------------------------------------------

 The electronic state is 1-A.
 Alpha  occ. eigenvalues --  -19.12996 -19.10115 -14.37228 -14.36337 -14.34424
 Alpha  occ. eigenvalues --  -10.31017 -10.29737 -10.24545 -10.23270 -10.22418
 Alpha  occ. eigenvalues --  -10.20119 -10.19893 -10.19427 -10.19111 -10.19075
 Alpha  occ. eigenvalues --  -10.18999 -10.18808 -10.18775 -10.18490 -10.18335
 Alpha  occ. eigenvalues --  -10.18027 -10.18018 -10.17786 -10.17621 -10.17458
 Alpha  occ. eigenvalues --  -10.17403 -10.16964 -10.16829  -1.04964  -1.03547
 Alpha  occ. eigenvalues --   -0.93573  -0.93360  -0.91059  -0.85940  -0.83769
 Alpha  occ. eigenvalues --   -0.81891  -0.78774  -0.76108  -0.74632  -0.74315
 Alpha  occ. eigenvalues --   -0.74071  -0.73234  -0.71838  -0.67878  -0.66824
 Alpha  occ. eigenvalues --   -0.64035  -0.62376  -0.61428  -0.61202  -0.60147
 Alpha  occ. eigenvalues --   -0.58302  -0.57859  -0.56813  -0.55168  -0.53197
 Alpha  occ. eigenvalues --   -0.52689  -0.51053  -0.49699  -0.48417  -0.47740
 Alpha  occ. eigenvalues --   -0.46634  -0.46154  -0.45794  -0.45356  -0.44351
 Alpha  occ. eigenvalues --   -0.44029  -0.43246  -0.42765  -0.42228  -0.42062
 Alpha  occ. eigenvalues --   -0.41706  -0.41458  -0.40903  -0.40657  -0.40574
 Alpha  occ. eigenvalues --   -0.40202  -0.40053  -0.38649  -0.37961  -0.37553
 Alpha  occ. eigenvalues --   -0.37387  -0.37334  -0.37063  -0.35639  -0.35331
 Alpha  occ. eigenvalues --   -0.35133  -0.34696  -0.34411  -0.33904  -0.32829
 Alpha  occ. eigenvalues --   -0.31644  -0.31116  -0.30791  -0.28790  -0.27095
 Alpha  occ. eigenvalues --   -0.26415  -0.25283  -0.25096  -0.24244  -0.23909
 Alpha  occ. eigenvalues --   -0.23714  -0.19694
 Alpha virt. eigenvalues --   -0.00931  -0.00476   0.01128   0.01208   0.01831
 Alpha virt. eigenvalues --    0.06146   0.07289   0.07691   0.09432   0.10237
 Alpha virt. eigenvalues --    0.10576   0.11234   0.11338   0.12652   0.12944

 Mulliken charges:
               1
     1  C   -0.530986
     2  C    0.179275
     3  C   -0.176741
     4  C   -0.179987
     5  C    0.160094
     6  C   -0.237372
     7  N   -0.592814
     8  C    0.598098
     9  O   -0.551796
    10  C    0.191126
    11  N   -0.709060
    12  C    0.838407
    13  O   -0.554381
    14  N   -0.765585
    15  C    0.364568
    16  C   -0.161060
    17  C   -0.198590
    18  C    0.182855
    19  C   -0.529665
    20  C   -0.186039
    21  C   -0.201962
    22  C   -0.324598
    23  C   -0.285562
    24  C   -0.259116
    25  C   -0.279921
    26  C   -0.271629
    27  C   -0.187132
    28  C   -0.181433
    29  H    0.165306
    30  H    0.155675
    31  H    0.163795
    32  H    0.126509
    33  H    0.152854
    34  H    0.199598
    35  H    0.154215
    36  H    0.341531
    37  H    0.345835
    38  H    0.324956
    39  H    0.180363
    40  H    0.120054
    41  H    0.154494
    42  H    0.151599
    43  H    0.160583
    44  H    0.117806
    45  H    0.114480
    46  H    0.141582
    47  H    0.200330
    48  H    0.114997
    49  H    0.144027
    50  H    0.128490
    51  H    0.151346
    52  H    0.128329
    53  H    0.187800
    54  H    0.148078
    55  H    0.130553
    56  H    0.121989
    57  H    0.123832
 Sum of Mulliken charges =  -0.00000

 Dipole moment (field-independent basis, Debye):
    X=              3.8791    Y=             -0.2363    Z=             -0.0294  Tot=              3.8864
 Quadrupole moment (field-independent basis, Debye-Ang):
   XX=           -151.8341   YY=           -157.2041   ZZ=           -167.4915
   XY=              8.4216   XZ=              7.3127   YZ=             -0.9383

 Normal termination of Gaussian 16 at Fri Nov  4 20:51:27 2022.
