 Gaussian 16, Revision B.01,
 Gaussian 16:  ES64L-G16RevB.01 20-Dec-2017

 -------------------------------------------------------------------
 #p b3lyp/6-31g(d) 6D 10F nosymm GFInput td=(50-50,nstate=2) SCF=XQC
 -------------------------------------------------------------------

 ------------------------------
 Gaussian input prepared by ASE
 ------------------------------
 Symbolic Z-matrix:
 Charge =  0 Multiplicity = 1

                          Input orientation:
 ---------------------------------------------------------------------
 Center     Atomic      Atomic             Coordinates (Angstroms)
 Number     Number       Type             X           Y           Z
 ---------------------------------------------------------------------
      1          6           0       -7.143960   -2.987043   -2.560125
      2          6           0       -6.345713   -1.985382   -1.761489
      3          6           0       -5.934146   -2.282158   -0.453044
      4          6           0       -5.174621   -1.381203    0.287257
      5          6           0       -4.824452   -0.160463   -0.294262
      6         16           0       -3.870989    1.029464    0.642682
      7          8           0       -4.085185    2.358949    0.049219
      8          8           0       -4.073884    0.772224    2.076595
      9          6           0       -2.073533    0.688407    0.262682
     10          7           0       -1.487713   -0.350789    1.066231
     11          7           0       -1.951110   -1.625716    0.931452
     12          7           0       -1.333831   -2.337488    1.809038
     13          7           0       -0.467670   -1.578746    2.528911
     14          6           0       -0.565420   -0.339868    2.071288
     15          6           0        0.417173    0.740635    2.508420
     16          6           0       -0.176699    2.124865    2.767897
     17          6           0       -1.476429    2.288922    3.260029
     18          6           0       -1.930856    3.571035    3.561749
     19          6           0       -1.065797    4.648669    3.373239
     20          7           0        0.187486    4.514466    2.922494
     21          6           0        0.610351    3.277835    2.636197
     22          7           0        1.605277    0.773610    1.651797
     23          6           0        1.415448    1.131868    0.251840
     24          6           0        2.770975    1.283187   -0.437525
     25          7           0        3.523344    0.032540   -0.376486
     26          6           0        4.484044   -0.256422   -1.335055
     27          6           0        5.062024    0.773033   -2.112816
     28          6           0        6.026968    0.487061   -3.073686
     29          6           0        6.460379   -0.819014   -3.296157
     30          6           0        5.895706   -1.841669   -2.531763
     31          6           0        6.380648   -3.255583   -2.710022
     32          9           0        5.429116   -4.166465   -2.398749
     33          9           0        6.770369   -3.499864   -3.981377
     34          9           0        7.446946   -3.522399   -1.917702
     35          6           0        4.920249   -1.577259   -1.571784
     36          6           0        3.051898   -0.972203    0.567337
     37          6           0        2.570727   -0.324821    1.870215
     38          6           0       -5.229448    0.171165   -1.588702
     39          6           0       -5.987134   -0.747011   -2.312612
     40          1           0       -7.879432   -3.502711   -1.933612
     41          1           0       -7.675553   -2.508985   -3.388509
     42          1           0       -6.487960   -3.756017   -2.988658
     43          1           0       -6.214139   -3.232583   -0.006183
     44          1           0       -4.862107   -1.613194    1.298548
     45          1           0       -1.582451    1.640018    0.461614
     46          1           0       -2.011725    0.438661   -0.798196
     47          1           0        0.768724    0.366798    3.477122
     48          1           0       -2.138517    1.439161    3.394926
     49          1           0       -2.939915    3.726797    3.929928
     50          1           0       -1.389398    5.664187    3.594732
     51          1           0        1.636536    3.187681    2.289099
     52          1           0        0.809886    0.397490   -0.311189
     53          1           0        0.894250    2.093924    0.197788
     54          1           0        3.323027    2.110482    0.035271
     55          1           0        2.597943    1.558702   -1.485599
     56          1           0        4.773267    1.805160   -1.948531
     57          1           0        6.452133    1.302272   -3.652920
     58          1           0        7.210496   -1.041057   -4.046483
     59          1           0        4.481394   -2.409047   -1.036087
     60          1           0        3.880521   -1.638580    0.823274
     61          1           0        2.255085   -1.602113    0.138360
     62          1           0        2.117978   -1.114076    2.480467
     63          1           0        3.439763    0.066969    2.416281
     64          1           0       -4.976785    1.139983   -2.006828
     65          1           0       -6.313561   -0.493282   -3.317828
 ---------------------------------------------------------------------

 SCF Done:  E(RB3LYP) =  -2237.70741516     A.U. after   15 cycles

 Excitation energies and oscillator strengths:

 Excited state symmetry could not be determined.
 Excited State   1:      Triplet-?Sym    3.4229 eV  362.22 nm  f=0.0000  <S**2>=2.000
     143 ->151        -0.20149
     145 ->151         0.57512
     145 ->153        -0.32038
 This state for optimization and/or second-order correction.
 Total Energy, E(TD-HF/TD-DFT) =  -2237.58162707
 Copying the excited state density for this state as the 1-particle RhoCI density.

 Excited state symmetry could not be determined.
 Excited State   2:      Triplet-?Sym    3.6134 eV  343.12 nm  f=0.0000  <S**2>=2.000
     143 ->151         0.20481
     145 ->146         0.41245
     145 ->147         0.12050
     145 ->151         0.31994
     145 ->153         0.38589

 Excited state symmetry could not be determined.
 Excited State   3:      Singlet-?Sym    3.6420 eV  340.43 nm  f=0.0041  <S**2>=0.000
     145 ->146         0.69364
     145 ->147         0.13204

 Excited state symmetry could not be determined.
 Excited State   4:      Singlet-?Sym    4.0229 eV  308.20 nm  f=0.0019  <S**2>=0.000
     145 ->146        -0.13292
     145 ->147         0.68767

 Alpha  occ. eigenvalues --  -89.11273 -24.71764 -24.71672 -24.71085 -19.16204
 Alpha  occ. eigenvalues --  -19.15905 -14.46299 -14.41936 -14.40568 -14.37173
 Alpha  occ. eigenvalues --  -14.36377 -14.35857 -14.33755 -10.42441 -10.29391
 Alpha  occ. eigenvalues --  -10.28913 -10.26986 -10.24159 -10.24140 -10.23987
 Alpha  occ. eigenvalues --  -10.23948 -10.23705 -10.23125 -10.22980 -10.22929
 Alpha  occ. eigenvalues --  -10.22885 -10.22533 -10.22290 -10.22147 -10.21539
 Alpha  occ. eigenvalues --  -10.21478 -10.21349 -10.20990 -10.20634 -10.20404
 Alpha  occ. eigenvalues --  -10.19871 -10.19691 -10.19497 -10.19165  -8.14199
 Alpha  occ. eigenvalues --   -6.10619  -6.10577  -6.10505  -1.29224  -1.20713
 Alpha  occ. eigenvalues --   -1.20198  -1.15234  -1.11652  -1.01580  -0.97896
 Alpha  occ. eigenvalues --   -0.97469  -0.95115  -0.94225  -0.90382  -0.88829
 Alpha  occ. eigenvalues --   -0.86086  -0.82690  -0.81343  -0.79645  -0.79382
 Alpha  occ. eigenvalues --   -0.78777  -0.77651  -0.77405  -0.76099  -0.73526
 Alpha  occ. eigenvalues --   -0.72703  -0.69751  -0.68787  -0.68290  -0.67398
 Alpha  occ. eigenvalues --   -0.66316  -0.64434  -0.63668  -0.63590  -0.62131
 Alpha  occ. eigenvalues --   -0.61598  -0.61145  -0.59509  -0.57724  -0.57053
 Alpha  occ. eigenvalues --   -0.56812  -0.56713  -0.55616  -0.54830  -0.53899
 Alpha  occ. eigenvalues --   -0.52038  -0.51927  -0.51777  -0.51172  -0.49993
 Alpha  occ. eigenvalues --   -0.49488  -0.49364  -0.49140  -0.48752  -0.47574
 Alpha  occ. eigenvalues --   -0.46927  -0.46809  -0.46492  -0.45692  -0.45457
 Alpha  occ. eigenvalues --   -0.45198  -0.44885  -0.44880  -0.44538  -0.44278
 Alpha  occ. eigenvalues --   -0.44050  -0.44004  -0.43788  -0.41980  -0.41196
 Alpha  occ. eigenvalues --   -0.41017  -0.40770  -0.40710  -0.40568  -0.40184
 Alpha  occ. eigenvalues --   -0.39987  -0.39492  -0.39297  -0.38937  -0.38594
 Alpha  occ. eigenvalues --   -0.38254  -0.38078  -0.37914  -0.37125  -0.36770
 Alpha  occ. eigenvalues --   -0.36630  -0.35950  -0.35543  -0.34607  -0.33887
 Alpha  occ. eigenvalues --   -0.33435  -0.32087  -0.31495  -0.31197  -0.30168
 Alpha  occ. eigenvalues --   -0.29675  -0.29536  -0.29018  -0.27718  -0.27427
 Alpha  occ. eigenvalues --   -0.26712  -0.26157  -0.26109  -0.23693  -0.20333
 Alpha virt. eigenvalues --   -0.05607  -0.04099  -0.03483  -0.02723  -0.02345
 Alpha virt. eigenvalues --   -0.01947   0.00307   0.00321   0.04068   0.05705
 Alpha virt. eigenvalues --    0.05892   0.06488   0.06825   0.08242   0.09119

 Mulliken charges:
               1
     1  C   -0.532080
     2  C    0.183524
     3  C   -0.176906
     4  C   -0.106148
     5  C   -0.167694
     6  S    1.150847
     7  O   -0.540171
     8  O   -0.541137
     9  C   -0.388802
    10  N   -0.329906
    11  N   -0.062075
    12  N   -0.079279
    13  N   -0.370422
    14  C    0.551545
    15  C   -0.087502
    16  C    0.083167
    17  C   -0.163814
    18  C   -0.143189
    19  C    0.042200
    20  N   -0.410811
    21  C   -0.004947
    22  N   -0.407762
    23  C   -0.169535
    24  C   -0.124847
    25  N   -0.512163
    26  C    0.363169
    27  C   -0.180041
    28  C   -0.140205
    29  C   -0.172264
    30  C   -0.006782
    31  C    0.778872
    32  F   -0.273128
    33  F   -0.272029
    34  F   -0.263046
    35  C   -0.242163
    36  C   -0.154464
    37  C   -0.147303
    38  C   -0.139828
    39  C   -0.176945
    40  H    0.170099
    41  H    0.164663
    42  H    0.178931
    43  H    0.146000
    44  H    0.187754
    45  H    0.241250
    46  H    0.228738
    47  H    0.207901
    48  H    0.188571
    49  H    0.156450
    50  H    0.148698
    51  H    0.159340
    52  H    0.133384
    53  H    0.159345
    54  H    0.157780
    55  H    0.154912
    56  H    0.134885
    57  H    0.135474
    58  H    0.145075
    59  H    0.151042
    60  H    0.169411
    61  H    0.152918
    62  H    0.181461
    63  H    0.158872
    64  H    0.179672
    65  H    0.141439
 Sum of Mulliken charges =  -0.00000

 Dipole moment (field-independent basis, Debye):
    X=             -3.6485    Y=              1.0935    Z=             -2.7427  Tot=              4.6936
 Quadrupole moment (field-independent basis, Debye-Ang):
   XX=           -230.5120   YY=           -251.4015   ZZ=           -228.9039
   XY=             28.2110   XZ=             20.5822   YZ=             -3.8219

 Normal termination of Gaussian 16 at Sat Nov  5 12:19:24 2022.
