 Gaussian 16, Revision B.01,
 Gaussian 16:  ES64L-G16RevB.01 20-Dec-2017

 -----------------------------
 #p b3lyp/6-31g(d) opt SCF=XQC
 -----------------------------

 ------------------------------
 Gaussian input prepared by ASE
 ------------------------------
 Symbolic Z-matrix:
 Charge =  0 Multiplicity = 1

 SCF Done:  E(RB3LYP) =  -2237.68491871     A.U. after   15 cycles
 SCF Done:  E(RB3LYP) =  -2237.69752208     A.U. after   13 cycles
 SCF Done:  E(RB3LYP) =  -2237.70112655     A.U. after   13 cycles
 SCF Done:  E(RB3LYP) =  -2237.70307910     A.U. after   13 cycles
 SCF Done:  E(RB3LYP) =  -2237.70390994     A.U. after   12 cycles
 SCF Done:  E(RB3LYP) =  -2237.70437048     A.U. after   12 cycles
 SCF Done:  E(RB3LYP) =  -2237.70466550     A.U. after   12 cycles
 SCF Done:  E(RB3LYP) =  -2237.70499894     A.U. after   12 cycles
 SCF Done:  E(RB3LYP) =  -2237.70509035     A.U. after   11 cycles
 SCF Done:  E(RB3LYP) =  -2237.70517524     A.U. after   12 cycles
 SCF Done:  E(RB3LYP) =  -2237.70732955     A.U. after   13 cycles
 SCF Done:  E(RB3LYP) =  -2237.70733868     A.U. after   12 cycles
 SCF Done:  E(RB3LYP) =  -2237.70735538     A.U. after   10 cycles
 SCF Done:  E(RB3LYP) =  -2237.70740199     A.U. after   13 cycles
 SCF Done:  E(RB3LYP) =  -2237.70741318     A.U. after   11 cycles
 SCF Done:  E(RB3LYP) =  -2237.70741431     A.U. after    9 cycles
 SCF Done:  E(RB3LYP) =  -2237.70741503     A.U. after    9 cycles
 SCF Done:  E(RB3LYP) =  -2237.70741516     A.U. after    9 cycles
 SCF Done:  E(RB3LYP) =  -2237.70741514     A.U. after    7 cycles
 SCF Done:  E(RB3LYP) =  -2237.70741516     A.U. after    7 cycles
 Optimization completed.
    -- Stationary point found.

                         Standard orientation:
 ---------------------------------------------------------------------
 Center     Atomic      Atomic             Coordinates (Angstroms)
 Number     Number       Type             X           Y           Z
 ---------------------------------------------------------------------
      1          6           0        5.835241   -5.844217    0.436859
      2          6           0        5.452402   -4.384515    0.469202
      3          6           0        5.317881   -3.656089   -0.722768
      4          6           0        4.939208   -2.317006   -0.712277
      5          6           0        4.694041   -1.697494    0.515358
      6         16           0        4.231485    0.030720    0.562246
      7          8           0        4.541518    0.552806    1.902736
      8          8           0        4.719867    0.682992   -0.662282
      9          6           0        2.364203    0.083004    0.516517
     10          7           0        1.804431    0.012400   -0.806538
     11          7           0        1.976043   -1.128523   -1.532615
     12          7           0        1.465054   -0.907532   -2.693590
     13          7           0        0.953366    0.348114   -2.768879
     14          6           0        1.168038    0.924732   -1.596181
     15          6           0        0.537762    2.269781   -1.253172
     16          6           0        1.423827    3.252289   -0.487882
     17          6           0        2.810649    3.291145   -0.671248
     18          6           0        3.554903    4.268133   -0.013271
     19          6           0        2.886427    5.184230    0.798557
     20          7           0        1.559332    5.178950    0.973741
     21          6           0        0.857323    4.234972    0.336461
     22          7           0       -0.793145    2.111285   -0.661522
     23          6           0       -0.880344    1.435946    0.627111
     24          6           0       -2.308711    1.517367    1.164432
     25          7           0       -3.244230    0.879078    0.241776
     26          6           0       -4.442857    0.357034    0.706600
     27          6           0       -4.987714    0.783781    1.939389
     28          6           0       -6.190378    0.263715    2.407682
     29          6           0       -6.900116   -0.687165    1.676062
     30          6           0       -6.369869   -1.113418    0.456995
     31          6           0       -7.138242   -2.098921   -0.382341
     32          9           0       -6.326909   -2.843802   -1.169043
     33          9           0       -7.859276   -2.954927    0.376120
     34          9           0       -8.014532   -1.476943   -1.207698
     35          6           0       -5.161421   -0.612576   -0.024460
     36          6           0       -2.756557    0.605900   -1.103632
     37          6           0       -1.865679    1.744738   -1.611082
     38          6           0        4.832149   -2.390086    1.719857
     39          6           0        5.209779   -3.730759    1.685595
     40          1           0        6.589790   -6.042565   -0.331688
     41          1           0        6.232773   -6.177189    1.400420
     42          1           0        4.964251   -6.470907    0.204622
     43          1           0        5.514367   -4.144302   -1.673783
     44          1           0        4.840070   -1.757557   -1.634981
     45          1           0        2.121272    1.039473    0.977441
     46          1           0        2.004966   -0.742890    1.133367
     47          1           0        0.364789    2.712023   -2.241215
     48          1           0        3.315377    2.566128   -1.302320
     49          1           0        4.633547    4.310051   -0.126350
     50          1           0        3.437118    5.957949    1.330677
     51          1           0       -0.220365    4.258621    0.476781
     52          1           0       -0.574917    0.373783    0.587834
     53          1           0       -0.217245    1.939664    1.338932
     54          1           0       -2.567408    2.573991    1.335712
     55          1           0       -2.343169    1.007820    2.135762
     56          1           0       -4.480814    1.544024    2.523117
     57          1           0       -6.582075    0.614914    3.358513
     58          1           0       -7.835788   -1.093373    2.042779
     59          1           0       -4.770183   -1.007065   -0.953302
     60          1           0       -3.609176    0.533266   -1.784766
     61          1           0       -2.217343   -0.354082   -1.161955
     62          1           0       -1.435438    1.423437   -2.566054
     63          1           0       -2.490105    2.628068   -1.802741
     64          1           0        4.672009   -1.878775    2.663357
     65          1           0        5.327681   -4.274894    2.619089
 ---------------------------------------------------------------------

 The electronic state is 1-A.
 Alpha  occ. eigenvalues --  -89.11273 -24.71764 -24.71672 -24.71085 -19.16204
 Alpha  occ. eigenvalues --  -19.15905 -14.46299 -14.41936 -14.40568 -14.37173
 Alpha  occ. eigenvalues --  -14.36377 -14.35857 -14.33755 -10.42441 -10.29391
 Alpha  occ. eigenvalues --  -10.28913 -10.26985 -10.24159 -10.24139 -10.23986
 Alpha  occ. eigenvalues --  -10.23948 -10.23705 -10.23125 -10.22980 -10.22929
 Alpha  occ. eigenvalues --  -10.22885 -10.22533 -10.22290 -10.22147 -10.21539
 Alpha  occ. eigenvalues --  -10.21478 -10.21349 -10.20990 -10.20634 -10.20405
 Alpha  occ. eigenvalues --  -10.19871 -10.19691 -10.19497 -10.19165  -8.14199
 Alpha  occ. eigenvalues --   -6.10619  -6.10577  -6.10505  -1.29224  -1.20713
 Alpha  occ. eigenvalues --   -1.20198  -1.15234  -1.11652  -1.01580  -0.97896
 Alpha  occ. eigenvalues --   -0.97469  -0.95115  -0.94224  -0.90382  -0.88829
 Alpha  occ. eigenvalues --   -0.86086  -0.82690  -0.81343  -0.79645  -0.79382
 Alpha  occ. eigenvalues --   -0.78777  -0.77651  -0.77405  -0.76099  -0.73526
 Alpha  occ. eigenvalues --   -0.72703  -0.69751  -0.68787  -0.68290  -0.67398
 Alpha  occ. eigenvalues --   -0.66316  -0.64434  -0.63668  -0.63590  -0.62131
 Alpha  occ. eigenvalues --   -0.61598  -0.61145  -0.59509  -0.57724  -0.57053
 Alpha  occ. eigenvalues --   -0.56812  -0.56713  -0.55616  -0.54829  -0.53899
 Alpha  occ. eigenvalues --   -0.52038  -0.51927  -0.51777  -0.51172  -0.49992
 Alpha  occ. eigenvalues --   -0.49488  -0.49364  -0.49140  -0.48752  -0.47574
 Alpha  occ. eigenvalues --   -0.46927  -0.46809  -0.46492  -0.45692  -0.45457
 Alpha  occ. eigenvalues --   -0.45198  -0.44885  -0.44880  -0.44538  -0.44278
 Alpha  occ. eigenvalues --   -0.44050  -0.44004  -0.43788  -0.41980  -0.41196
 Alpha  occ. eigenvalues --   -0.41017  -0.40770  -0.40710  -0.40568  -0.40184
 Alpha  occ. eigenvalues --   -0.39987  -0.39492  -0.39297  -0.38937  -0.38594
 Alpha  occ. eigenvalues --   -0.38254  -0.38078  -0.37914  -0.37125  -0.36770
 Alpha  occ. eigenvalues --   -0.36630  -0.35950  -0.35543  -0.34607  -0.33887
 Alpha  occ. eigenvalues --   -0.33435  -0.32087  -0.31495  -0.31196  -0.30168
 Alpha  occ. eigenvalues --   -0.29675  -0.29536  -0.29018  -0.27718  -0.27427
 Alpha  occ. eigenvalues --   -0.26712  -0.26157  -0.26109  -0.23693  -0.20333
 Alpha virt. eigenvalues --   -0.05607  -0.04099  -0.03483  -0.02723  -0.02345
 Alpha virt. eigenvalues --   -0.01947   0.00307   0.00321   0.04068   0.05705
 Alpha virt. eigenvalues --    0.05892   0.06488   0.06825   0.08242   0.09119

 Mulliken charges:
               1
     1  C   -0.532082
     2  C    0.183506
     3  C   -0.176899
     4  C   -0.106127
     5  C   -0.167706
     6  S    1.150821
     7  O   -0.540160
     8  O   -0.541140
     9  C   -0.388791
    10  N   -0.329900
    11  N   -0.062072
    12  N   -0.079272
    13  N   -0.370412
    14  C    0.551508
    15  C   -0.087488
    16  C    0.083171
    17  C   -0.163804
    18  C   -0.143193
    19  C    0.042198
    20  N   -0.410805
    21  C   -0.004961
    22  N   -0.407758
    23  C   -0.169508
    24  C   -0.124864
    25  N   -0.512158
    26  C    0.363186
    27  C   -0.180037
    28  C   -0.140211
    29  C   -0.172260
    30  C   -0.006764
    31  C    0.778857
    32  F   -0.273128
    33  F   -0.272032
    34  F   -0.263042
    35  C   -0.242175
    36  C   -0.154519
    37  C   -0.147282
    38  C   -0.139828
    39  C   -0.176932
    40  H    0.170100
    41  H    0.164664
    42  H    0.178931
    43  H    0.146000
    44  H    0.187751
    45  H    0.241248
    46  H    0.228739
    47  H    0.207901
    48  H    0.188562
    49  H    0.156450
    50  H    0.148698
    51  H    0.159341
    52  H    0.133378
    53  H    0.159342
    54  H    0.157781
    55  H    0.154913
    56  H    0.134883
    57  H    0.135475
    58  H    0.145075
    59  H    0.151047
    60  H    0.169417
    61  H    0.152927
    62  H    0.181459
    63  H    0.158871
    64  H    0.179672
    65  H    0.141438
 Sum of Mulliken charges =  -0.00000

 Dipole moment (field-independent basis, Debye):
    X=              3.0245    Y=             -2.0181    Z=              2.9683  Tot=              4.6937
 Quadrupole moment (field-independent basis, Debye-Ang):
   XX=           -249.7019   YY=           -224.5278   ZZ=           -234.7501
   XY=            -32.5543   XZ=             -5.9460   YZ=            -11.2885

 Normal termination of Gaussian 16 at Fri Nov  4 22:00:20 2022.
