 Gaussian 16, Revision B.01,
 Gaussian 16:  ES64L-G16RevB.01 20-Dec-2017

 -----------------------------
 #p b3lyp/6-31g(d) opt SCF=XQC
 -----------------------------

 ------------------------------
 Gaussian input prepared by ASE
 ------------------------------
 Symbolic Z-matrix:
 Charge =  0 Multiplicity = 1

 SCF Done:  E(RB3LYP) =  -1162.31428021     A.U. after   15 cycles
 SCF Done:  E(RB3LYP) =  -1162.31967356     A.U. after   13 cycles
 SCF Done:  E(RB3LYP) =  -1162.31965482     A.U. after   12 cycles
 SCF Done:  E(RB3LYP) =  -1162.32051684     A.U. after   12 cycles
 SCF Done:  E(RB3LYP) =  -1162.32072194     A.U. after   12 cycles
 SCF Done:  E(RB3LYP) =  -1162.32078787     A.U. after   12 cycles
 SCF Done:  E(RB3LYP) =  -1162.32081616     A.U. after   11 cycles
 SCF Done:  E(RB3LYP) =  -1162.32084226     A.U. after   10 cycles
 SCF Done:  E(RB3LYP) =  -1162.32086802     A.U. after   10 cycles
 SCF Done:  E(RB3LYP) =  -1162.32088568     A.U. after   10 cycles
 SCF Done:  E(RB3LYP) =  -1162.32090216     A.U. after   10 cycles
 SCF Done:  E(RB3LYP) =  -1162.32092678     A.U. after    9 cycles
 SCF Done:  E(RB3LYP) =  -1162.32094285     A.U. after   10 cycles
 SCF Done:  E(RB3LYP) =  -1162.32094534     A.U. after   10 cycles
 SCF Done:  E(RB3LYP) =  -1162.32094634     A.U. after    8 cycles
 SCF Done:  E(RB3LYP) =  -1162.32094650     A.U. after    7 cycles
 Optimization completed.
    -- Stationary point found.

                         Standard orientation:
 ---------------------------------------------------------------------
 Center     Atomic      Atomic             Coordinates (Angstroms)
 Number     Number       Type             X           Y           Z
 ---------------------------------------------------------------------
      1          6           0       -7.912783   -0.065336   -1.680055
      2          6           0       -6.693664   -0.050299   -0.792538
      3          6           0       -6.841602    0.242274    0.604394
      4          6           0       -5.769206    0.267798    1.444633
      5          7           0       -4.515007    0.006723    0.943225
      6          6           0       -3.281864   -0.036753    1.542862
      7          6           0       -2.394779   -0.346521    0.525939
      8          6           0       -0.941841   -0.490055    0.749320
      9          8           0       -0.423507   -0.400234    1.846293
     10          8           0       -0.267411   -0.762889   -0.388759
     11          6           0        1.146081   -0.835400   -0.257249
     12          6           0        1.782144    0.561543   -0.233888
     13          8           0        1.068364    1.557730   -0.253907
     14          6           0        3.242729    0.639150   -0.191603
     15          6           0        3.916077    1.861370   -0.175968
     16          6           0        3.388768    3.258544   -0.187538
     17          7           0        5.261168    1.619443   -0.144020
     18          6           0        5.514053    0.256222   -0.135926
     19          6           0        6.734857   -0.418344   -0.105028
     20          6           0        6.698652   -1.808506   -0.101893
     21          6           0        5.470520   -2.493209   -0.127532
     22          6           0        4.258563   -1.810800   -0.158080
     23          6           0        4.256732   -0.403637   -0.164943
     24          7           0       -3.024066   -0.500731   -0.678609
     25          6           0       -4.307349   -0.286346   -0.423378
     26          6           0       -5.435365   -0.308763   -1.281119
     27          1           0       -7.648803   -0.302506   -2.714652
     28          1           0       -8.644220   -0.809257   -1.339155
     29          1           0       -8.420091    0.907916   -1.675793
     30          1           0       -7.826306    0.449916    1.011229
     31          1           0       -5.831087    0.483810    2.504803
     32          1           0       -3.128657    0.150376    2.593728
     33          1           0        1.495111   -1.394373   -1.130456
     34          1           0        1.419928   -1.378361    0.653761
     35          1           0        4.207388    3.987031   -0.163074
     36          1           0        2.778200    3.436923   -1.077692
     37          1           0        2.729996    3.431453    0.668585
     38          1           0        5.966665    2.341529   -0.123439
     39          1           0        7.677537    0.122323   -0.083476
     40          1           0        7.628201   -2.369884   -0.077984
     41          1           0        5.467279   -3.579641   -0.121833
     42          1           0        3.332588   -2.374832   -0.172234
     43          1           0       -5.262292   -0.534914   -2.327975
 ---------------------------------------------------------------------

 The electronic state is 1-A.
 Alpha  occ. eigenvalues --  -19.17595 -19.11755 -19.11654 -14.41621 -14.39350
 Alpha  occ. eigenvalues --  -14.30906 -10.30152 -10.26100 -10.24796 -10.24555
 Alpha  occ. eigenvalues --  -10.24396 -10.23462 -10.22554 -10.21846 -10.21303
 Alpha  occ. eigenvalues --  -10.21193 -10.20509 -10.19899 -10.19495 -10.19473
 Alpha  occ. eigenvalues --  -10.19347 -10.19315 -10.18898 -10.18815 -10.18452
 Alpha  occ. eigenvalues --  -10.18262  -1.08882  -1.03180  -1.01722  -0.99635
 Alpha  occ. eigenvalues --   -0.99296  -0.90605  -0.84525  -0.84157  -0.79908
 Alpha  occ. eigenvalues --   -0.76941  -0.76350  -0.76157  -0.73913  -0.73599
 Alpha  occ. eigenvalues --   -0.70041  -0.69367  -0.66296  -0.64016  -0.61952
 Alpha  occ. eigenvalues --   -0.60917  -0.59659  -0.59021  -0.56083  -0.54200
 Alpha  occ. eigenvalues --   -0.53778  -0.51262  -0.50498  -0.49627  -0.48575
 Alpha  occ. eigenvalues --   -0.47332  -0.46520  -0.46312  -0.46099  -0.45667
 Alpha  occ. eigenvalues --   -0.44872  -0.44433  -0.44031  -0.43412  -0.43259
 Alpha  occ. eigenvalues --   -0.42459  -0.41625  -0.40965  -0.40280  -0.40081
 Alpha  occ. eigenvalues --   -0.39978  -0.39719  -0.38391  -0.37850  -0.36648
 Alpha  occ. eigenvalues --   -0.36154  -0.35551  -0.34347  -0.33719  -0.33483
 Alpha  occ. eigenvalues --   -0.33079  -0.31246  -0.29057  -0.27770  -0.27162
 Alpha  occ. eigenvalues --   -0.25832  -0.24323  -0.23360  -0.22809  -0.20907
 Alpha  occ. eigenvalues --   -0.20862
 Alpha virt. eigenvalues --   -0.03917  -0.02971  -0.00631  -0.00161   0.01787
 Alpha virt. eigenvalues --    0.02364   0.06910   0.09201   0.09453   0.09691
 Alpha virt. eigenvalues --    0.10755   0.11909   0.12438   0.12801   0.13349

 Mulliken charges:
               1
     1  C   -0.530266
     2  C    0.187484
     3  C   -0.226145
     4  C    0.076403
     5  N   -0.493620
     6  C    0.017237
     7  C    0.151035
     8  C    0.602465
     9  O   -0.505665
    10  O   -0.450040
    11  C   -0.137192
    12  C    0.394834
    13  O   -0.495475
    14  C   -0.042704
    15  C    0.337070
    16  C   -0.501260
    17  N   -0.736481
    18  C    0.316274
    19  C   -0.166553
    20  C   -0.148344
    21  C   -0.138293
    22  C   -0.213587
    23  C    0.070450
    24  N   -0.550064
    25  C    0.544450
    26  C   -0.243635
    27  H    0.165241
    28  H    0.165371
    29  H    0.165890
    30  H    0.141399
    31  H    0.169263
    32  H    0.179954
    33  H    0.178692
    34  H    0.188109
    35  H    0.132633
    36  H    0.197551
    37  H    0.200492
    38  H    0.328659
    39  H    0.126098
    40  H    0.127989
    41  H    0.127255
    42  H    0.132749
    43  H    0.154274
 Sum of Mulliken charges =  -0.00000

 Dipole moment (field-independent basis, Debye):
    X=             -0.0267    Y=              1.6003    Z=              0.4906  Tot=              1.6740
 Quadrupole moment (field-independent basis, Debye-Ang):
   XX=            -78.1482   YY=           -138.7085   ZZ=           -148.2483
   XY=              9.0473   XZ=             -7.0292   YZ=              1.6686

 Normal termination of Gaussian 16 at Fri Nov  4 20:09:59 2022.
