 Gaussian 16, Revision B.01,
 Gaussian 16:  ES64L-G16RevB.01 20-Dec-2017

 -------------------------------------------------------------------
 #p b3lyp/6-31g(d) 6D 10F nosymm GFInput td=(50-50,nstate=2) SCF=XQC
 -------------------------------------------------------------------

 ------------------------------
 Gaussian input prepared by ASE
 ------------------------------
 Symbolic Z-matrix:
 Charge =  0 Multiplicity = 1

                          Input orientation:
 ---------------------------------------------------------------------
 Center     Atomic      Atomic             Coordinates (Angstroms)
 Number     Number       Type             X           Y           Z
 ---------------------------------------------------------------------
      1          6           0        7.884672   -0.848456   -1.244811
      2          6           0        6.639230   -0.371370   -0.540944
      3          6           0        6.735398    0.132516    0.799112
      4          6           0        5.637652    0.573866    1.475019
      5          7           0        4.408036    0.536387    0.859206
      6          6           0        3.159168    0.907969    1.288568
      7          6           0        2.313524    0.630418    0.227974
      8          6           0        0.859638    0.885970    0.277342
      9          8           0        0.305612    1.405849    1.227536
     10          8           0        0.228985    0.509981   -0.856424
     11          6           0       -1.184910    0.655840   -0.844588
     12          6           0       -1.864599   -0.502538   -0.101113
     13          8           0       -1.181921   -1.359877    0.447697
     14          6           0       -3.327502   -0.530747   -0.085742
     15          6           0       -4.038763   -1.545672    0.555740
     16          6           0       -3.555128   -2.734542    1.319264
     17          7           0       -5.376013   -1.311308    0.395571
     18          6           0       -5.586437   -0.155633   -0.340993
     19          6           0       -6.786008    0.441534   -0.729293
     20          6           0       -6.706625    1.614385   -1.472252
     21          6           0       -5.457547    2.165465   -1.809743
     22          6           0       -4.267070    1.561966   -1.417307
     23          6           0       -4.308869    0.372403   -0.666738
     24          7           0        2.983679    0.105802   -0.842723
     25          6           0        4.251298    0.049834   -0.458107
     26          6           0        5.405047   -0.404104   -1.144726
     27          1           0        7.659819   -1.202855   -2.254844
     28          1           0        8.628215   -0.045272   -1.326486
     29          1           0        8.361049   -1.671357   -0.696635
     30          1           0        7.700317    0.166782    1.295126
     31          1           0        5.660479    0.961859    2.486648
     32          1           0        2.968294    1.317418    2.267714
     33          1           0       -1.489619    0.660340   -1.895252
     34          1           0       -1.469308    1.606468   -0.380732
     35          1           0       -4.396411   -3.327199    1.696667
     36          1           0       -2.923605   -3.370029    0.691315
     37          1           0       -2.928424   -2.425953    2.161191
     38          1           0       -6.103963   -1.901778    0.771062
     39          1           0       -7.745293    0.006816   -0.460547
     40          1           0       -7.618531    2.109526   -1.793251
     41          1           0       -5.420638    3.084063   -2.388701
     42          1           0       -3.323971    2.020520   -1.693087
     43          1           0        5.271044   -0.775288   -2.155306
 ---------------------------------------------------------------------

 SCF Done:  E(RB3LYP) =  -1162.32094755     A.U. after   15 cycles

 Excitation energies and oscillator strengths:

 Excited state symmetry could not be determined.
 Excited State   1:      Triplet-?Sym    2.8202 eV  439.64 nm  f=0.0000  <S**2>=2.000
      87 -> 92        -0.17410
      91 -> 92         0.64511
      91 -> 94         0.14725
 This state for optimization and/or second-order correction.
 Total Energy, E(TD-HF/TD-DFT) =  -1162.21730864
 Copying the excited state density for this state as the 1-particle RhoCI density.

 Excited state symmetry could not be determined.
 Excited State   2:      Triplet-?Sym    3.0984 eV  400.16 nm  f=0.0000  <S**2>=2.000
      84 -> 95         0.11414
      90 -> 93         0.66425
      90 -> 95        -0.10614

 Excited state symmetry could not be determined.
 Excited State   3:      Singlet-?Sym    4.0496 eV  306.16 nm  f=0.1014  <S**2>=0.000
      87 -> 94         0.14390
      91 -> 92         0.67411

 Excited state symmetry could not be determined.
 Excited State   4:      Singlet-?Sym    4.1032 eV  302.16 nm  f=0.0000  <S**2>=0.000
      88 -> 93         0.64771
      88 -> 95         0.23290

 Alpha  occ. eigenvalues --  -19.17595 -19.11755 -19.11654 -14.41621 -14.39350
 Alpha  occ. eigenvalues --  -14.30906 -10.30151 -10.26100 -10.24796 -10.24555
 Alpha  occ. eigenvalues --  -10.24396 -10.23462 -10.22554 -10.21846 -10.21303
 Alpha  occ. eigenvalues --  -10.21193 -10.20509 -10.19899 -10.19495 -10.19473
 Alpha  occ. eigenvalues --  -10.19347 -10.19315 -10.18898 -10.18815 -10.18452
 Alpha  occ. eigenvalues --  -10.18262  -1.08882  -1.03180  -1.01722  -0.99635
 Alpha  occ. eigenvalues --   -0.99296  -0.90605  -0.84525  -0.84157  -0.79908
 Alpha  occ. eigenvalues --   -0.76941  -0.76350  -0.76157  -0.73913  -0.73599
 Alpha  occ. eigenvalues --   -0.70041  -0.69367  -0.66296  -0.64016  -0.61952
 Alpha  occ. eigenvalues --   -0.60917  -0.59659  -0.59021  -0.56083  -0.54200
 Alpha  occ. eigenvalues --   -0.53778  -0.51262  -0.50498  -0.49627  -0.48575
 Alpha  occ. eigenvalues --   -0.47332  -0.46520  -0.46312  -0.46099  -0.45667
 Alpha  occ. eigenvalues --   -0.44872  -0.44433  -0.44031  -0.43412  -0.43259
 Alpha  occ. eigenvalues --   -0.42459  -0.41625  -0.40965  -0.40280  -0.40081
 Alpha  occ. eigenvalues --   -0.39978  -0.39719  -0.38391  -0.37850  -0.36648
 Alpha  occ. eigenvalues --   -0.36154  -0.35551  -0.34347  -0.33719  -0.33483
 Alpha  occ. eigenvalues --   -0.33079  -0.31246  -0.29057  -0.27770  -0.27162
 Alpha  occ. eigenvalues --   -0.25832  -0.24323  -0.23360  -0.22809  -0.20907
 Alpha  occ. eigenvalues --   -0.20862
 Alpha virt. eigenvalues --   -0.03917  -0.02971  -0.00631  -0.00161   0.01787
 Alpha virt. eigenvalues --    0.02364   0.06910   0.09201   0.09453   0.09691
 Alpha virt. eigenvalues --    0.10755   0.11909   0.12438   0.12801   0.13349

 Mulliken charges:
               1
     1  C   -0.530267
     2  C    0.187469
     3  C   -0.226125
     4  C    0.076385
     5  N   -0.493609
     6  C    0.017235
     7  C    0.151041
     8  C    0.602466
     9  O   -0.505666
    10  O   -0.450040
    11  C   -0.137190
    12  C    0.394826
    13  O   -0.495466
    14  C   -0.042713
    15  C    0.337078
    16  C   -0.501260
    17  N   -0.736485
    18  C    0.316278
    19  C   -0.166556
    20  C   -0.148343
    21  C   -0.138293
    22  C   -0.213579
    23  C    0.070442
    24  N   -0.550064
    25  C    0.544439
    26  C   -0.243624
    27  H    0.165241
    28  H    0.165371
    29  H    0.165890
    30  H    0.141399
    31  H    0.169264
    32  H    0.179955
    33  H    0.178694
    34  H    0.188111
    35  H    0.132633
    36  H    0.197551
    37  H    0.200493
    38  H    0.328658
    39  H    0.126097
    40  H    0.127989
    41  H    0.127255
    42  H    0.132748
    43  H    0.154274
 Sum of Mulliken charges =  -0.00000

 Dipole moment (field-independent basis, Debye):
    X=             -0.0381    Y=             -1.0848    Z=              1.2744  Tot=              1.6740
 Quadrupole moment (field-independent basis, Debye-Ang):
   XX=            -78.1274   YY=           -143.3770   ZZ=           -144.0985
   XY=             11.0466   XZ=              3.7103   YZ=             -4.3363

 Normal termination of Gaussian 16 at Sat Nov  5 12:07:02 2022.
