 Gaussian 16, Revision B.01,
 Gaussian 16:  ES64L-G16RevB.01 20-Dec-2017

 -----------------------------
 #p b3lyp/6-31g(d) opt SCF=XQC
 -----------------------------

 ------------------------------
 Gaussian input prepared by ASE
 ------------------------------
 Symbolic Z-matrix:
 Charge =  0 Multiplicity = 1

 SCF Done:  E(RB3LYP) =  -1644.72321692     A.U. after   14 cycles
 SCF Done:  E(RB3LYP) =  -1644.72985933     A.U. after   12 cycles
 SCF Done:  E(RB3LYP) =  -1644.73023927     A.U. after   12 cycles
 SCF Done:  E(RB3LYP) =  -1644.73015067     A.U. after   12 cycles
 SCF Done:  E(RB3LYP) =  -1644.73046633     A.U. after   11 cycles
 SCF Done:  E(RB3LYP) =  -1644.73057416     A.U. after   11 cycles
 SCF Done:  E(RB3LYP) =  -1644.73060578     A.U. after   11 cycles
 SCF Done:  E(RB3LYP) =  -1644.73062182     A.U. after   10 cycles
 SCF Done:  E(RB3LYP) =  -1644.73063121     A.U. after   11 cycles
 SCF Done:  E(RB3LYP) =  -1644.73063352     A.U. after   10 cycles
 SCF Done:  E(RB3LYP) =  -1644.73063537     A.U. after   10 cycles
 SCF Done:  E(RB3LYP) =  -1644.73063653     A.U. after    9 cycles
 SCF Done:  E(RB3LYP) =  -1644.73063729     A.U. after    8 cycles
 SCF Done:  E(RB3LYP) =  -1644.73063759     A.U. after    8 cycles
 SCF Done:  E(RB3LYP) =  -1644.73063767     A.U. after    7 cycles
 SCF Done:  E(RB3LYP) =  -1644.73063770     A.U. after    7 cycles
 SCF Done:  E(RB3LYP) =  -1644.73063772     A.U. after    7 cycles
 SCF Done:  E(RB3LYP) =  -1644.73063774     A.U. after    6 cycles
 Optimization completed.
    -- Stationary point found.

                         Standard orientation:
 ---------------------------------------------------------------------
 Center     Atomic      Atomic             Coordinates (Angstroms)
 Number     Number       Type             X           Y           Z
 ---------------------------------------------------------------------
      1          6           0       10.123287    2.265016   -0.344388
      2          6           0        8.972346    3.024876    0.307932
      3          8           0        7.780654    3.003326   -0.480645
      4          6           0        6.968235    1.903296   -0.456302
      5          6           0        5.848618    1.959352   -1.294654
      6          6           0        4.942114    0.907179   -1.339650
      7          6           0        5.124150   -0.237338   -0.543441
      8          7           0        4.173439   -1.291266   -0.592177
      9          6           0        2.903175   -1.126427   -1.299718
     10          6           0        2.072869   -2.367848   -0.886654
     11          6           0        1.146322   -2.068420    0.289129
     12          8           0        1.157442   -2.619265    1.360768
     13          8           0        0.268230   -1.082074   -0.068913
     14          6           0       -0.716960   -0.639215    0.821055
     15          6           0       -0.433635   -0.281588    2.137271
     16          6           0       -1.473257    0.216927    2.921859
     17          6           0       -2.762420    0.358095    2.411793
     18          6           0       -3.019149    0.003930    1.082142
     19          7           0       -4.332125    0.151191    0.538902
     20          6           0       -4.910748   -0.742798   -0.401881
     21          8           0       -4.424026   -1.789451   -0.767362
     22          6           0       -6.191299   -0.082372   -0.878495
     23          6           0       -7.387875   -0.914573   -1.316157
     24          6           0       -8.587885    0.006564   -1.440312
     25          6           0       -8.668105    1.261475   -0.963542
     26          6           0       -9.888951    2.118316   -1.181734
     27          6           0       -7.545634    1.911586   -0.160901
     28          6           0       -6.563570    0.837703    0.282134
     29          6           0       -5.217401    1.211192    0.874849
     30          8           0       -4.932802    2.179428    1.543318
     31          6           0       -1.989632   -0.496934    0.278848
     32          6           0        3.134518   -3.407940   -0.521278
     33          6           0        4.376789   -2.595753   -0.162167
     34          8           0        5.370627   -3.034331    0.390777
     35          6           0        6.247425   -0.291454    0.295036
     36          6           0        7.158765    0.763896    0.334423
     37          1           0       10.326945    2.670480   -1.340647
     38          1           0        9.898152    1.199412   -0.449437
     39          1           0       11.031049    2.365403    0.262036
     40          1           0        9.220236    4.087120    0.392558
     41          1           0        8.765387    2.654912    1.320566
     42          1           0        5.702268    2.842294   -1.908829
     43          1           0        4.092820    0.987633   -2.009097
     44          1           0        2.418128   -0.188934   -1.016700
     45          1           0        3.058877   -1.109702   -2.387620
     46          1           0        1.432717   -2.677139   -1.719292
     47          1           0        0.564220   -0.399104    2.539861
     48          1           0       -1.274888    0.498788    3.951575
     49          1           0       -3.554936    0.755873    3.031972
     50          1           0       -5.890569    0.555649   -1.725899
     51          1           0       -7.587344   -1.720612   -0.594051
     52          1           0       -7.189732   -1.411494   -2.273496
     53          1           0       -9.443039   -0.396661   -1.981476
     54          1           0       -9.626481    3.056020   -1.691210
     55          1           0      -10.350499    2.402557   -0.226021
     56          1           0      -10.643962    1.605570   -1.785563
     57          1           0       -7.961119    2.440936    0.705808
     58          1           0       -7.040014    2.679532   -0.765576
     59          1           0       -7.056213    0.219696    1.050859
     60          1           0       -2.166547   -0.789827   -0.747145
     61          1           0        2.844883   -4.040280    0.319676
     62          1           0        3.377037   -4.056634   -1.371169
     63          1           0        6.414666   -1.168570    0.903498
     64          1           0        8.015212    0.676093    0.993030
 ---------------------------------------------------------------------

 The electronic state is 1-A.
 Alpha  occ. eigenvalues --  -19.21380 -19.16978 -19.15542 -19.15123 -19.15122
 Alpha  occ. eigenvalues --  -19.11546 -14.40223 -14.37737 -10.33378 -10.31607
 Alpha  occ. eigenvalues --  -10.31606 -10.28733 -10.26264 -10.24815 -10.24303
 Alpha  occ. eigenvalues --  -10.24163 -10.24147 -10.22706 -10.22624 -10.22010
 Alpha  occ. eigenvalues --  -10.21982 -10.20703 -10.20681 -10.20660 -10.20343
 Alpha  occ. eigenvalues --  -10.20289 -10.20094 -10.20017 -10.19889 -10.19473
 Alpha  occ. eigenvalues --  -10.19137 -10.19115 -10.18435 -10.18298 -10.18208
 Alpha  occ. eigenvalues --  -10.18158  -1.12079  -1.07609  -1.05806  -1.05485
 Alpha  occ. eigenvalues --   -1.03937  -1.03549  -0.96868  -0.95771  -0.87985
 Alpha  occ. eigenvalues --   -0.85898  -0.85218  -0.81754  -0.80359  -0.77344
 Alpha  occ. eigenvalues --   -0.77167  -0.76508  -0.75588  -0.74638  -0.72859
 Alpha  occ. eigenvalues --   -0.72318  -0.70718  -0.68253  -0.67373  -0.65640
 Alpha  occ. eigenvalues --   -0.64837  -0.62963  -0.62540  -0.61697  -0.60356
 Alpha  occ. eigenvalues --   -0.59353  -0.58864  -0.55615  -0.54635  -0.53795
 Alpha  occ. eigenvalues --   -0.53014  -0.52430  -0.51379  -0.50888  -0.50645
 Alpha  occ. eigenvalues --   -0.49628  -0.48943  -0.48166  -0.48091  -0.46744
 Alpha  occ. eigenvalues --   -0.46546  -0.46245  -0.46035  -0.45774  -0.45118
 Alpha  occ. eigenvalues --   -0.44605  -0.44485  -0.44153  -0.43844  -0.43759
 Alpha  occ. eigenvalues --   -0.43321  -0.42530  -0.42514  -0.42209  -0.41571
 Alpha  occ. eigenvalues --   -0.41246  -0.41109  -0.40967  -0.40307  -0.39750
 Alpha  occ. eigenvalues --   -0.39602  -0.38802  -0.38732  -0.38266  -0.37844
 Alpha  occ. eigenvalues --   -0.37617  -0.37553  -0.37355  -0.36808  -0.36662
 Alpha  occ. eigenvalues --   -0.35441  -0.35283  -0.34820  -0.34788  -0.34262
 Alpha  occ. eigenvalues --   -0.33394  -0.32344  -0.31671  -0.30798  -0.28936
 Alpha  occ. eigenvalues --   -0.28415  -0.26964  -0.26692  -0.25338  -0.25005
 Alpha  occ. eigenvalues --   -0.24954  -0.24501  -0.24228  -0.19671
 Alpha virt. eigenvalues --   -0.03194  -0.02905  -0.01966  -0.00191   0.00106
 Alpha virt. eigenvalues --    0.00624   0.01273   0.03626   0.04996   0.08329
 Alpha virt. eigenvalues --    0.08548   0.08804   0.09180   0.10091   0.10346

 Mulliken charges:
               1
     1  C   -0.463085
     2  C   -0.036447
     3  O   -0.526260
     4  C    0.388737
     5  C   -0.189357
     6  C   -0.187257
     7  C    0.320912
     8  N   -0.545747
     9  C   -0.135664
    10  C   -0.229285
    11  C    0.622632
    12  O   -0.443202
    13  O   -0.532726
    14  C    0.338080
    15  C   -0.130534
    16  C   -0.160076
    17  C   -0.130719
    18  C    0.308920
    19  N   -0.618984
    20  C    0.606316
    21  O   -0.476801
    22  C   -0.218731
    23  C   -0.289654
    24  C   -0.181903
    25  C    0.179679
    26  C   -0.516704
    27  C   -0.319421
    28  C   -0.221824
    29  C    0.606420
    30  O   -0.475716
    31  C   -0.185537
    32  C   -0.377947
    33  C    0.596694
    34  O   -0.504785
    35  C   -0.170388
    36  C   -0.208939
    37  H    0.162746
    38  H    0.166009
    39  H    0.147653
    40  H    0.154808
    41  H    0.143069
    42  H    0.136886
    43  H    0.131482
    44  H    0.184381
    45  H    0.160663
    46  H    0.179822
    47  H    0.161475
    48  H    0.146347
    49  H    0.159802
    50  H    0.179468
    51  H    0.159613
    52  H    0.164274
    53  H    0.124409
    54  H    0.156694
    55  H    0.156966
    56  H    0.157129
    57  H    0.163334
    58  H    0.158988
    59  H    0.181344
    60  H    0.165591
    61  H    0.208369
    62  H    0.176017
    63  H    0.186036
    64  H    0.135928
 Sum of Mulliken charges =  -0.00000

 Dipole moment (field-independent basis, Debye):
    X=             -3.9303    Y=              2.5450    Z=             -2.5708  Tot=              5.3417
 Quadrupole moment (field-independent basis, Debye-Ang):
   XX=           -167.1533   YY=           -221.8570   ZZ=           -200.0763
   XY=             12.7432   XZ=              5.4465   YZ=              5.8126

 Normal termination of Gaussian 16 at Fri Nov  4 20:22:37 2022.
