 Gaussian 16, Revision B.01,
 Gaussian 16:  ES64L-G16RevB.01 20-Dec-2017

 -------------------------------------------------------------------
 #p b3lyp/6-31g(d) 6D 10F nosymm GFInput td=(50-50,nstate=2) SCF=XQC
 -------------------------------------------------------------------

 ------------------------------
 Gaussian input prepared by ASE
 ------------------------------
 Symbolic Z-matrix:
 Charge =  0 Multiplicity = 1

                          Input orientation:
 ---------------------------------------------------------------------
 Center     Atomic      Atomic             Coordinates (Angstroms)
 Number     Number       Type             X           Y           Z
 ---------------------------------------------------------------------
      1          6           0       10.241075    1.448749    0.970118
      2          6           0        9.135152    1.413296    2.020477
      3          8           0        7.923052    2.018227    1.565153
      4          6           0        7.073407    1.314916    0.756362
      5          6           0        5.934727    2.007039    0.327538
      6          6           0        4.990939    1.387901   -0.482880
      7          6           0        5.153586    0.051840   -0.889689
      8          7           0        4.165474   -0.565410   -1.701863
      9          6           0        2.883566    0.092345   -1.957644
     10          6           0        2.021336   -1.003099   -2.634193
     11          6           0        1.137221   -1.735146   -1.627684
     12          8           0        1.157242   -2.916602   -1.391628
     13          8           0        0.285190   -0.839499   -1.041186
     14          6           0       -0.660011   -1.258542   -0.097913
     15          6           0       -0.329674   -2.065705    0.988346
     16          6           0       -1.330079   -2.367574    1.911913
     17          6           0       -2.626490   -1.879015    1.761375
     18          6           0       -2.930491   -1.059218    0.668291
     19          7           0       -4.251354   -0.540883    0.502913
     20          6           0       -4.885648   -0.361167   -0.755842
     21          8           0       -4.445814   -0.727921   -1.822612
     22          6           0       -6.154328    0.424698   -0.480161
     23          6           0       -7.390535    0.250122   -1.350342
     24          6           0       -8.560294    0.922593   -0.655088
     25          6           0       -8.583765    1.331520    0.625839
     26          6           0       -9.779080    2.037523    1.213234
     27          6           0       -7.418362    1.107251    1.584148
     28          6           0       -6.463294    0.090456    0.977579
     29          6           0       -5.089667   -0.142209    1.579235
     30          8           0       -4.753687   -0.062287    2.739432
     31          6           0       -1.940757   -0.744167   -0.268310
     32          6           0        3.055050   -1.938195   -3.266188
     33          6           0        4.334134   -1.714698   -2.462546
     34          8           0        5.326187   -2.421706   -2.504762
     35          6           0        6.295992   -0.639176   -0.459430
     36          6           0        7.244575   -0.013677    0.349766
     37          1           0       10.432503    2.480401    0.657938
     38          1           0        9.975942    0.867363    0.081902
     39          1           0       11.167484    1.035775    1.386145
     40          1           0        9.422360    2.008535    2.892356
     41          1           0        8.942106    0.390953    2.370736
     42          1           0        5.803342    3.037707    0.641671
     43          1           0        4.127633    1.962759   -0.799382
     44          1           0        2.439395    0.455600   -1.027579
     45          1           0        3.011008    0.953572   -2.628540
     46          1           0        1.348970   -0.543649   -3.366021
     47          1           0        0.673708   -2.455092    1.103266
     48          1           0       -1.094834   -2.997719    2.764372
     49          1           0       -3.387904   -2.115343    2.493037
     50          1           0       -5.853823    1.484665   -0.522223
     51          1           0       -7.599087   -0.816630   -1.522014
     52          1           0       -7.235298    0.689174   -2.343228
     53          1           0       -9.443066    1.095791   -1.269461
     54          1           0       -9.497353    3.019891    1.617372
     55          1           0      -10.204984    1.467579    2.050477
     56          1           0      -10.567307    2.191385    0.469874
     57          1           0       -7.791983    0.759568    2.555512
     58          1           0       -6.902196    2.058027    1.785696
     59          1           0       -6.956900   -0.895256    0.994738
     60          1           0       -2.154857   -0.123834   -1.128016
     61          1           0        2.765659   -2.989592   -3.224189
     62          1           0        3.252123   -1.677799   -4.312749
     63          1           0        6.448302   -1.661771   -0.773484
     64          1           0        8.114482   -0.584643    0.653464
 ---------------------------------------------------------------------

 SCF Done:  E(RB3LYP) =  -1644.73063298     A.U. after   15 cycles

 Excitation energies and oscillator strengths:

 Excited state symmetry could not be determined.
 Excited State   1:      Triplet-?Sym    3.4476 eV  359.63 nm  f=0.0000  <S**2>=2.000
     125 ->134         0.21986
     127 ->134        -0.17641
     129 ->132         0.14858
     129 ->133         0.52069
     129 ->135        -0.27752
     129 ->138         0.17031
 This state for optimization and/or second-order correction.
 Total Energy, E(TD-HF/TD-DFT) =  -1644.60393666
 Copying the excited state density for this state as the 1-particle RhoCI density.

 Excited state symmetry could not be determined.
 Excited State   2:      Triplet-?Sym    3.8153 eV  324.96 nm  f=0.0000  <S**2>=2.000
     129 ->134         0.69638

 Excited state symmetry could not be determined.
 Excited State   3:      Singlet-?Sym    4.1723 eV  297.16 nm  f=0.0067  <S**2>=0.000
     129 ->130        -0.21768
     129 ->131         0.62820
     129 ->132         0.22900

 Excited state symmetry could not be determined.
 Excited State   4:      Singlet-?Sym    4.2238 eV  293.54 nm  f=0.0001  <S**2>=0.000
     129 ->130         0.66637
     129 ->131         0.23540

 Alpha  occ. eigenvalues --  -19.21380 -19.16978 -19.15542 -19.15123 -19.15122
 Alpha  occ. eigenvalues --  -19.11546 -14.40223 -14.37737 -10.33378 -10.31607
 Alpha  occ. eigenvalues --  -10.31606 -10.28733 -10.26264 -10.24815 -10.24303
 Alpha  occ. eigenvalues --  -10.24163 -10.24147 -10.22706 -10.22624 -10.22010
 Alpha  occ. eigenvalues --  -10.21982 -10.20703 -10.20681 -10.20660 -10.20343
 Alpha  occ. eigenvalues --  -10.20289 -10.20094 -10.20017 -10.19889 -10.19473
 Alpha  occ. eigenvalues --  -10.19137 -10.19115 -10.18436 -10.18298 -10.18208
 Alpha  occ. eigenvalues --  -10.18158  -1.12079  -1.07609  -1.05806  -1.05485
 Alpha  occ. eigenvalues --   -1.03937  -1.03549  -0.96868  -0.95771  -0.87985
 Alpha  occ. eigenvalues --   -0.85898  -0.85218  -0.81754  -0.80359  -0.77344
 Alpha  occ. eigenvalues --   -0.77167  -0.76508  -0.75588  -0.74638  -0.72859
 Alpha  occ. eigenvalues --   -0.72317  -0.70718  -0.68253  -0.67373  -0.65640
 Alpha  occ. eigenvalues --   -0.64837  -0.62963  -0.62540  -0.61697  -0.60356
 Alpha  occ. eigenvalues --   -0.59353  -0.58864  -0.55615  -0.54635  -0.53795
 Alpha  occ. eigenvalues --   -0.53014  -0.52430  -0.51379  -0.50888  -0.50645
 Alpha  occ. eigenvalues --   -0.49628  -0.48943  -0.48166  -0.48091  -0.46744
 Alpha  occ. eigenvalues --   -0.46546  -0.46245  -0.46035  -0.45774  -0.45118
 Alpha  occ. eigenvalues --   -0.44605  -0.44485  -0.44153  -0.43844  -0.43759
 Alpha  occ. eigenvalues --   -0.43321  -0.42530  -0.42514  -0.42209  -0.41571
 Alpha  occ. eigenvalues --   -0.41246  -0.41109  -0.40967  -0.40307  -0.39750
 Alpha  occ. eigenvalues --   -0.39602  -0.38802  -0.38732  -0.38266  -0.37844
 Alpha  occ. eigenvalues --   -0.37617  -0.37553  -0.37355  -0.36808  -0.36662
 Alpha  occ. eigenvalues --   -0.35441  -0.35283  -0.34820  -0.34788  -0.34262
 Alpha  occ. eigenvalues --   -0.33394  -0.32344  -0.31671  -0.30798  -0.28936
 Alpha  occ. eigenvalues --   -0.28415  -0.26964  -0.26692  -0.25338  -0.25005
 Alpha  occ. eigenvalues --   -0.24954  -0.24501  -0.24228  -0.19671
 Alpha virt. eigenvalues --   -0.03194  -0.02905  -0.01966  -0.00191   0.00106
 Alpha virt. eigenvalues --    0.00624   0.01273   0.03626   0.04996   0.08329
 Alpha virt. eigenvalues --    0.08548   0.08804   0.09180   0.10091   0.10346

 Mulliken charges:
               1
     1  C   -0.463079
     2  C   -0.036455
     3  O   -0.526259
     4  C    0.388738
     5  C   -0.189355
     6  C   -0.187254
     7  C    0.320917
     8  N   -0.545755
     9  C   -0.135658
    10  C   -0.229290
    11  C    0.622641
    12  O   -0.443202
    13  O   -0.532734
    14  C    0.338078
    15  C   -0.130531
    16  C   -0.160062
    17  C   -0.130734
    18  C    0.308951
    19  N   -0.618995
    20  C    0.606330
    21  O   -0.476801
    22  C   -0.218721
    23  C   -0.289665
    24  C   -0.181907
    25  C    0.179697
    26  C   -0.516702
    27  C   -0.319432
    28  C   -0.221853
    29  C    0.606429
    30  O   -0.475714
    31  C   -0.185565
    32  C   -0.377938
    33  C    0.596705
    34  O   -0.504789
    35  C   -0.170401
    36  C   -0.208940
    37  H    0.162745
    38  H    0.166008
    39  H    0.147653
    40  H    0.154810
    41  H    0.143071
    42  H    0.136885
    43  H    0.131482
    44  H    0.184382
    45  H    0.160663
    46  H    0.179823
    47  H    0.161473
    48  H    0.146346
    49  H    0.159801
    50  H    0.179467
    51  H    0.159613
    52  H    0.164275
    53  H    0.124408
    54  H    0.156694
    55  H    0.156965
    56  H    0.157129
    57  H    0.163336
    58  H    0.158989
    59  H    0.181350
    60  H    0.165591
    61  H    0.208367
    62  H    0.176015
    63  H    0.186037
    64  H    0.135926
 Sum of Mulliken charges =  -0.00000

 Dipole moment (field-independent basis, Debye):
    X=             -3.9049    Y=              3.6014    Z=              0.5614  Tot=              5.3417
 Quadrupole moment (field-independent basis, Debye-Ang):
   XX=           -166.4968   YY=           -215.7807   ZZ=           -208.9901
   XY=              4.1526   XZ=             12.0962   YZ=            -12.7097

 Normal termination of Gaussian 16 at Sat Nov  5 12:15:00 2022.
