 Gaussian 16, Revision B.01,
 Gaussian 16:  ES64L-G16RevB.01 20-Dec-2017

 -----------------------------
 #p b3lyp/6-31g(d) opt SCF=XQC
 -----------------------------

 ------------------------------
 Gaussian input prepared by ASE
 ------------------------------
 Symbolic Z-matrix:
 Charge =  0 Multiplicity = 1

 SCF Done:  E(RB3LYP) =  -1277.58242058     A.U. after   15 cycles
 SCF Done:  E(RB3LYP) =  -1277.58830670     A.U. after   12 cycles
 SCF Done:  E(RB3LYP) =  -1277.58892266     A.U. after   12 cycles
 SCF Done:  E(RB3LYP) =  -1277.58915990     A.U. after   12 cycles
 SCF Done:  E(RB3LYP) =  -1277.58929485     A.U. after   10 cycles
 SCF Done:  E(RB3LYP) =  -1277.58937438     A.U. after   12 cycles
 SCF Done:  E(RB3LYP) =  -1277.58939554     A.U. after   10 cycles
 SCF Done:  E(RB3LYP) =  -1277.58940552     A.U. after   10 cycles
 SCF Done:  E(RB3LYP) =  -1277.58941914     A.U. after   11 cycles
 SCF Done:  E(RB3LYP) =  -1277.58942406     A.U. after   10 cycles
 SCF Done:  E(RB3LYP) =  -1277.58942638     A.U. after    9 cycles
 SCF Done:  E(RB3LYP) =  -1277.58942942     A.U. after    9 cycles
 SCF Done:  E(RB3LYP) =  -1277.58943196     A.U. after   10 cycles
 SCF Done:  E(RB3LYP) =  -1277.58943295     A.U. after    9 cycles
 SCF Done:  E(RB3LYP) =  -1277.58943353     A.U. after    9 cycles
 SCF Done:  E(RB3LYP) =  -1277.58943375     A.U. after    7 cycles
 SCF Done:  E(RB3LYP) =  -1277.58943378     A.U. after    7 cycles
 SCF Done:  E(RB3LYP) =  -1277.58943380     A.U. after    6 cycles
 Optimization completed.
    -- Stationary point found.

                         Standard orientation:
 ---------------------------------------------------------------------
 Center     Atomic      Atomic             Coordinates (Angstroms)
 Number     Number       Type             X           Y           Z
 ---------------------------------------------------------------------
      1          6           0        3.950435   -3.494584    0.232479
      2          6           0        3.175561   -2.422999    1.024766
      3          7           0        1.842028   -2.238284    0.459160
      4          6           0        1.684819   -1.227102   -0.307122
      5          6           0        0.357016   -0.949059   -0.990370
      6          8           0        0.179206    0.111984   -1.589932
      7          7           0       -0.537280   -1.949579   -0.861115
      8          6           0       -1.901133   -1.866705   -1.358146
      9          6           0       -2.914319   -1.518200   -0.252900
     10          7           0       -4.266734   -1.432543   -0.806548
     11          6           0       -5.326455   -1.828622    0.124440
     12          6           0       -5.474028   -0.875042    1.322445
     13          6           0       -5.460205    0.581442    0.894350
     14          6           0       -5.882557    1.586240    1.775555
     15          6           0       -5.850355    2.928950    1.407253
     16          6           0       -5.387120    3.287178    0.138573
     17          6           0       -4.964912    2.296089   -0.744039
     18          6           0       -4.997364    0.943472   -0.381709
     19          6           0       -4.580357   -0.124871   -1.388036
     20          7           0        2.638038   -0.290050   -0.638019
     21          7           0        3.695823   -0.106320    0.294210
     22          6           0        4.518741    1.034617    0.053794
     23          6           0        5.187241    1.663547    1.114040
     24          6           0        5.964141    2.791469    0.859036
     25          6           0        6.073868    3.310988   -0.432654
     26          6           0        5.402818    2.683423   -1.481246
     27          6           0        4.630738    1.545505   -1.246975
     28          6           0        4.030751   -1.152849    1.136595
     29          8           0        4.964712   -1.094130    1.922935
     30          1           0        4.122370   -3.169980   -0.799592
     31          1           0        3.369703   -4.421809    0.209071
     32          1           0        4.916353   -3.687978    0.707561
     33          1           0        3.061666   -2.780391    2.054190
     34          1           0       -0.235693   -2.729475   -0.286325
     35          1           0       -1.905753   -1.102903   -2.139012
     36          1           0       -2.180266   -2.820553   -1.817383
     37          1           0       -2.898832   -2.316626    0.499347
     38          1           0       -2.589947   -0.594761    0.255933
     39          1           0       -5.133316   -2.851238    0.468796
     40          1           0       -6.265503   -1.854336   -0.444258
     41          1           0       -6.398482   -1.101500    1.870124
     42          1           0       -4.653181   -1.052156    2.033328
     43          1           0       -6.242041    1.305291    2.763802
     44          1           0       -6.183870    3.692636    2.104945
     45          1           0       -5.351094    4.332242   -0.157660
     46          1           0       -4.600976    2.572279   -1.732217
     47          1           0       -3.718053    0.226726   -1.965048
     48          1           0       -5.393317   -0.268481   -2.115883
     49          1           0        2.218366    0.594579   -0.922500
     50          1           0        5.105832    1.262326    2.114426
     51          1           0        6.480991    3.272428    1.684933
     52          1           0        6.676548    4.195323   -0.618652
     53          1           0        5.482985    3.070429   -2.493319
     54          1           0        4.137113    1.045202   -2.073214
 ---------------------------------------------------------------------

 The electronic state is 1-A.
 Alpha  occ. eigenvalues --  -19.12991 -19.12411 -14.41969 -14.40523 -14.37008
 Alpha  occ. eigenvalues --  -14.33379 -14.32829 -10.30251 -10.29793 -10.27711
 Alpha  occ. eigenvalues --  -10.24257 -10.23305 -10.22496 -10.21571 -10.21345
 Alpha  occ. eigenvalues --  -10.21268 -10.19819 -10.19675 -10.19460 -10.19298
 Alpha  occ. eigenvalues --  -10.19276 -10.19255 -10.19028 -10.18891 -10.18634
 Alpha  occ. eigenvalues --  -10.18567 -10.18520 -10.18463 -10.18437  -1.06915
 Alpha  occ. eigenvalues --   -1.04692  -1.01716  -0.94670  -0.93428  -0.92390
 Alpha  occ. eigenvalues --   -0.87273  -0.85021  -0.84450  -0.78465  -0.77543
 Alpha  occ. eigenvalues --   -0.76397  -0.75342  -0.74639  -0.74275  -0.72233
 Alpha  occ. eigenvalues --   -0.68521  -0.66844  -0.65650  -0.63983  -0.61867
 Alpha  occ. eigenvalues --   -0.61246  -0.60470  -0.59715  -0.58987  -0.57176
 Alpha  occ. eigenvalues --   -0.55009  -0.54527  -0.53299  -0.51705  -0.50684
 Alpha  occ. eigenvalues --   -0.49665  -0.48843  -0.48407  -0.47953  -0.46786
 Alpha  occ. eigenvalues --   -0.45800  -0.45401  -0.44901  -0.44248  -0.43950
 Alpha  occ. eigenvalues --   -0.43621  -0.43358  -0.42888  -0.42282  -0.41933
 Alpha  occ. eigenvalues --   -0.41457  -0.40536  -0.40467  -0.40170  -0.39693
 Alpha  occ. eigenvalues --   -0.38787  -0.38261  -0.37542  -0.37282  -0.37073
 Alpha  occ. eigenvalues --   -0.36619  -0.36219  -0.35749  -0.35273  -0.35010
 Alpha  occ. eigenvalues --   -0.34179  -0.33773  -0.32428  -0.31433  -0.29858
 Alpha  occ. eigenvalues --   -0.27581  -0.26764  -0.25797  -0.25577  -0.24286
 Alpha  occ. eigenvalues --   -0.24155  -0.23560  -0.21322  -0.21260
 Alpha virt. eigenvalues --   -0.04177  -0.01710  -0.00578  -0.00075   0.00441
 Alpha virt. eigenvalues --    0.02803   0.07931   0.08533   0.08991   0.09332
 Alpha virt. eigenvalues --    0.10272   0.10637   0.11163   0.12030   0.12565

 Mulliken charges:
               1
     1  C   -0.443298
     2  C   -0.073291
     3  N   -0.504599
     4  C    0.466944
     5  C    0.605862
     6  O   -0.549751
     7  N   -0.604350
     8  C   -0.137693
     9  C   -0.129426
    10  N   -0.378185
    11  C   -0.158156
    12  C   -0.351905
    13  C    0.128842
    14  C   -0.187566
    15  C   -0.128436
    16  C   -0.130970
    17  C   -0.182188
    18  C    0.102552
    19  C   -0.236524
    20  N   -0.498309
    21  N   -0.416399
    22  C    0.279722
    23  C   -0.133513
    24  C   -0.145835
    25  C   -0.120473
    26  C   -0.139844
    27  C   -0.172906
    28  C    0.591227
    29  O   -0.509336
    30  H    0.156293
    31  H    0.161509
    32  H    0.175136
    33  H    0.173719
    34  H    0.355381
    35  H    0.185226
    36  H    0.159145
    37  H    0.134470
    38  H    0.146819
    39  H    0.139914
    40  H    0.146807
    41  H    0.146520
    42  H    0.153800
    43  H    0.119834
    44  H    0.126791
    45  H    0.127605
    46  H    0.123348
    47  H    0.159293
    48  H    0.159562
    49  H    0.368346
    50  H    0.171491
    51  H    0.138010
    52  H    0.132986
    53  H    0.136805
    54  H    0.158995
 Sum of Mulliken charges =  -0.00000

 Dipole moment (field-independent basis, Debye):
    X=             -2.1094    Y=             -0.4042    Z=             -0.4308  Tot=              2.1905
 Quadrupole moment (field-independent basis, Debye-Ang):
   XX=           -171.9095   YY=           -155.7589   ZZ=           -168.1877
   XY=             11.2105   XZ=            -12.3056   YZ=              0.0866

 Normal termination of Gaussian 16 at Fri Nov  4 20:19:02 2022.
