 Gaussian 16, Revision B.01,
 Gaussian 16:  ES64L-G16RevB.01 20-Dec-2017

 -------------------------------------------------------------------
 #p b3lyp/6-31g(d) 6D 10F nosymm GFInput td=(50-50,nstate=2) SCF=XQC
 -------------------------------------------------------------------

 ------------------------------
 Gaussian input prepared by ASE
 ------------------------------
 Symbolic Z-matrix:
 Charge =  0 Multiplicity = 1

                          Input orientation:
 ---------------------------------------------------------------------
 Center     Atomic      Atomic             Coordinates (Angstroms)
 Number     Number       Type             X           Y           Z
 ---------------------------------------------------------------------
      1          6           0        4.250735    0.070393   -3.460338
      2          6           0        3.466124   -0.823783   -2.479890
      3          7           0        2.144584   -0.258237   -2.222929
      4          6           0        2.007045    0.391296   -1.130416
      5          6           0        0.693945    1.063024   -0.767451
      6          8           0        0.532863    1.541669    0.355872
      7          7           0       -0.207573    1.064505   -1.769836
      8          6           0       -1.561241    1.574028   -1.621606
      9          6           0       -2.593665    0.455299   -1.393319
     10          7           0       -3.934799    1.020539   -1.235996
     11          6           0       -5.014078    0.160148   -1.727433
     12          6           0       -5.179855   -1.135268   -0.914584
     13          6           0       -5.150677   -0.875304    0.580865
     14          6           0       -5.584865   -1.856747    1.482403
     15          6           0       -5.539013   -1.643627    2.857915
     16          6           0       -5.049829   -0.432479    3.354181
     17          6           0       -4.615690    0.548812    2.466424
     18          6           0       -4.661726    0.342751    1.081748
     19          6           0       -4.230799    1.455789    0.131277
     20          7           0        2.971022    0.596228   -0.168678
     21          7           0        4.011665   -0.370179   -0.099131
     22          6           0        4.844636   -0.275827    1.055853
     23          6           0        5.495812   -1.412669    1.555982
     24          6           0        6.282989   -1.301502    2.700010
     25          6           0        6.419970   -0.079249    3.361627
     26          6           0        5.766029    1.045908    2.861553
     27          6           0        4.984017    0.956381    1.709906
     28          6           0        4.325257   -1.094585   -1.236631
     29          8           0        5.244277   -1.899616   -1.273898
     30          1           0        4.443984    1.055683   -3.022207
     31          1           0        3.666002    0.209434   -4.374831
     32          1           0        5.206422   -0.397460   -3.713081
     33          1           0        3.330794   -1.803799   -2.950707
     34          1           0        0.079118    0.576325   -2.611895
     35          1           0       -1.547159    2.263265   -0.774304
     36          1           0       -1.836225    2.143468   -2.515342
     37          1           0       -2.596505   -0.201784   -2.271859
     38          1           0       -2.274549   -0.160797   -0.535730
     39          1           0       -4.832599   -0.069615   -2.783795
     40          1           0       -5.942187    0.745330   -1.681975
     41          1           0       -6.115724   -1.636602   -1.195057
     42          1           0       -4.373644   -1.836530   -1.176823
     43          1           0       -5.964572   -2.799989    1.093931
     44          1           0       -5.882057   -2.417089    3.540043
     45          1           0       -5.002999   -0.257293    4.425782
     46          1           0       -4.231556    1.492441    2.850130
     47          1           0       -3.355892    1.973229    0.539840
     48          1           0       -5.030379    2.210100    0.076726
     49          1           0        2.561228    0.786330    0.745408
     50          1           0        5.393301   -2.359472    1.044677
     51          1           0        6.786302   -2.185978    3.080724
     52          1           0        7.030443   -0.005814    4.257058
     53          1           0        5.867452    2.005954    3.360067
     54          1           0        4.503838    1.842959    1.309848
 ---------------------------------------------------------------------

 SCF Done:  E(RB3LYP) =  -1277.58943021     A.U. after   15 cycles

 Excitation energies and oscillator strengths:

 Excited state symmetry could not be determined.
 Excited State   1:      Triplet-?Sym    3.1441 eV  394.34 nm  f=0.0000  <S**2>=2.000
      98 ->105        -0.23452
     103 ->105        -0.24602
     104 ->105         0.57470
 This state for optimization and/or second-order correction.
 Total Energy, E(TD-HF/TD-DFT) =  -1277.47388701
 Copying the excited state density for this state as the 1-particle RhoCI density.

 Excited state symmetry could not be determined.
 Excited State   2:      Triplet-?Sym    3.5196 eV  352.27 nm  f=0.0000  <S**2>=2.000
      97 ->106         0.10061
      98 ->106         0.18676
      99 ->107         0.30544
     100 ->106        -0.10955
     103 ->106        -0.25256
     104 ->106         0.48119

 Excited state symmetry could not be determined.
 Excited State   3:      Singlet-?Sym    4.0121 eV  309.03 nm  f=0.0226  <S**2>=0.000
     103 ->105        -0.33130
     104 ->105         0.61363

 Excited state symmetry could not be determined.
 Excited State   4:      Singlet-?Sym    4.1353 eV  299.82 nm  f=0.0105  <S**2>=0.000
     103 ->105         0.61959
     104 ->105         0.33724

 Alpha  occ. eigenvalues --  -19.12991 -19.12411 -14.41969 -14.40523 -14.37008
 Alpha  occ. eigenvalues --  -14.33379 -14.32829 -10.30251 -10.29793 -10.27711
 Alpha  occ. eigenvalues --  -10.24258 -10.23305 -10.22496 -10.21571 -10.21345
 Alpha  occ. eigenvalues --  -10.21268 -10.19819 -10.19675 -10.19460 -10.19298
 Alpha  occ. eigenvalues --  -10.19276 -10.19255 -10.19028 -10.18890 -10.18634
 Alpha  occ. eigenvalues --  -10.18567 -10.18520 -10.18463 -10.18437  -1.06915
 Alpha  occ. eigenvalues --   -1.04692  -1.01716  -0.94670  -0.93428  -0.92390
 Alpha  occ. eigenvalues --   -0.87273  -0.85021  -0.84450  -0.78465  -0.77543
 Alpha  occ. eigenvalues --   -0.76397  -0.75342  -0.74639  -0.74275  -0.72233
 Alpha  occ. eigenvalues --   -0.68521  -0.66844  -0.65650  -0.63983  -0.61867
 Alpha  occ. eigenvalues --   -0.61247  -0.60470  -0.59715  -0.58987  -0.57176
 Alpha  occ. eigenvalues --   -0.55009  -0.54527  -0.53299  -0.51705  -0.50684
 Alpha  occ. eigenvalues --   -0.49665  -0.48843  -0.48407  -0.47953  -0.46786
 Alpha  occ. eigenvalues --   -0.45800  -0.45401  -0.44901  -0.44248  -0.43950
 Alpha  occ. eigenvalues --   -0.43621  -0.43358  -0.42888  -0.42282  -0.41933
 Alpha  occ. eigenvalues --   -0.41457  -0.40536  -0.40467  -0.40170  -0.39693
 Alpha  occ. eigenvalues --   -0.38787  -0.38261  -0.37542  -0.37282  -0.37073
 Alpha  occ. eigenvalues --   -0.36619  -0.36219  -0.35749  -0.35273  -0.35010
 Alpha  occ. eigenvalues --   -0.34179  -0.33773  -0.32428  -0.31433  -0.29858
 Alpha  occ. eigenvalues --   -0.27581  -0.26764  -0.25797  -0.25577  -0.24286
 Alpha  occ. eigenvalues --   -0.24155  -0.23560  -0.21322  -0.21260
 Alpha virt. eigenvalues --   -0.04177  -0.01710  -0.00578  -0.00075   0.00441
 Alpha virt. eigenvalues --    0.02803   0.07931   0.08533   0.08991   0.09332
 Alpha virt. eigenvalues --    0.10272   0.10637   0.11163   0.12030   0.12565

 Mulliken charges:
               1
     1  C   -0.443297
     2  C   -0.073285
     3  N   -0.504596
     4  C    0.466925
     5  C    0.605879
     6  O   -0.549758
     7  N   -0.604360
     8  C   -0.137694
     9  C   -0.129448
    10  N   -0.378169
    11  C   -0.158181
    12  C   -0.351847
    13  C    0.128812
    14  C   -0.187567
    15  C   -0.128430
    16  C   -0.130973
    17  C   -0.182191
    18  C    0.102561
    19  C   -0.236520
    20  N   -0.498299
    21  N   -0.416373
    22  C    0.279703
    23  C   -0.133507
    24  C   -0.145833
    25  C   -0.120474
    26  C   -0.139846
    27  C   -0.172904
    28  C    0.591210
    29  O   -0.509334
    30  H    0.156292
    31  H    0.161508
    32  H    0.175136
    33  H    0.173720
    34  H    0.355382
    35  H    0.185229
    36  H    0.159146
    37  H    0.134473
    38  H    0.146823
    39  H    0.139913
    40  H    0.146806
    41  H    0.146516
    42  H    0.153793
    43  H    0.119833
    44  H    0.126791
    45  H    0.127606
    46  H    0.123348
    47  H    0.159290
    48  H    0.159559
    49  H    0.368346
    50  H    0.171489
    51  H    0.138009
    52  H    0.132987
    53  H    0.136805
    54  H    0.158994
 Sum of Mulliken charges =  -0.00000

 Dipole moment (field-independent basis, Debye):
    X=             -2.1027    Y=              0.5127    Z=             -0.3379  Tot=              2.1905
 Quadrupole moment (field-independent basis, Debye-Ang):
   XX=           -172.6840   YY=           -168.4366   ZZ=           -156.1599
   XY=             11.2190   XZ=             12.3644   YZ=             -1.7515

 Normal termination of Gaussian 16 at Sat Nov  5 12:02:38 2022.
