 Gaussian 16, Revision B.01,
 Gaussian 16:  ES64L-G16RevB.01 20-Dec-2017

 -------------------------------------------------------------------
 #p b3lyp/6-31g(d) 6D 10F nosymm GFInput td=(50-50,nstate=2) SCF=XQC
 -------------------------------------------------------------------

 ------------------------------
 Gaussian input prepared by ASE
 ------------------------------
 Symbolic Z-matrix:
 Charge =  0 Multiplicity = 1

                          Input orientation:
 ---------------------------------------------------------------------
 Center     Atomic      Atomic             Coordinates (Angstroms)
 Number     Number       Type             X           Y           Z
 ---------------------------------------------------------------------
      1          8           0       11.697740    2.626204    2.832531
      2          6           0       10.393668    2.127996    2.561637
      3          6           0       10.356288    1.090137    1.456938
      4          6           0        9.581677    1.252811    0.307215
      5          6           0        9.538281    0.288545   -0.709478
      6          6           0        8.647168    0.482153   -1.919530
      7          8           0        9.296886   -0.117564   -3.041500
      8          6           0        7.251319   -0.148735   -1.729905
      9          7           0        6.519728    0.475718   -0.634127
     10          6           0        5.152899   -0.017530   -0.455324
     11          6           0        4.161459    0.687763   -1.404989
     12          6           0        2.735388    0.259081   -1.208740
     13          6           0        1.710679    0.950496   -0.620152
     14          6           0        0.477603    0.229956   -0.569700
     15          6           0        0.556408   -1.018982   -1.123376
     16          6           0       -0.516693   -2.068953   -1.233859
     17          7           0       -1.839839   -1.452663   -1.329073
     18          6           0       -2.913854   -2.428970   -1.494263
     19          6           0       -4.285200   -1.755176   -1.618291
     20          6           0       -4.713261   -1.012382   -0.395715
     21          6           0       -4.110399   -0.457273    0.687644
     22          7           0       -5.075724    0.095532    1.524076
     23          6           0       -6.202450   -0.135283    0.925605
     24          6           0       -7.564071    0.294274    1.447042
     25          8           0       -7.385746    0.564711    2.834558
     26          6           0       -8.064956    1.569985    0.734933
     27          6           0       -7.712865    1.901126   -0.578426
     28          6           0       -8.212618    3.061271   -1.176721
     29          6           0       -9.068820    3.903758   -0.469523
     30          6           0       -9.422894    3.579174    0.842375
     31          6           0       -8.924690    2.422861    1.439754
     32          6           0       -8.566987   -0.869638    1.320638
     33          6           0       -8.681666   -1.789849    2.369624
     34          6           0       -9.553739   -2.873819    2.266460
     35          6           0      -10.317363   -3.056282    1.112407
     36          6           0      -10.204052   -2.143893    0.062840
     37          6           0       -9.335975   -1.056021    0.166668
     38          8           0       -6.075044   -0.804602   -0.246505
     39         16           0        2.171560   -1.320349   -1.722796
     40          6           0       10.314306   -0.865630   -0.566309
     41          6           0       11.107849   -1.048488    0.565772
     42          6           0       11.123623   -0.079823    1.568650
     43          8           0       11.887566   -0.212566    2.708959
     44          1           0       12.222616    1.859499    3.115622
     45          1           0        9.941270    1.707043    3.475132
     46          1           0        9.791336    2.993611    2.269922
     47          1           0        8.997086    2.164188    0.198656
     48          1           0        8.505648    1.561259   -2.083036
     49          1           0        8.714721   -0.006277   -3.809270
     50          1           0        6.682837    0.008683   -2.657657
     51          1           0        7.376353   -1.241856   -1.613851
     52          1           0        7.043029    0.326181    0.225682
     53          1           0        5.074640   -1.112049   -0.591264
     54          1           0        4.848358    0.194618    0.575514
     55          1           0        4.468479    0.520004   -2.445783
     56          1           0        4.230597    1.767262   -1.230236
     57          1           0        1.833016    1.958365   -0.235017
     58          1           0       -0.438812    0.621470   -0.142913
     59          1           0       -0.294730   -2.741769   -2.084913
     60          1           0       -0.515683   -2.708527   -0.338747
     61          1           0       -1.841397   -0.806254   -2.118026
     62          1           0       -2.911310   -3.086482   -0.615850
     63          1           0       -2.764978   -3.078839   -2.377678
     64          1           0       -4.283301   -1.083545   -2.491470
     65          1           0       -5.035998   -2.524360   -1.837502
     66          1           0       -3.056283   -0.419164    0.913162
     67          1           0       -6.453422    0.832775    2.943248
     68          1           0       -7.046971    1.257614   -1.144544
     69          1           0       -7.924884    3.305200   -2.196191
     70          1           0       -9.455026    4.807346   -0.933749
     71          1           0      -10.086952    4.230877    1.404431
     72          1           0       -9.185009    2.176167    2.463276
     73          1           0       -8.093611   -1.638356    3.267312
     74          1           0       -9.637558   -3.575510    3.092520
     75          1           0      -10.998317   -3.899789    1.033430
     76          1           0      -10.797672   -2.271942   -0.838700
     77          1           0       -9.267554   -0.345966   -0.651068
     78          1           0       10.313568   -1.610256   -1.355051
     79          1           0       11.719268   -1.944114    0.666123
     80          1           0       12.393459   -1.038458    2.660466
 ---------------------------------------------------------------------

 SCF Done:  E(RB3LYP) =  -2256.38348379     A.U. after   14 cycles

 Excitation energies and oscillator strengths:

 Excited state symmetry could not be determined.
 Excited State   1:      Triplet-?Sym    3.2638 eV  379.87 nm  f=0.0000  <S**2>=2.000
     156 ->160         0.22272
     158 ->160        -0.15271
     159 ->160         0.61238
     159 ->162         0.14646
 This state for optimization and/or second-order correction.
 Total Energy, E(TD-HF/TD-DFT) =  -2256.26353973
 Copying the excited state density for this state as the 1-particle RhoCI density.

 Excited state symmetry could not be determined.
 Excited State   2:      Triplet-?Sym    3.6561 eV  339.11 nm  f=0.0000  <S**2>=2.000
     149 ->162         0.36507
     156 ->164         0.12056
     158 ->162        -0.23510
     158 ->164         0.48814

 Excited state symmetry could not be determined.
 Excited State   3:      Singlet-?Sym    5.0817 eV  243.98 nm  f=0.0295  <S**2>=0.000
     149 ->162         0.10248
     149 ->164        -0.28929
     158 ->160        -0.19495
     158 ->162         0.53248
     158 ->164         0.11401
     159 ->160        -0.13803
     159 ->162         0.19745

 Excited state symmetry could not be determined.
 Excited State   4:      Singlet-?Sym    5.1774 eV  239.47 nm  f=0.2181  <S**2>=0.000
     156 ->160        -0.24634
     158 ->162         0.12936
     159 ->160         0.61672

 Alpha  occ. eigenvalues --  -88.90264 -19.22709 -19.19499 -19.15026 -19.14318
 Alpha  occ. eigenvalues --  -19.12734 -14.33659 -14.33292 -14.32304 -10.27525
 Alpha  occ. eigenvalues --  -10.26680 -10.25494 -10.24899 -10.24248 -10.23116
 Alpha  occ. eigenvalues --  -10.22855 -10.22804 -10.21761 -10.21759 -10.21468
 Alpha  occ. eigenvalues --  -10.21410 -10.21283 -10.21002 -10.19748 -10.19629
 Alpha  occ. eigenvalues --  -10.19397 -10.19389 -10.19325 -10.19266 -10.19202
 Alpha  occ. eigenvalues --  -10.19193 -10.18790 -10.18746 -10.18706 -10.18643
 Alpha  occ. eigenvalues --  -10.18623 -10.18540 -10.18392 -10.18339 -10.18254
 Alpha  occ. eigenvalues --  -10.18216 -10.18157 -10.17889  -7.96385  -5.92791
 Alpha  occ. eigenvalues --   -5.92432  -5.92081  -1.13226  -1.07176  -1.02665
 Alpha  occ. eigenvalues --   -1.02418  -1.00146  -0.92477  -0.91853  -0.90906
 Alpha  occ. eigenvalues --   -0.87532  -0.85749  -0.85414  -0.84408  -0.81263
 Alpha  occ. eigenvalues --   -0.78778  -0.77897  -0.76997  -0.76094  -0.74448
 Alpha  occ. eigenvalues --   -0.73961  -0.73812  -0.73442  -0.72961  -0.72042
 Alpha  occ. eigenvalues --   -0.70109  -0.67319  -0.67141  -0.66251  -0.64406
 Alpha  occ. eigenvalues --   -0.64034  -0.62244  -0.61244  -0.60452  -0.60304
 Alpha  occ. eigenvalues --   -0.59585  -0.59047  -0.58311  -0.57078  -0.56119
 Alpha  occ. eigenvalues --   -0.54973  -0.54447  -0.53801  -0.53363  -0.52078
 Alpha  occ. eigenvalues --   -0.52015  -0.50928  -0.50484  -0.49855  -0.49480
 Alpha  occ. eigenvalues --   -0.48904  -0.48356  -0.47657  -0.47273  -0.46900
 Alpha  occ. eigenvalues --   -0.46642  -0.45662  -0.45587  -0.45152  -0.44326
 Alpha  occ. eigenvalues --   -0.44197  -0.43979  -0.43680  -0.43305  -0.43010
 Alpha  occ. eigenvalues --   -0.42792  -0.42337  -0.41971  -0.41491  -0.41449
 Alpha  occ. eigenvalues --   -0.41289  -0.41041  -0.40799  -0.40728  -0.39995
 Alpha  occ. eigenvalues --   -0.39881  -0.39321  -0.38923  -0.38670  -0.38259
 Alpha  occ. eigenvalues --   -0.37488  -0.37314  -0.36735  -0.36323  -0.35810
 Alpha  occ. eigenvalues --   -0.35746  -0.35602  -0.35390  -0.35024  -0.34911
 Alpha  occ. eigenvalues --   -0.34112  -0.34026  -0.33636  -0.33411  -0.33194
 Alpha  occ. eigenvalues --   -0.32799  -0.32759  -0.32015  -0.31703  -0.29391
 Alpha  occ. eigenvalues --   -0.27866  -0.27427  -0.25592  -0.25159  -0.24921
 Alpha  occ. eigenvalues --   -0.24828  -0.24497  -0.24483  -0.24064  -0.23738
 Alpha  occ. eigenvalues --   -0.23220  -0.22955  -0.22360  -0.21812
 Alpha virt. eigenvalues --   -0.01164  -0.00963  -0.00756  -0.00324   0.00251
 Alpha virt. eigenvalues --    0.00419   0.00993   0.01367   0.02392   0.05268
 Alpha virt. eigenvalues --    0.05414   0.06306   0.06665   0.07659   0.08738

 Mulliken charges:
               1
     1  O   -0.625078
     2  C   -0.104231
     3  C    0.131996
     4  C   -0.266357
     5  C    0.135498
     6  C    0.073823
     7  O   -0.632814
     8  C   -0.143743
     9  N   -0.567261
    10  C   -0.124390
    11  C   -0.321345
    12  C   -0.110921
    13  C   -0.133236
    14  C   -0.117004
    15  C   -0.164363
    16  C   -0.150328
    17  N   -0.555265
    18  C   -0.119873
    19  C   -0.377388
    20  C    0.343189
    21  C   -0.058618
    22  N   -0.503921
    23  C    0.522231
    24  C    0.119077
    25  O   -0.664707
    26  C    0.121745
    27  C   -0.185659
    28  C   -0.137221
    29  C   -0.123889
    30  C   -0.135161
    31  C   -0.156659
    32  C    0.135223
    33  C   -0.159393
    34  C   -0.133582
    35  C   -0.124665
    36  C   -0.138252
    37  C   -0.175029
    38  O   -0.475528
    39  S    0.210929
    40  C   -0.178869
    41  C   -0.185517
    42  C    0.295678
    43  O   -0.666943
    44  H    0.409407
    45  H    0.133556
    46  H    0.148536
    47  H    0.137840
    48  H    0.131428
    49  H    0.392758
    50  H    0.124849
    51  H    0.126835
    52  H    0.308713
    53  H    0.128435
    54  H    0.145436
    55  H    0.151548
    56  H    0.164857
    57  H    0.135628
    58  H    0.150804
    59  H    0.128396
    60  H    0.167259
    61  H    0.301427
    62  H    0.156236
    63  H    0.123367
    64  H    0.159827
    65  H    0.173449
    66  H    0.169943
    67  H    0.419023
    68  H    0.137346
    69  H    0.127231
    70  H    0.128005
    71  H    0.130595
    72  H    0.154056
    73  H    0.152357
    74  H    0.127735
    75  H    0.126195
    76  H    0.126970
    77  H    0.139332
    78  H    0.153019
    79  H    0.120944
    80  H    0.414481
 Sum of Mulliken charges =  -0.00000

 Dipole moment (field-independent basis, Debye):
    X=              0.9067    Y=             -3.9748    Z=             -3.3319  Tot=              5.2652
 Quadrupole moment (field-independent basis, Debye-Ang):
   XX=           -280.8941   YY=           -250.9460   ZZ=           -250.0938
   XY=            -34.4325   XZ=             19.9376   YZ=             -8.1719

 Normal termination of Gaussian 16 at Sat Nov  5 12:36:22 2022.
