 Gaussian 16, Revision B.01,
 Gaussian 16:  ES64L-G16RevB.01 20-Dec-2017

 -----------------------------
 #p b3lyp/6-31g(d) opt SCF=XQC
 -----------------------------

 ------------------------------
 Gaussian input prepared by ASE
 ------------------------------
 Symbolic Z-matrix:
 Charge =  0 Multiplicity = 1

 SCF Done:  E(RB3LYP) =  -2256.36581222     A.U. after   14 cycles
 SCF Done:  E(RB3LYP) =  -2256.37699936     A.U. after   12 cycles
 SCF Done:  E(RB3LYP) =  -2256.37826398     A.U. after   12 cycles
 SCF Done:  E(RB3LYP) =  -2256.37868698     A.U. after   12 cycles
 SCF Done:  E(RB3LYP) =  -2256.37895706     A.U. after   11 cycles
 SCF Done:  E(RB3LYP) =  -2256.37920416     A.U. after   11 cycles
 SCF Done:  E(RB3LYP) =  -2256.37966451     A.U. after   14 cycles
 SCF Done:  E(RB3LYP) =  -2256.38010699     A.U. after   12 cycles
 SCF Done:  E(RB3LYP) =  -2256.38099658     A.U. after   12 cycles
 SCF Done:  E(RB3LYP) =  -2256.38199962     A.U. after   12 cycles
 SCF Done:  E(RB3LYP) =  -2256.38344715     A.U. after   11 cycles
 SCF Done:  E(RB3LYP) =  -2256.38347873     A.U. after   11 cycles
 SCF Done:  E(RB3LYP) =  -2256.38347986     A.U. after    7 cycles
 SCF Done:  E(RB3LYP) =  -2256.38347978     A.U. after    9 cycles
 SCF Done:  E(RB3LYP) =  -2256.38348090     A.U. after    9 cycles
 SCF Done:  E(RB3LYP) =  -2256.38348112     A.U. after    9 cycles
 SCF Done:  E(RB3LYP) =  -2256.38348117     A.U. after    7 cycles
 SCF Done:  E(RB3LYP) =  -2256.38348120     A.U. after    7 cycles
 SCF Done:  E(RB3LYP) =  -2256.38348121     A.U. after    6 cycles
 SCF Done:  E(RB3LYP) =  -2256.38348122     A.U. after    6 cycles
 Optimization completed.
    -- Stationary point found.

                         Standard orientation:
 ---------------------------------------------------------------------
 Center     Atomic      Atomic             Coordinates (Angstroms)
 Number     Number       Type             X           Y           Z
 ---------------------------------------------------------------------
      1          8           0       11.724082    3.700314    1.053040
      2          6           0       10.414974    3.145931    1.086165
      3          6           0       10.377786    1.656513    0.804820
      4          6           0        9.633191    1.114389   -0.244003
      5          6           0        9.589761   -0.263661   -0.497867
      6          6           0        8.730810   -0.815696   -1.617355
      7          8           0        9.391114   -1.965541   -2.148826
      8          6           0        7.316517   -1.205081   -1.137221
      9          7           0        6.575555   -0.050222   -0.644095
     10          6           0        5.193769   -0.335010   -0.252882
     11          6           0        4.240826   -0.319671   -1.466933
     12          6           0        2.800967   -0.541680   -1.101586
     13          6           0        1.779989    0.369862   -1.066753
     14          6           0        0.529378   -0.174965   -0.640916
     15          6           0        0.590973   -1.510551   -0.349324
     16          6           0       -0.503943   -2.417271    0.145865
     17          7           0       -1.809662   -1.967917   -0.336602
     18          6           0       -2.902522   -2.847407    0.070981
     19          6           0       -4.254408   -2.368323   -0.470178
     20          6           0       -4.692040   -1.044912    0.065295
     21          6           0       -4.100621    0.038734    0.632033
     22          7           0       -5.071079    0.984160    0.950531
     23          6           0       -6.189267    0.451469    0.567319
     24          6           0       -7.551673    1.113936    0.691464
     25          8           0       -7.398120    2.149586    1.657894
     26          6           0       -8.006137    1.727119   -0.651254
     27          6           0       -7.616975    1.217873   -1.895342
     28          6           0       -8.075593    1.804847   -3.078041
     29          6           0       -8.927234    2.907344   -3.031087
     30          6           0       -9.318190    3.421036   -1.792106
     31          6           0       -8.861009    2.836624   -0.612455
     32          6           0       -8.578783    0.105399    1.243198
     33          6           0       -8.738685   -0.018381    2.628630
     34          6           0       -9.633649   -0.949428    3.156206
     35          6           0      -10.375337   -1.772886    2.307637
     36          6           0      -10.216975   -1.655756    0.926302
     37          6           0       -9.325927   -0.721144    0.396834
     38          8           0       -6.051521   -0.781068    0.019649
     39         16           0        2.211558   -2.116990   -0.603841
     40          6           0       10.334839   -1.115868    0.322764
     41          6           0       11.098274   -0.600562    1.369847
     42          6           0       11.114510    0.773057    1.609080
     43          8           0       11.849363    1.333862    2.632322
     44          1           0       12.224185    3.245015    1.750230
     45          1           0        9.932388    3.347417    2.057171
     46          1           0        9.839992    3.676477    0.321243
     47          1           0        9.072920    1.789804   -0.887471
     48          1           0        8.618576   -0.039856   -2.389825
     49          1           0        8.829091   -2.325036   -2.852861
     50          1           0        6.772845   -1.621755   -1.997151
     51          1           0        7.413004   -2.020125   -0.395326
     52          1           0        7.075778    0.333014    0.154894
     53          1           0        5.092682   -1.298600    0.279896
     54          1           0        4.871322    0.446067    0.444489
     55          1           0        4.567024   -1.070789   -2.198421
     56          1           0        4.331572    0.654734   -1.959819
     57          1           0        1.917497    1.410185   -1.345886
     58          1           0       -0.386840    0.398327   -0.556489
     59          1           0       -0.278965   -3.463841   -0.137539
     60          1           0       -0.538126   -2.405856    1.245401
     61          1           0       -1.778242   -1.911198   -1.354487
     62          1           0       -2.935223   -2.860335    1.167660
     63          1           0       -2.749324   -3.894100   -0.254411
     64          1           0       -4.217050   -2.340932   -1.570808
     65          1           0       -5.018108   -3.114323   -0.217906
     66          1           0       -3.051214    0.196279    0.825414
     67          1           0       -6.462379    2.424651    1.617542
     68          1           0       -6.953991    0.360388   -1.951767
     69          1           0       -7.759401    1.398879   -4.035550
     70          1           0       -9.281442    3.365535   -3.950723
     71          1           0       -9.979054    4.282728   -1.743728
     72          1           0       -9.149956    3.242587    0.350834
     73          1           0       -8.167463    0.629909    3.282869
     74          1           0       -9.752540   -1.028399    4.233888
     75          1           0      -11.074132   -2.496611    2.719154
     76          1           0      -10.793117   -2.287353    0.254959
     77          1           0       -9.222415   -0.630418   -0.679552
     78          1           0       10.334139   -2.182363    0.124844
     79          1           0       11.685915   -1.268256    1.998266
     80          1           0       12.336518    0.635321    3.096108
 ---------------------------------------------------------------------

 The electronic state is 1-A.
 Alpha  occ. eigenvalues --  -88.90264 -19.22709 -19.19499 -19.15026 -19.14318
 Alpha  occ. eigenvalues --  -19.12734 -14.33659 -14.33292 -14.32304 -10.27525
 Alpha  occ. eigenvalues --  -10.26680 -10.25494 -10.24899 -10.24248 -10.23116
 Alpha  occ. eigenvalues --  -10.22855 -10.22804 -10.21761 -10.21759 -10.21468
 Alpha  occ. eigenvalues --  -10.21410 -10.21283 -10.21002 -10.19748 -10.19629
 Alpha  occ. eigenvalues --  -10.19397 -10.19389 -10.19325 -10.19266 -10.19202
 Alpha  occ. eigenvalues --  -10.19193 -10.18790 -10.18746 -10.18706 -10.18643
 Alpha  occ. eigenvalues --  -10.18623 -10.18540 -10.18392 -10.18339 -10.18254
 Alpha  occ. eigenvalues --  -10.18216 -10.18157 -10.17889  -7.96385  -5.92791
 Alpha  occ. eigenvalues --   -5.92432  -5.92081  -1.13226  -1.07176  -1.02665
 Alpha  occ. eigenvalues --   -1.02418  -1.00146  -0.92477  -0.91853  -0.90906
 Alpha  occ. eigenvalues --   -0.87532  -0.85749  -0.85414  -0.84408  -0.81263
 Alpha  occ. eigenvalues --   -0.78778  -0.77897  -0.76997  -0.76094  -0.74448
 Alpha  occ. eigenvalues --   -0.73961  -0.73812  -0.73442  -0.72962  -0.72042
 Alpha  occ. eigenvalues --   -0.70109  -0.67319  -0.67141  -0.66251  -0.64406
 Alpha  occ. eigenvalues --   -0.64034  -0.62244  -0.61244  -0.60452  -0.60304
 Alpha  occ. eigenvalues --   -0.59585  -0.59047  -0.58311  -0.57078  -0.56119
 Alpha  occ. eigenvalues --   -0.54973  -0.54447  -0.53801  -0.53363  -0.52078
 Alpha  occ. eigenvalues --   -0.52015  -0.50928  -0.50484  -0.49855  -0.49480
 Alpha  occ. eigenvalues --   -0.48904  -0.48356  -0.47657  -0.47273  -0.46900
 Alpha  occ. eigenvalues --   -0.46642  -0.45662  -0.45587  -0.45152  -0.44326
 Alpha  occ. eigenvalues --   -0.44197  -0.43979  -0.43680  -0.43305  -0.43009
 Alpha  occ. eigenvalues --   -0.42792  -0.42337  -0.41971  -0.41491  -0.41449
 Alpha  occ. eigenvalues --   -0.41289  -0.41041  -0.40799  -0.40728  -0.39995
 Alpha  occ. eigenvalues --   -0.39881  -0.39321  -0.38923  -0.38670  -0.38259
 Alpha  occ. eigenvalues --   -0.37488  -0.37314  -0.36735  -0.36323  -0.35810
 Alpha  occ. eigenvalues --   -0.35746  -0.35602  -0.35390  -0.35024  -0.34911
 Alpha  occ. eigenvalues --   -0.34112  -0.34026  -0.33636  -0.33411  -0.33194
 Alpha  occ. eigenvalues --   -0.32799  -0.32759  -0.32015  -0.31703  -0.29391
 Alpha  occ. eigenvalues --   -0.27866  -0.27427  -0.25592  -0.25159  -0.24922
 Alpha  occ. eigenvalues --   -0.24828  -0.24497  -0.24483  -0.24064  -0.23738
 Alpha  occ. eigenvalues --   -0.23220  -0.22955  -0.22360  -0.21812
 Alpha virt. eigenvalues --   -0.01164  -0.00963  -0.00756  -0.00324   0.00251
 Alpha virt. eigenvalues --    0.00419   0.00993   0.01367   0.02392   0.05268
 Alpha virt. eigenvalues --    0.05414   0.06306   0.06665   0.07659   0.08738

 Mulliken charges:
               1
     1  O   -0.625079
     2  C   -0.104218
     3  C    0.132000
     4  C   -0.266369
     5  C    0.135504
     6  C    0.073824
     7  O   -0.632811
     8  C   -0.143757
     9  N   -0.567252
    10  C   -0.124389
    11  C   -0.321351
    12  C   -0.110917
    13  C   -0.133236
    14  C   -0.117008
    15  C   -0.164354
    16  C   -0.150332
    17  N   -0.555263
    18  C   -0.119875
    19  C   -0.377400
    20  C    0.343220
    21  C   -0.058632
    22  N   -0.503906
    23  C    0.522198
    24  C    0.119054
    25  O   -0.664700
    26  C    0.121772
    27  C   -0.185653
    28  C   -0.137226
    29  C   -0.123889
    30  C   -0.135160
    31  C   -0.156665
    32  C    0.135244
    33  C   -0.159397
    34  C   -0.133588
    35  C   -0.124652
    36  C   -0.138267
    37  C   -0.175026
    38  O   -0.475531
    39  S    0.210922
    40  C   -0.178869
    41  C   -0.185515
    42  C    0.295667
    43  O   -0.666941
    44  H    0.409407
    45  H    0.133554
    46  H    0.148535
    47  H    0.137843
    48  H    0.131428
    49  H    0.392757
    50  H    0.124851
    51  H    0.126836
    52  H    0.308711
    53  H    0.128435
    54  H    0.145436
    55  H    0.151549
    56  H    0.164856
    57  H    0.135628
    58  H    0.150805
    59  H    0.128396
    60  H    0.167260
    61  H    0.301427
    62  H    0.156235
    63  H    0.123368
    64  H    0.159831
    65  H    0.173451
    66  H    0.169943
    67  H    0.419023
    68  H    0.137339
    69  H    0.127231
    70  H    0.128005
    71  H    0.130594
    72  H    0.154055
    73  H    0.152358
    74  H    0.127736
    75  H    0.126194
    76  H    0.126971
    77  H    0.139332
    78  H    0.153019
    79  H    0.120943
    80  H    0.414482
 Sum of Mulliken charges =  -0.00000

 Dipole moment (field-independent basis, Debye):
    X=              0.8868    Y=             -5.1803    Z=             -0.3182  Tot=              5.2653
 Quadrupole moment (field-independent basis, Debye-Ang):
   XX=           -283.3166   YY=           -258.0185   ZZ=           -240.2749
   XY=            -16.0264   XZ=             35.0235   YZ=             -2.4830

 Normal termination of Gaussian 16 at Fri Nov  4 20:55:58 2022.
