 Gaussian 16, Revision B.01,
 Gaussian 16:  ES64L-G16RevB.01 20-Dec-2017

 -----------------------------
 #p b3lyp/6-31g(d) opt SCF=XQC
 -----------------------------

 ------------------------------
 Gaussian input prepared by ASE
 ------------------------------
 Symbolic Z-matrix:
 Charge =  0 Multiplicity = 1

 SCF Done:  E(RB3LYP) =  -1683.13169779     A.U. after   15 cycles
 SCF Done:  E(RB3LYP) =  -1683.14856051     A.U. after   14 cycles
 SCF Done:  E(RB3LYP) =  -1683.15313938     A.U. after   12 cycles
 SCF Done:  E(RB3LYP) =  -1683.15506252     A.U. after   14 cycles
 SCF Done:  E(RB3LYP) =  -1683.15595035     A.U. after   12 cycles
 SCF Done:  E(RB3LYP) =  -1683.15643609     A.U. after   12 cycles
 SCF Done:  E(RB3LYP) =  -1683.15666906     A.U. after   12 cycles
 SCF Done:  E(RB3LYP) =  -1683.15690273     A.U. after   12 cycles
 SCF Done:  E(RB3LYP) =  -1683.15694780     A.U. after   11 cycles
 SCF Done:  E(RB3LYP) =  -1683.15696296     A.U. after   10 cycles
 SCF Done:  E(RB3LYP) =  -1683.15698130     A.U. after    9 cycles
 SCF Done:  E(RB3LYP) =  -1683.15698384     A.U. after    9 cycles
 SCF Done:  E(RB3LYP) =  -1683.15698659     A.U. after   10 cycles
 SCF Done:  E(RB3LYP) =  -1683.15698992     A.U. after    9 cycles
 SCF Done:  E(RB3LYP) =  -1683.15699323     A.U. after   10 cycles
 SCF Done:  E(RB3LYP) =  -1683.15699452     A.U. after    9 cycles
 SCF Done:  E(RB3LYP) =  -1683.15699513     A.U. after    9 cycles
 SCF Done:  E(RB3LYP) =  -1683.15699527     A.U. after    7 cycles
 SCF Done:  E(RB3LYP) =  -1683.15699537     A.U. after    7 cycles
 SCF Done:  E(RB3LYP) =  -1683.15699537     A.U. after    6 cycles
 Optimization completed.
    -- Stationary point found.

                         Standard orientation:
 ---------------------------------------------------------------------
 Center     Atomic      Atomic             Coordinates (Angstroms)
 Number     Number       Type             X           Y           Z
 ---------------------------------------------------------------------
      1          6           0        0.336615    5.064997    0.195356
      2          6           0        1.075246    3.996035   -0.099109
      3          6           0        1.086281    2.730573    0.719355
      4          7           0        0.765723    1.542401   -0.092255
      5          6           0       -0.490664    1.111893   -0.500842
      6          6           0       -1.786083    1.740381   -0.055967
      7          7           0       -2.781662    0.788620    0.460857
      8          6           0       -3.598873    0.197817   -0.480316
      9          8           0       -3.406838    0.401602   -1.679126
     10          6           0       -4.722050   -0.733133   -0.004507
     11          6           0       -5.821410   -0.911404   -1.083230
     12          6           0       -6.227296   -2.391731   -1.002425
     13          6           0       -4.891361   -3.098877   -0.733832
     14          6           0       -4.189291   -2.184603    0.291287
     15          6           0       -2.867609    0.566850    1.917934
     16          6           0       -1.514451    0.166831    2.524856
     17          6           0       -3.491604    1.770134    2.643422
     18          6           0       -0.256857    0.055807   -1.357035
     19          7           0        1.086619   -0.173607   -1.496685
     20          6           0        1.663492    0.726633   -0.729566
     21         16           0        3.438863    0.965597   -0.677091
     22          8           0        3.792019    2.016030   -1.650730
     23          8           0        3.844139    1.137842    0.732133
     24          6           0        4.086238   -0.626947   -1.326456
     25          6           0        4.047879   -1.775558   -0.358531
     26          6           0        5.040152   -1.906813    0.622848
     27          6           0        5.019705   -2.983096    1.508439
     28          6           0        4.007111   -3.941039    1.422900
     29          6           0        3.012762   -3.814058    0.451331
     30          6           0        3.029853   -2.735488   -0.433241
     31          1           0       -0.331780    5.084916    1.054590
     32          1           0        0.380382    5.969734   -0.404036
     33          1           0        1.744324    3.998766   -0.958426
     34          1           0        2.073659    2.552836    1.154179
     35          1           0        0.371244    2.791029    1.544633
     36          1           0       -2.243079    2.250531   -0.907794
     37          1           0       -1.600789    2.492443    0.713161
     38          1           0       -5.174614   -0.322594    0.903152
     39          1           0       -5.385557   -0.690390   -2.061761
     40          1           0       -6.659918   -0.223405   -0.930460
     41          1           0       -6.917056   -2.560472   -0.163588
     42          1           0       -6.726730   -2.743657   -1.911736
     43          1           0       -4.305243   -3.138411   -1.660564
     44          1           0       -5.002799   -4.126544   -0.370991
     45          1           0       -3.097951   -2.250952    0.226304
     46          1           0       -4.466529   -2.477304    1.311238
     47          1           0       -3.532008   -0.286017    2.057953
     48          1           0       -1.653075   -0.115018    3.574431
     49          1           0       -1.079044   -0.683798    1.992481
     50          1           0       -0.790442    0.988066    2.502646
     51          1           0       -2.868465    2.667583    2.553475
     52          1           0       -3.602714    1.554128    3.712032
     53          1           0       -4.480199    2.003527    2.234323
     54          1           0       -0.995797   -0.532471   -1.880756
     55          1           0        5.106792   -0.339709   -1.601346
     56          1           0        3.512800   -0.812665   -2.236717
     57          1           0        5.825976   -1.159931    0.694497
     58          1           0        5.795634   -3.074798    2.263611
     59          1           0        3.994257   -4.782988    2.110079
     60          1           0        2.221999   -4.556227    0.380138
     61          1           0        2.248883   -2.622653   -1.178967
 ---------------------------------------------------------------------

 The electronic state is 1-A.
 Alpha  occ. eigenvalues --  -89.09384 -19.13936 -19.13742 -19.11334 -14.41255
 Alpha  occ. eigenvalues --  -14.36869 -14.33324 -10.28569 -10.26341 -10.24677
 Alpha  occ. eigenvalues --  -10.24454 -10.23933 -10.23062 -10.22668 -10.20480
 Alpha  occ. eigenvalues --  -10.20411 -10.20401 -10.20053 -10.19697 -10.19572
 Alpha  occ. eigenvalues --  -10.19348 -10.19310 -10.19205 -10.19147 -10.19054
 Alpha  occ. eigenvalues --  -10.19044 -10.18939 -10.18297 -10.18036 -10.17588
 Alpha  occ. eigenvalues --   -8.12308  -6.08715  -6.08705  -6.08608  -1.09595
 Alpha  occ. eigenvalues --   -1.03533  -1.03062  -0.98995  -0.93770  -0.90485
 Alpha  occ. eigenvalues --   -0.85915  -0.83809  -0.80773  -0.79616  -0.79572
 Alpha  occ. eigenvalues --   -0.77601  -0.74466  -0.74086  -0.72302  -0.71164
 Alpha  occ. eigenvalues --   -0.71082  -0.70565  -0.69788  -0.64627  -0.62571
 Alpha  occ. eigenvalues --   -0.61272  -0.60688  -0.59439  -0.58706  -0.57828
 Alpha  occ. eigenvalues --   -0.57422  -0.55653  -0.54656  -0.52882  -0.51331
 Alpha  occ. eigenvalues --   -0.51244  -0.49558  -0.48593  -0.47900  -0.47848
 Alpha  occ. eigenvalues --   -0.47263  -0.46910  -0.46669  -0.46326  -0.45546
 Alpha  occ. eigenvalues --   -0.45199  -0.44366  -0.44310  -0.43003  -0.42727
 Alpha  occ. eigenvalues --   -0.42198  -0.42107  -0.41868  -0.41690  -0.41669
 Alpha  occ. eigenvalues --   -0.41118  -0.40554  -0.40396  -0.39756  -0.38940
 Alpha  occ. eigenvalues --   -0.37946  -0.36967  -0.36540  -0.36434  -0.35859
 Alpha  occ. eigenvalues --   -0.35164  -0.34935  -0.34218  -0.34084  -0.33460
 Alpha  occ. eigenvalues --   -0.33133  -0.32909  -0.32639  -0.32213  -0.31660
 Alpha  occ. eigenvalues --   -0.30146  -0.29704  -0.28647  -0.28343  -0.27357
 Alpha  occ. eigenvalues --   -0.25336  -0.24969  -0.24684  -0.24369  -0.22961
 Alpha virt. eigenvalues --   -0.01630  -0.01004  -0.00136   0.00570   0.01926
 Alpha virt. eigenvalues --    0.04222   0.05017   0.05871   0.07087   0.08365
 Alpha virt. eigenvalues --    0.08720   0.09150   0.09217   0.09767   0.10666

 Mulliken charges:
               1
     1  C   -0.338821
     2  C   -0.041099
     3  C   -0.260250
     4  N   -0.464420
     5  C    0.335202
     6  C   -0.247404
     7  N   -0.413570
     8  C    0.592155
     9  O   -0.528007
    10  C   -0.197727
    11  C   -0.275567
    12  C   -0.272719
    13  C   -0.266077
    14  C   -0.280156
    15  C    0.017146
    16  C   -0.456303
    17  C   -0.442088
    18  C   -0.067430
    19  N   -0.454367
    20  C    0.207798
    21  S    1.130604
    22  O   -0.526498
    23  O   -0.543511
    24  C   -0.590209
    25  C    0.156495
    26  C   -0.150441
    27  C   -0.132310
    28  C   -0.124979
    29  C   -0.131974
    30  C   -0.169974
    31  H    0.136916
    32  H    0.157739
    33  H    0.179661
    34  H    0.234381
    35  H    0.161705
    36  H    0.209328
    37  H    0.151754
    38  H    0.142548
    39  H    0.181197
    40  H    0.133304
    41  H    0.128166
    42  H    0.139818
    43  H    0.148915
    44  H    0.136317
    45  H    0.151146
    46  H    0.138039
    47  H    0.158352
    48  H    0.153328
    49  H    0.171891
    50  H    0.149750
    51  H    0.146162
    52  H    0.152200
    53  H    0.157226
    54  H    0.169461
    55  H    0.215877
    56  H    0.235132
    57  H    0.141837
    58  H    0.133361
    59  H    0.130650
    60  H    0.130880
    61  H    0.159462
 Sum of Mulliken charges =  -0.00000

 Dipole moment (field-independent basis, Debye):
    X=             -3.7156    Y=             -1.2655    Z=              4.4380  Tot=              5.9247
 Quadrupole moment (field-independent basis, Debye-Ang):
   XX=           -185.7389   YY=           -174.8429   ZZ=           -188.0841
   XY=             -9.8892   XZ=             -9.1752   YZ=              3.7146

 Normal termination of Gaussian 16 at Fri Nov  4 20:38:34 2022.
