 Gaussian 16, Revision B.01,
 Gaussian 16:  ES64L-G16RevB.01 20-Dec-2017

 -------------------------------------------------------------------
 #p b3lyp/6-31g(d) 6D 10F nosymm GFInput td=(50-50,nstate=2) SCF=XQC
 -------------------------------------------------------------------

 ------------------------------
 Gaussian input prepared by ASE
 ------------------------------
 Symbolic Z-matrix:
 Charge =  0 Multiplicity = 1

                          Input orientation:
 ---------------------------------------------------------------------
 Center     Atomic      Atomic             Coordinates (Angstroms)
 Number     Number       Type             X           Y           Z
 ---------------------------------------------------------------------
      1          6           0        2.019623   -4.859462   -0.372644
      2          6           0        2.448522   -3.734143    0.197151
      3          6           0        2.339546   -2.373719   -0.442200
      4          7           0        1.632098   -1.410441    0.420838
      5          6           0        0.260120   -1.289456    0.604759
      6          6           0       -0.769466   -2.065895   -0.175059
      7          7           0       -1.833279   -1.243146   -0.771313
      8          6           0       -2.914446   -0.971289    0.041006
      9          8           0       -2.904875   -1.325707    1.219923
     10          6           0       -4.103820   -0.198759   -0.544807
     11          6           0       -5.393406   -0.400903    0.291925
     12          6           0       -6.082442    0.973020    0.306393
     13          6           0       -4.900870    1.947521    0.412017
     14          6           0       -3.846374    1.354242   -0.544918
     15          6           0       -1.697829   -0.810390   -2.176310
     16          6           0       -0.373036   -0.076355   -2.432284
     17          6           0       -1.909769   -1.975823   -3.156331
     18          6           0        0.104865   -0.359474    1.611773
     19          7           0        1.320764    0.087693    2.057525
     20          6           0        2.205147   -0.556343    1.326246
     21         16           0        3.970035   -0.453195    1.620065
     22          8           0        4.354859   -1.562978    2.512475
     23          8           0        4.652019   -0.319887    0.317393
     24          6           0        4.135698    1.106239    2.578025
     25          6           0        4.031267    2.368208    1.769208
     26          6           0        5.134669    2.835236    1.041659
     27          6           0        5.047805    4.017162    0.307779
     28          6           0        3.856783    4.746251    0.293087
     29          6           0        2.752266    4.284559    1.011198
     30          6           0        2.836579    3.099961    1.743106
     31          1           0        1.538357   -4.864007   -1.349268
     32          1           0        2.144545   -5.824874    0.109134
     33          1           0        2.935234   -3.751452    1.171272
     34          1           0        3.328979   -1.950097   -0.634927
     35          1           0        1.815919   -2.431594   -1.400574
     36          1           0       -1.254977   -2.781177    0.493790
     37          1           0       -0.292131   -2.637917   -0.972825
     38          1           0       -4.286184   -0.534675   -1.570042
     39          1           0       -5.106010   -0.691894    1.306354
     40          1           0       -6.024787   -1.197839   -0.115540
     41          1           0       -6.627951    1.144239   -0.632220
     42          1           0       -6.802022    1.076759    1.125889
     43          1           0       -4.515042    1.945142    1.439178
     44          1           0       -5.159869    2.981799    0.160300
     45          1           0       -2.824399    1.608867   -0.244287
     46          1           0       -3.989147    1.750561   -1.557529
     47          1           0       -2.491211   -0.083026   -2.349233
     48          1           0       -0.375026    0.339677   -3.445781
     49          1           0       -0.232241    0.743340   -1.721757
     50          1           0        0.492299   -0.743202   -2.357308
     51          1           0       -1.137440   -2.745986   -3.046036
     52          1           0       -1.867911   -1.615535   -4.190435
     53          1           0       -2.883886   -2.449522   -2.995519
     54          1           0       -0.824684   -0.008777    2.035254
     55          1           0        5.126534    0.971303    3.024834
     56          1           0        3.380145    1.035029    3.362861
     57          1           0        6.060656    2.266904    1.047533
     58          1           0        5.910727    4.369798   -0.250587
     59          1           0        3.790829    5.670523   -0.274918
     60          1           0        1.822620    4.847484    1.003274
     61          1           0        1.975017    2.727417    2.288703
 ---------------------------------------------------------------------

 SCF Done:  E(RB3LYP) =  -1683.15699572     A.U. after   15 cycles

 Excitation energies and oscillator strengths:

 Excited state symmetry could not be determined.
 Excited State   1:      Triplet-?Sym    3.6821 eV  336.72 nm  f=0.0000  <S**2>=2.000
     112 ->118         0.42140
     114 ->116         0.46802
     114 ->117         0.25980
 This state for optimization and/or second-order correction.
 Total Energy, E(TD-HF/TD-DFT) =  -1683.02168001
 Copying the excited state density for this state as the 1-particle RhoCI density.

 Excited state symmetry could not be determined.
 Excited State   2:      Triplet-?Sym    3.9216 eV  316.16 nm  f=0.0000  <S**2>=2.000
     115 ->116        -0.36265
     115 ->117         0.49518
     115 ->119         0.23737

 Excited state symmetry could not be determined.
 Excited State   3:      Singlet-?Sym    5.2196 eV  237.54 nm  f=0.0322  <S**2>=0.000
     112 ->116        -0.12872
     114 ->118         0.14176
     115 ->116         0.65733
     115 ->117         0.11934

 Excited state symmetry could not be determined.
 Excited State   4:      Singlet-?Sym    5.3208 eV  233.02 nm  f=0.0133  <S**2>=0.000
     112 ->116         0.45877
     112 ->117         0.20375
     114 ->118        -0.42768
     115 ->116         0.20864

 Alpha  occ. eigenvalues --  -89.09384 -19.13936 -19.13742 -19.11334 -14.41255
 Alpha  occ. eigenvalues --  -14.36869 -14.33324 -10.28569 -10.26341 -10.24677
 Alpha  occ. eigenvalues --  -10.24454 -10.23934 -10.23062 -10.22668 -10.20479
 Alpha  occ. eigenvalues --  -10.20411 -10.20401 -10.20053 -10.19697 -10.19572
 Alpha  occ. eigenvalues --  -10.19349 -10.19310 -10.19205 -10.19147 -10.19054
 Alpha  occ. eigenvalues --  -10.19044 -10.18939 -10.18297 -10.18036 -10.17588
 Alpha  occ. eigenvalues --   -8.12308  -6.08715  -6.08705  -6.08608  -1.09595
 Alpha  occ. eigenvalues --   -1.03533  -1.03062  -0.98995  -0.93770  -0.90485
 Alpha  occ. eigenvalues --   -0.85915  -0.83809  -0.80773  -0.79616  -0.79572
 Alpha  occ. eigenvalues --   -0.77601  -0.74466  -0.74086  -0.72302  -0.71164
 Alpha  occ. eigenvalues --   -0.71082  -0.70565  -0.69788  -0.64627  -0.62571
 Alpha  occ. eigenvalues --   -0.61272  -0.60687  -0.59439  -0.58706  -0.57828
 Alpha  occ. eigenvalues --   -0.57422  -0.55653  -0.54656  -0.52882  -0.51331
 Alpha  occ. eigenvalues --   -0.51244  -0.49558  -0.48593  -0.47900  -0.47848
 Alpha  occ. eigenvalues --   -0.47263  -0.46910  -0.46669  -0.46326  -0.45546
 Alpha  occ. eigenvalues --   -0.45199  -0.44366  -0.44310  -0.43003  -0.42727
 Alpha  occ. eigenvalues --   -0.42198  -0.42107  -0.41868  -0.41690  -0.41669
 Alpha  occ. eigenvalues --   -0.41118  -0.40554  -0.40396  -0.39756  -0.38940
 Alpha  occ. eigenvalues --   -0.37946  -0.36967  -0.36540  -0.36434  -0.35859
 Alpha  occ. eigenvalues --   -0.35164  -0.34935  -0.34218  -0.34084  -0.33460
 Alpha  occ. eigenvalues --   -0.33133  -0.32909  -0.32639  -0.32213  -0.31660
 Alpha  occ. eigenvalues --   -0.30146  -0.29704  -0.28647  -0.28343  -0.27357
 Alpha  occ. eigenvalues --   -0.25336  -0.24969  -0.24684  -0.24369  -0.22961
 Alpha virt. eigenvalues --   -0.01630  -0.01004  -0.00136   0.00570   0.01926
 Alpha virt. eigenvalues --    0.04222   0.05017   0.05871   0.07087   0.08365
 Alpha virt. eigenvalues --    0.08720   0.09151   0.09217   0.09767   0.10665

 Mulliken charges:
               1
     1  C   -0.338819
     2  C   -0.041093
     3  C   -0.260266
     4  N   -0.464420
     5  C    0.335212
     6  C   -0.247419
     7  N   -0.413540
     8  C    0.592145
     9  O   -0.528011
    10  C   -0.197709
    11  C   -0.275569
    12  C   -0.272744
    13  C   -0.266068
    14  C   -0.280165
    15  C    0.017127
    16  C   -0.456283
    17  C   -0.442085
    18  C   -0.067442
    19  N   -0.454353
    20  C    0.207751
    21  S    1.130679
    22  O   -0.526511
    23  O   -0.543522
    24  C   -0.590230
    25  C    0.156502
    26  C   -0.150463
    27  C   -0.132289
    28  C   -0.124985
    29  C   -0.131974
    30  C   -0.169967
    31  H    0.136917
    32  H    0.157738
    33  H    0.179658
    34  H    0.234379
    35  H    0.161710
    36  H    0.209333
    37  H    0.151754
    38  H    0.142544
    39  H    0.181198
    40  H    0.133305
    41  H    0.128171
    42  H    0.139821
    43  H    0.148917
    44  H    0.136316
    45  H    0.151150
    46  H    0.138040
    47  H    0.158352
    48  H    0.153327
    49  H    0.171888
    50  H    0.149746
    51  H    0.146162
    52  H    0.152201
    53  H    0.157224
    54  H    0.169461
    55  H    0.215880
    56  H    0.235135
    57  H    0.141837
    58  H    0.133358
    59  H    0.130649
    60  H    0.130879
    61  H    0.159460
 Sum of Mulliken charges =  -0.00000

 Dipole moment (field-independent basis, Debye):
    X=             -3.0289    Y=              1.2551    Z=             -4.9349  Tot=              5.9247
 Quadrupole moment (field-independent basis, Debye-Ang):
   XX=           -195.8253   YY=           -173.8214   ZZ=           -186.1871
   XY=              5.1240   XZ=              4.2152   YZ=              9.2720

 Normal termination of Gaussian 16 at Sat Nov  5 12:08:45 2022.
