 Gaussian 16, Revision B.01,
 Gaussian 16:  ES64L-G16RevB.01 20-Dec-2017

 -------------------------------------------------------------------
 #p b3lyp/6-31g(d) 6D 10F nosymm GFInput td=(50-50,nstate=2) SCF=XQC
 -------------------------------------------------------------------

 ------------------------------
 Gaussian input prepared by ASE
 ------------------------------
 Symbolic Z-matrix:
 Charge =  0 Multiplicity = 1

                          Input orientation:
 ---------------------------------------------------------------------
 Center     Atomic      Atomic             Coordinates (Angstroms)
 Number     Number       Type             X           Y           Z
 ---------------------------------------------------------------------
      1          6           0        0.766263    1.878643    2.679272
      2          6           0        0.498192    0.752704    1.675293
      3          6           0        0.552098    1.261523    0.226586
      4          7           0        0.293288    0.234126   -0.794152
      5          6           0       -1.063349    0.177260   -1.387193
      6          6           0       -2.180818   -0.100470   -0.414240
      7          6           0       -2.963018    0.856381    0.311209
      8          6           0       -3.015440    2.331824    0.191869
      9          6           0       -2.999875    3.133970    1.346435
     10          6           0       -3.087579    4.522220    1.265678
     11          6           0       -3.198689    5.143855    0.019706
     12          6           0       -3.230707    4.373363   -1.142136
     13          6           0       -3.148566    2.990926   -1.034343
     14          9           0       -3.209793    2.262037   -2.174353
     15          7           0       -3.706108    0.311669    1.256004
     16          8           0       -3.453654   -1.072022    1.160271
     17          6           0       -2.563116   -1.302025    0.167294
     18          7           0       -2.245153   -2.605926   -0.046302
     19          6           0       -2.644512   -3.618456    0.936163
     20          6           0       -1.824494   -4.882627    0.699303
     21          8           0       -1.996737   -5.430359   -0.606089
     22          6           0       -2.469944   -4.505293   -1.578199
     23          6           0       -1.904327   -3.098319   -1.395385
     24          6           0        1.203092   -0.722669   -1.160917
     25          8           0        0.913611   -1.683646   -1.878899
     26          6           0        2.633025   -0.589885   -0.690194
     27          6           0        3.199414   -1.653739    0.029328
     28          6           0        4.541035   -1.600789    0.390645
     29          6           0        5.345569   -0.516542    0.024624
     30          6           0        4.786792    0.529077   -0.718334
     31          8           0        5.471010    1.628857   -1.150148
     32          6           0        6.855036    1.718721   -0.851178
     33          6           0        3.428908    0.490424   -1.068251
     34          1           0        0.021663    2.678894    2.587383
     35          1           0        0.728923    1.505597    3.708477
     36          1           0        1.756064    2.325215    2.523038
     37          1           0        1.243795   -0.042164    1.799694
     38          1           0       -0.481877    0.302395    1.867395
     39          1           0       -0.198125    2.045474    0.083299
     40          1           0        1.524838    1.724176    0.044552
     41          1           0       -1.008665   -0.579777   -2.167386
     42          1           0       -1.249972    1.135579   -1.877426
     43          1           0       -2.921517    2.639764    2.309099
     44          1           0       -3.069689    5.117523    2.173687
     45          1           0       -3.263410    6.225797   -0.051281
     46          1           0       -3.332166    4.819157   -2.126139
     47          1           0       -2.448365   -3.237357    1.942666
     48          1           0       -3.720390   -3.840591    0.877985
     49          1           0       -0.760485   -4.655785    0.865569
     50          1           0       -2.122521   -5.654946    1.417654
     51          1           0       -2.162172   -4.896120   -2.553054
     52          1           0       -3.570901   -4.467724   -1.564354
     53          1           0       -0.822133   -3.081966   -1.551751
     54          1           0       -2.359863   -2.438754   -2.142795
     55          1           0        2.587756   -2.512681    0.285384
     56          1           0        4.980650   -2.416906    0.957897
     57          1           0        6.390765   -0.502930    0.311307
     58          1           0        7.033943    1.746166    0.231997
     59          1           0        7.417501    0.883059   -1.288053
     60          1           0        7.196769    2.655062   -1.295955
     61          1           0        3.028134    1.309026   -1.658261
 ---------------------------------------------------------------------

 SCF Done:  E(RB3LYP) =  -1534.43903553     A.U. after   15 cycles

 Excitation energies and oscillator strengths:

 Excited state symmetry could not be determined.
 Excited State   1:      Triplet-?Sym    3.2643 eV  379.82 nm  f=0.0000  <S**2>=2.000
     114 ->121        -0.10417
     116 ->121        -0.15791
     117 ->121         0.13309
     120 ->121         0.55886
     120 ->125        -0.29565
 This state for optimization and/or second-order correction.
 Total Energy, E(TD-HF/TD-DFT) =  -1534.31907393
 Copying the excited state density for this state as the 1-particle RhoCI density.

 Excited state symmetry could not be determined.
 Excited State   2:      Triplet-?Sym    3.6343 eV  341.15 nm  f=0.0000  <S**2>=2.000
     113 ->122        -0.25076
     114 ->122         0.10213
     116 ->122         0.18053
     117 ->122         0.32169
     117 ->124         0.10043
     119 ->122         0.14998
     119 ->124        -0.47029

 Excited state symmetry could not be determined.
 Excited State   3:      Singlet-?Sym    4.0629 eV  305.16 nm  f=0.0204  <S**2>=0.000
     120 ->121         0.70146

 Excited state symmetry could not be determined.
 Excited State   4:      Singlet-?Sym    4.3858 eV  282.69 nm  f=0.0116  <S**2>=0.000
     117 ->122        -0.10266
     120 ->122         0.68777

 Alpha  occ. eigenvalues --  -24.71435 -19.22168 -19.18261 -19.14641 -19.10805
 Alpha  occ. eigenvalues --  -14.36648 -14.36333 -14.36096 -10.28366 -10.28333
 Alpha  occ. eigenvalues --  -10.28110 -10.25301 -10.24569 -10.23798 -10.23665
 Alpha  occ. eigenvalues --  -10.22892 -10.22689 -10.22160 -10.21936 -10.21764
 Alpha  occ. eigenvalues --  -10.21535 -10.20695 -10.20399 -10.20378 -10.20266
 Alpha  occ. eigenvalues --  -10.19940 -10.19598 -10.19316 -10.19157 -10.18790
 Alpha  occ. eigenvalues --  -10.18770 -10.18151 -10.17654  -1.22442  -1.12935
 Alpha  occ. eigenvalues --   -1.06854  -1.03386  -1.02627  -0.95486  -0.92703
 Alpha  occ. eigenvalues --   -0.88180  -0.85592  -0.85179  -0.79753  -0.78109
 Alpha  occ. eigenvalues --   -0.77845  -0.76457  -0.76072  -0.75969  -0.75423
 Alpha  occ. eigenvalues --   -0.72358  -0.69984  -0.69370  -0.68246  -0.67475
 Alpha  occ. eigenvalues --   -0.64253  -0.62753  -0.62208  -0.60373  -0.60018
 Alpha  occ. eigenvalues --   -0.59297  -0.58298  -0.55730  -0.54788  -0.54360
 Alpha  occ. eigenvalues --   -0.53019  -0.52583  -0.51822  -0.49815  -0.49741
 Alpha  occ. eigenvalues --   -0.49097  -0.48789  -0.48220  -0.47967  -0.47731
 Alpha  occ. eigenvalues --   -0.47310  -0.47160  -0.46415  -0.45767  -0.44954
 Alpha  occ. eigenvalues --   -0.44473  -0.44218  -0.43488  -0.43262  -0.42918
 Alpha  occ. eigenvalues --   -0.42390  -0.41775  -0.41413  -0.40879  -0.40631
 Alpha  occ. eigenvalues --   -0.40155  -0.39442  -0.39178  -0.38869  -0.38697
 Alpha  occ. eigenvalues --   -0.37920  -0.37770  -0.37569  -0.37314  -0.36940
 Alpha  occ. eigenvalues --   -0.36472  -0.35811  -0.35541  -0.35180  -0.34509
 Alpha  occ. eigenvalues --   -0.33531  -0.33176  -0.32157  -0.30908  -0.30681
 Alpha  occ. eigenvalues --   -0.29673  -0.28526  -0.26352  -0.25720  -0.25115
 Alpha  occ. eigenvalues --   -0.24701  -0.23999  -0.23532  -0.22232  -0.19994
 Alpha virt. eigenvalues --   -0.03047  -0.01792  -0.00734   0.00463   0.01739
 Alpha virt. eigenvalues --    0.03967   0.06440   0.07939   0.07980   0.08877
 Alpha virt. eigenvalues --    0.09771   0.10217   0.10407   0.11485   0.12118

 Mulliken charges:
               1
     1  C   -0.453340
     2  C   -0.258990
     3  C   -0.154051
     4  N   -0.403547
     5  C   -0.258901
     6  C   -0.016437
     7  C    0.217012
     8  C    0.021211
     9  C   -0.158355
    10  C   -0.136235
    11  C   -0.125624
    12  C   -0.194146
    13  C    0.330905
    14  F   -0.289937
    15  N   -0.246732
    16  O   -0.412318
    17  C    0.603160
    18  N   -0.524596
    19  C   -0.155721
    20  C   -0.024449
    21  O   -0.484143
    22  C   -0.036862
    23  C   -0.180184
    24  C    0.500098
    25  O   -0.519668
    26  C    0.070344
    27  C   -0.153817
    28  C   -0.142546
    29  C   -0.191955
    30  C    0.378424
    31  O   -0.507750
    32  C   -0.216288
    33  C   -0.215100
    34  H    0.146765
    35  H    0.148400
    36  H    0.145745
    37  H    0.144815
    38  H    0.155648
    39  H    0.154648
    40  H    0.160001
    41  H    0.193608
    42  H    0.168935
    43  H    0.163004
    44  H    0.139370
    45  H    0.142385
    46  H    0.150915
    47  H    0.172180
    48  H    0.162580
    49  H    0.142112
    50  H    0.148824
    51  H    0.159299
    52  H    0.133162
    53  H    0.220121
    54  H    0.154993
    55  H    0.139711
    56  H    0.134709
    57  H    0.133839
    58  H    0.151907
    59  H    0.154809
    60  H    0.171575
    61  H    0.146477
 Sum of Mulliken charges =  -0.00000

 Dipole moment (field-independent basis, Debye):
    X=              3.2827    Y=              2.8367    Z=              1.4845  Tot=              4.5855
 Quadrupole moment (field-independent basis, Debye-Ang):
   XX=           -176.9012   YY=           -180.5139   ZZ=           -191.8456
   XY=              2.8884   XZ=              9.6740   YZ=             -6.9046

 Normal termination of Gaussian 16 at Sat Nov  5 12:26:41 2022.
