 Gaussian 16, Revision B.01,
 Gaussian 16:  ES64L-G16RevB.01 20-Dec-2017

 -----------------------------
 #p b3lyp/6-31g(d) opt SCF=XQC
 -----------------------------

 ------------------------------
 Gaussian input prepared by ASE
 ------------------------------
 Symbolic Z-matrix:
 Charge =  0 Multiplicity = 1

 SCF Done:  E(RB3LYP) =  -1534.42855522     A.U. after   16 cycles
 SCF Done:  E(RB3LYP) =  -1534.43609564     A.U. after   13 cycles
 SCF Done:  E(RB3LYP) =  -1534.43665265     A.U. after   13 cycles
 SCF Done:  E(RB3LYP) =  -1534.43468621     A.U. after   13 cycles
 SCF Done:  E(RB3LYP) =  -1534.43652485     A.U. after   13 cycles
 SCF Done:  E(RB3LYP) =  -1534.43838752     A.U. after   10 cycles
 SCF Done:  E(RB3LYP) =  -1534.43870815     A.U. after   12 cycles
 SCF Done:  E(RB3LYP) =  -1534.43882620     A.U. after   12 cycles
 SCF Done:  E(RB3LYP) =  -1534.43890459     A.U. after   11 cycles
 SCF Done:  E(RB3LYP) =  -1534.43895296     A.U. after   10 cycles
 SCF Done:  E(RB3LYP) =  -1534.43903056     A.U. after   10 cycles
 SCF Done:  E(RB3LYP) =  -1534.43903240     A.U. after    9 cycles
 SCF Done:  E(RB3LYP) =  -1534.43903334     A.U. after    8 cycles
 SCF Done:  E(RB3LYP) =  -1534.43903387     A.U. after    8 cycles
 SCF Done:  E(RB3LYP) =  -1534.43903467     A.U. after    8 cycles
 SCF Done:  E(RB3LYP) =  -1534.43903544     A.U. after    8 cycles
 SCF Done:  E(RB3LYP) =  -1534.43903623     A.U. after    9 cycles
 SCF Done:  E(RB3LYP) =  -1534.43903666     A.U. after    9 cycles
 SCF Done:  E(RB3LYP) =  -1534.43903672     A.U. after    7 cycles
 SCF Done:  E(RB3LYP) =  -1534.43903672     A.U. after    7 cycles
 Optimization completed.
    -- Stationary point found.

                         Standard orientation:
 ---------------------------------------------------------------------
 Center     Atomic      Atomic             Coordinates (Angstroms)
 Number     Number       Type             X           Y           Z
 ---------------------------------------------------------------------
      1          6           0       -0.803878   -2.073179    2.791318
      2          6           0       -0.633139   -0.886357    1.837443
      3          6           0       -0.759154   -1.318307    0.368399
      4          7           0       -0.595567   -0.229249   -0.607114
      5          6           0        0.719938   -0.093437   -1.275245
      6          6           0        1.885304    0.170459   -0.356122
      7          6           0        2.740054   -0.796099    0.267453
      8          6           0        2.831621   -2.260295    0.063323
      9          6           0        2.911756   -3.123269    1.170371
     10          6           0        3.038124   -4.501291    1.007462
     11          6           0        3.092651   -5.050952   -0.275550
     12          6           0        3.029485   -4.218604   -1.392585
     13          6           0        2.910498   -2.847640   -1.203381
     14          9           0        2.879115   -2.056963   -2.302698
     15          7           0        3.521786   -0.277297    1.195499
     16          8           0        3.220445    1.099903    1.191988
     17          6           0        2.264238    1.351678    0.267737
     18          7           0        1.892876    2.653292    0.146186
     19          6           0        2.319227    3.624962    1.158127
     20          6           0        1.446830    4.870687    1.040862
     21          8           0        1.521837    5.493316   -0.239932
     22          6           0        1.963868    4.638768   -1.288276
     23          6           0        1.455108    3.205167   -1.150899
     24          6           0       -1.555760    0.713571   -0.865647
     25          8           0       -1.341029    1.721174   -1.544912
     26          6           0       -2.949447    0.506004   -0.319321
     27          6           0       -3.504211    1.509359    0.490499
     28          6           0       -4.818980    1.390407    0.927000
     29          6           0       -5.609722    0.299991    0.549434
     30          6           0       -5.064555   -0.684175   -0.282280
     31          8           0       -5.738783   -1.782374   -0.733401
     32          6           0       -7.098492   -1.936297   -0.358586
     33          6           0       -3.732416   -0.579536   -0.709176
     34          1           0       -0.041389   -2.840929    2.611187
     35          1           0       -0.715672   -1.754800    3.835672
     36          1           0       -1.786780   -2.544932    2.669276
     37          1           0       -1.394478   -0.125759    2.049739
     38          1           0        0.342121   -0.413137    1.996018
     39          1           0        0.005298   -2.066837    0.137614
     40          1           0       -1.726099   -1.804130    0.218738
     41          1           0        0.593957    0.701992   -2.007513
     42          1           0        0.906475   -1.016999   -1.828208
     43          1           0        2.876659   -2.684439    2.161986
     44          1           0        3.094390   -5.144701    1.880413
     45          1           0        3.187022   -6.124617   -0.410322
     46          1           0        3.084800   -4.607172   -2.404139
     47          1           0        2.196901    3.183825    2.151703
     48          1           0        3.382017    3.887236    1.048889
     49          1           0        0.402617    4.598331    1.256869
     50          1           0        1.763570    5.613276    1.782189
     51          1           0        1.585085    5.070363   -2.219973
     52          1           0        3.064259    4.638880   -1.341661
     53          1           0        0.366451    3.159540   -1.243675
     54          1           0        1.884827    2.602909   -1.959470
     55          1           0       -2.905485    2.374113    0.757333
     56          1           0       -5.248733    2.159116    1.563776
     57          1           0       -6.634554    0.234625    0.896210
     58          1           0       -7.210102   -2.028015    0.730064
     59          1           0       -7.712616   -1.098504   -0.714273
     60          1           0       -7.436989   -2.858767   -0.833783
     61          1           0       -3.342720   -1.350857   -1.366475
 ---------------------------------------------------------------------

 The electronic state is 1-A.
 Alpha  occ. eigenvalues --  -24.71435 -19.22167 -19.18261 -19.14641 -19.10805
 Alpha  occ. eigenvalues --  -14.36649 -14.36333 -14.36096 -10.28366 -10.28333
 Alpha  occ. eigenvalues --  -10.28110 -10.25301 -10.24569 -10.23798 -10.23665
 Alpha  occ. eigenvalues --  -10.22893 -10.22688 -10.22160 -10.21936 -10.21765
 Alpha  occ. eigenvalues --  -10.21535 -10.20695 -10.20399 -10.20378 -10.20266
 Alpha  occ. eigenvalues --  -10.19940 -10.19598 -10.19316 -10.19157 -10.18790
 Alpha  occ. eigenvalues --  -10.18770 -10.18151 -10.17654  -1.22443  -1.12935
 Alpha  occ. eigenvalues --   -1.06854  -1.03386  -1.02627  -0.95486  -0.92703
 Alpha  occ. eigenvalues --   -0.88180  -0.85592  -0.85179  -0.79753  -0.78109
 Alpha  occ. eigenvalues --   -0.77845  -0.76457  -0.76072  -0.75969  -0.75424
 Alpha  occ. eigenvalues --   -0.72358  -0.69984  -0.69370  -0.68246  -0.67475
 Alpha  occ. eigenvalues --   -0.64253  -0.62753  -0.62208  -0.60373  -0.60018
 Alpha  occ. eigenvalues --   -0.59297  -0.58298  -0.55730  -0.54788  -0.54360
 Alpha  occ. eigenvalues --   -0.53019  -0.52583  -0.51822  -0.49815  -0.49742
 Alpha  occ. eigenvalues --   -0.49097  -0.48789  -0.48220  -0.47967  -0.47731
 Alpha  occ. eigenvalues --   -0.47310  -0.47160  -0.46415  -0.45767  -0.44954
 Alpha  occ. eigenvalues --   -0.44473  -0.44218  -0.43488  -0.43262  -0.42918
 Alpha  occ. eigenvalues --   -0.42390  -0.41775  -0.41413  -0.40879  -0.40631
 Alpha  occ. eigenvalues --   -0.40155  -0.39442  -0.39178  -0.38869  -0.38697
 Alpha  occ. eigenvalues --   -0.37920  -0.37770  -0.37569  -0.37314  -0.36940
 Alpha  occ. eigenvalues --   -0.36472  -0.35811  -0.35541  -0.35180  -0.34509
 Alpha  occ. eigenvalues --   -0.33531  -0.33176  -0.32157  -0.30908  -0.30681
 Alpha  occ. eigenvalues --   -0.29673  -0.28526  -0.26352  -0.25720  -0.25115
 Alpha  occ. eigenvalues --   -0.24701  -0.23999  -0.23532  -0.22232  -0.19994
 Alpha virt. eigenvalues --   -0.03047  -0.01792  -0.00734   0.00463   0.01739
 Alpha virt. eigenvalues --    0.03967   0.06440   0.07939   0.07980   0.08877
 Alpha virt. eigenvalues --    0.09771   0.10217   0.10407   0.11485   0.12118

 Mulliken charges:
               1
     1  C   -0.453343
     2  C   -0.258988
     3  C   -0.154035
     4  N   -0.403591
     5  C   -0.258888
     6  C   -0.016447
     7  C    0.217033
     8  C    0.021194
     9  C   -0.158348
    10  C   -0.136250
    11  C   -0.125613
    12  C   -0.194146
    13  C    0.330903
    14  F   -0.289938
    15  N   -0.246723
    16  O   -0.412316
    17  C    0.603150
    18  N   -0.524592
    19  C   -0.155719
    20  C   -0.024455
    21  O   -0.484140
    22  C   -0.036864
    23  C   -0.180172
    24  C    0.500132
    25  O   -0.519688
    26  C    0.070358
    27  C   -0.153831
    28  C   -0.142547
    29  C   -0.191946
    30  C    0.378417
    31  O   -0.507750
    32  C   -0.216285
    33  C   -0.215094
    34  H    0.146771
    35  H    0.148399
    36  H    0.145742
    37  H    0.144815
    38  H    0.155646
    39  H    0.154640
    40  H    0.160001
    41  H    0.193601
    42  H    0.168936
    43  H    0.163000
    44  H    0.139371
    45  H    0.142386
    46  H    0.150916
    47  H    0.172182
    48  H    0.162581
    49  H    0.142115
    50  H    0.148824
    51  H    0.159298
    52  H    0.133161
    53  H    0.220121
    54  H    0.154993
    55  H    0.139711
    56  H    0.134709
    57  H    0.133838
    58  H    0.151906
    59  H    0.154809
    60  H    0.171574
    61  H    0.146478
 Sum of Mulliken charges =  -0.00000

 Dipole moment (field-independent basis, Debye):
    X=             -3.0949    Y=             -3.0249    Z=              1.5158  Tot=              4.5854
 Quadrupole moment (field-independent basis, Debye-Ang):
   XX=           -176.7236   YY=           -180.8750   ZZ=           -189.3254
   XY=              4.8427   XZ=            -11.4686   YZ=              6.3270

 Normal termination of Gaussian 16 at Fri Nov  4 20:48:46 2022.
