 Gaussian 16, Revision B.01,
 Gaussian 16:  ES64L-G16RevB.01 20-Dec-2017

 -----------------------------
 #p b3lyp/6-31g(d) opt SCF=XQC
 -----------------------------

 ------------------------------
 Gaussian input prepared by ASE
 ------------------------------
 Symbolic Z-matrix:
 Charge =  0 Multiplicity = 1

 SCF Done:  E(RB3LYP) =  -1947.00289710     A.U. after   15 cycles
 SCF Done:  E(RB3LYP) =  -1947.01075080     A.U. after   14 cycles
 SCF Done:  E(RB3LYP) =  -1947.01044168     A.U. after   15 cycles
 SCF Done:  E(RB3LYP) =  -1947.01158679     A.U. after   13 cycles
 SCF Done:  E(RB3LYP) =  -1947.01348590     A.U. after   13 cycles
 SCF Done:  E(RB3LYP) =  -1947.01440895     A.U. after   13 cycles
 SCF Done:  E(RB3LYP) =  -1947.01552936     A.U. after   12 cycles
 SCF Done:  E(RB3LYP) =  -1947.01548388     A.U. after   13 cycles
 SCF Done:  E(RB3LYP) =  -1947.01577950     A.U. after   12 cycles
 SCF Done:  E(RB3LYP) =  -1947.01584327     A.U. after   11 cycles
 SCF Done:  E(RB3LYP) =  -1947.01586170     A.U. after   10 cycles
 SCF Done:  E(RB3LYP) =  -1947.01587517     A.U. after   10 cycles
 SCF Done:  E(RB3LYP) =  -1947.01587856     A.U. after   10 cycles
 SCF Done:  E(RB3LYP) =  -1947.01587892     A.U. after    7 cycles
 SCF Done:  E(RB3LYP) =  -1947.01587916     A.U. after    7 cycles
 SCF Done:  E(RB3LYP) =  -1947.01587934     A.U. after    7 cycles
 SCF Done:  E(RB3LYP) =  -1947.01587941     A.U. after    7 cycles
 Optimization completed.
    -- Stationary point found.

                         Standard orientation:
 ---------------------------------------------------------------------
 Center     Atomic      Atomic             Coordinates (Angstroms)
 Number     Number       Type             X           Y           Z
 ---------------------------------------------------------------------
      1          6           0        4.374598    0.108036    2.268503
      2          6           0        4.433261   -1.251587    1.561935
      3          7           0        4.067630   -1.189734    0.145531
      4          6           0        5.126267   -0.844334   -0.813143
      5          6           0        5.814381   -2.075227   -1.408253
      6          6           0        2.808410   -1.399749   -0.352281
      7          8           0        2.561979   -1.335187   -1.549611
      8          6           0        1.722410   -1.762250    0.681490
      9         16           0        0.037225   -1.707562    0.005001
     10          6           0       -0.181733    0.058036   -0.093937
     11          7           0        0.729235    0.837622    0.416494
     12          6           0        0.518577    2.187302    0.312785
     13          6           0        1.401846    3.206168    0.798095
     14          6           0        0.916150    4.457837    0.553037
     15         16           0       -0.620172    4.460046   -0.268225
     16          6           0       -0.614782    2.722097   -0.288885
     17          6           0       -1.643573    1.891132   -0.837802
     18          8           0       -2.686952    2.263916   -1.367159
     19          7           0       -1.339740    0.497899   -0.709219
     20          6           0       -2.323974   -0.429813   -1.316155
     21          6           0       -3.358815   -0.960801   -0.343135
     22          6           0       -4.221698   -0.104605    0.357635
     23          6           0       -5.182848   -0.609210    1.232093
     24          6           0       -5.308970   -1.988777    1.415313
     25          6           0       -4.474830   -2.862523    0.720297
     26          6           0       -3.523244   -2.332140   -0.143181
     27          9           0       -2.725642   -3.195494   -0.818516
     28          1           0        3.361714    0.522469    2.231002
     29          1           0        4.673147    0.008005    3.318541
     30          1           0        5.050430    0.826671    1.791863
     31          1           0        3.791330   -1.972418    2.075240
     32          1           0        5.448618   -1.661266    1.621195
     33          1           0        4.672157   -0.250247   -1.608719
     34          1           0        5.852476   -0.210987   -0.291137
     35          1           0        5.090366   -2.676683   -1.965380
     36          1           0        6.263088   -2.702238   -0.628568
     37          1           0        6.611193   -1.770680   -2.096756
     38          1           0        1.848083   -2.802202    1.006213
     39          1           0        1.759924   -1.117778    1.559244
     40          1           0        2.341682    2.996212    1.294652
     41          1           0        1.378540    5.402610    0.808231
     42          1           0       -1.778101   -1.247417   -1.787838
     43          1           0       -2.816310    0.155064   -2.095032
     44          1           0       -4.135880    0.965202    0.194969
     45          1           0       -5.838697    0.073741    1.764027
     46          1           0       -6.058563   -2.386683    2.093547
     47          1           0       -4.545948   -3.939563    0.830997
 ---------------------------------------------------------------------

 The electronic state is 1-A.
 Alpha  occ. eigenvalues --  -88.91816 -88.89938 -24.70645 -19.12267 -19.10928
 Alpha  occ. eigenvalues --  -14.40437 -14.36407 -14.33671 -10.30407 -10.30286
 Alpha  occ. eigenvalues --  -10.28840 -10.27218 -10.24107 -10.23746 -10.23548
 Alpha  occ. eigenvalues --  -10.23217 -10.23189 -10.22022 -10.21957 -10.20581
 Alpha  occ. eigenvalues --  -10.20297 -10.19929 -10.19616 -10.19417 -10.19222
 Alpha  occ. eigenvalues --  -10.19163 -10.17941  -7.97839  -7.96039  -5.94260
 Alpha  occ. eigenvalues --   -5.93896  -5.93517  -5.92575  -5.92133  -5.91526
 Alpha  occ. eigenvalues --   -1.21614  -1.04866  -1.03183  -0.99258  -0.93472
 Alpha  occ. eigenvalues --   -0.92341  -0.87892  -0.86147  -0.81579  -0.78441
 Alpha  occ. eigenvalues --   -0.77737  -0.75991  -0.75109  -0.74679  -0.73894
 Alpha  occ. eigenvalues --   -0.70568  -0.69403  -0.65133  -0.64785  -0.63365
 Alpha  occ. eigenvalues --   -0.61958  -0.60749  -0.59375  -0.57313  -0.55910
 Alpha  occ. eigenvalues --   -0.53917  -0.53627  -0.51271  -0.50549  -0.49540
 Alpha  occ. eigenvalues --   -0.49414  -0.48631  -0.47188  -0.46328  -0.46250
 Alpha  occ. eigenvalues --   -0.45735  -0.45625  -0.44424  -0.44175  -0.43871
 Alpha  occ. eigenvalues --   -0.42844  -0.42250  -0.41920  -0.41492  -0.41030
 Alpha  occ. eigenvalues --   -0.40598  -0.40031  -0.39741  -0.39649  -0.38535
 Alpha  occ. eigenvalues --   -0.37918  -0.37858  -0.37357  -0.36326  -0.36237
 Alpha  occ. eigenvalues --   -0.36054  -0.35824  -0.35542  -0.34916  -0.34482
 Alpha  occ. eigenvalues --   -0.33684  -0.29246  -0.28190  -0.26985  -0.25965
 Alpha  occ. eigenvalues --   -0.25350  -0.25215  -0.25023  -0.24286  -0.23958
 Alpha  occ. eigenvalues --   -0.21834
 Alpha virt. eigenvalues --   -0.04760  -0.01635  -0.00881   0.00366   0.02142
 Alpha virt. eigenvalues --    0.02445   0.03130   0.03990   0.06645   0.07610
 Alpha virt. eigenvalues --    0.08938   0.09018   0.09580   0.10351   0.11927

 Mulliken charges:
               1
     1  C   -0.452695
     2  C   -0.158330
     3  N   -0.403126
     4  C   -0.144381
     5  C   -0.444744
     6  C    0.625287
     7  O   -0.504577
     8  C   -0.554912
     9  S    0.215721
    10  C    0.312221
    11  N   -0.555309
    12  C    0.304998
    13  C   -0.094944
    14  C   -0.349207
    15  S    0.291085
    16  C   -0.248068
    17  C    0.633027
    18  O   -0.541213
    19  N   -0.491542
    20  C   -0.293541
    21  C    0.099229
    22  C   -0.186067
    23  C   -0.127431
    24  C   -0.129834
    25  C   -0.190633
    26  C    0.331669
    27  F   -0.295846
    28  H    0.175505
    29  H    0.148764
    30  H    0.155199
    31  H    0.155173
    32  H    0.157320
    33  H    0.185256
    34  H    0.138254
    35  H    0.177137
    36  H    0.139692
    37  H    0.147108
    38  H    0.198856
    39  H    0.218233
    40  H    0.151940
    41  H    0.180709
    42  H    0.211508
    43  H    0.217870
    44  H    0.173782
    45  H    0.136270
    46  H    0.138322
    47  H    0.146267
 Sum of Mulliken charges =  -0.00000

 Dipole moment (field-independent basis, Debye):
    X=              3.7190    Y=             -0.7430    Z=              4.6577  Tot=              6.0064
 Quadrupole moment (field-independent basis, Debye-Ang):
   XX=           -147.4453   YY=           -162.5725   ZZ=           -171.7458
   XY=              8.5697   XZ=              2.3008   YZ=             -1.2758

 Normal termination of Gaussian 16 at Fri Nov  4 20:19:47 2022.
