 Gaussian 16, Revision B.01,
 Gaussian 16:  ES64L-G16RevB.01 20-Dec-2017

 -------------------------------------------------------------------
 #p b3lyp/6-31g(d) 6D 10F nosymm GFInput td=(50-50,nstate=2) SCF=XQC
 -------------------------------------------------------------------

 ------------------------------
 Gaussian input prepared by ASE
 ------------------------------
 Symbolic Z-matrix:
 Charge =  0 Multiplicity = 1

                          Input orientation:
 ---------------------------------------------------------------------
 Center     Atomic      Atomic             Coordinates (Angstroms)
 Number     Number       Type             X           Y           Z
 ---------------------------------------------------------------------
      1          6           0       -3.700307   -0.678666    2.030220
      2          6           0       -3.867857    0.672477    1.324816
      3          7           0       -3.505382    0.639602   -0.093368
      4          6           0       -4.538605    0.213242   -1.047168
      5          6           0       -5.323153    1.387103   -1.638174
      6          6           0       -2.268711    0.946962   -0.597086
      7          8           0       -2.023804    0.902065   -1.795627
      8          6           0       -1.209172    1.392477    0.431690
      9         16           0        0.471874    1.469083   -0.252919
     10          6           0        0.826880   -0.274136   -0.354043
     11          7           0       -0.018278   -1.122288    0.160256
     12          6           0        0.296112   -2.451490    0.054668
     13          6           0       -0.502959   -3.536040    0.543559
     14          6           0        0.077335   -4.746117    0.295366
     15         16           0        1.605192   -4.628720   -0.533266
     16          6           0        1.464676   -2.896440   -0.552782
     17          6           0        2.423120   -1.987898   -1.106099
     18          8           0        3.489737   -2.278338   -1.640701
     19          7           0        2.012574   -0.622521   -0.975162
     20          6           0        2.918799    0.379028   -1.586222
     21          6           0        3.913947    0.988561   -0.617840
     22          6           0        4.844130    0.201817    0.078226
     23          6           0        5.767385    0.779348    0.948383
     24          6           0        5.786814    2.164495    1.131882
     25          6           0        4.883952    2.970968    0.441442
     26          6           0        3.972289    2.368478   -0.417797
     27          9           0        3.106755    3.167424   -1.088738
     28          1           0       -2.658476   -1.013130    1.987587
     29          1           0       -4.000642   -0.602418    3.081743
     30          1           0       -4.320554   -1.447516    1.556369
     31          1           0       -3.281401    1.440872    1.835495
     32          1           0       -4.911678    1.002003    1.389215
     33          1           0       -4.043561   -0.343549   -1.845298
     34          1           0       -5.210872   -0.474760   -0.522088
     35          1           0       -4.650766    2.043150   -2.198385
     36          1           0       -5.815447    1.977142   -0.855940
     37          1           0       -6.097214    1.021745   -2.323039
     38          1           0       -1.413700    2.419432    0.757683
     39          1           0       -1.192249    0.746803    1.309199
     40          1           0       -1.453855   -3.399881    1.044758
     41          1           0       -0.309006   -5.724032    0.552170
     42          1           0        2.308770    1.151870   -2.054752
     43          1           0        3.451319   -0.165615   -2.367830
     44          1           0        4.840912   -0.871380   -0.084714
     45          1           0        6.476884    0.149281    1.476722
     46          1           0        6.506495    2.619262    1.806764
     47          1           0        4.871700    4.050248    0.552492
 ---------------------------------------------------------------------

 SCF Done:  E(RB3LYP) =  -1947.01587597     A.U. after   15 cycles

 Excitation energies and oscillator strengths:

 Excited state symmetry could not be determined.
 Excited State   1:      Triplet-?Sym    3.0603 eV  405.13 nm  f=0.0000  <S**2>=2.000
     100 ->107        -0.12690
     102 ->107        -0.18446
     106 ->107         0.64480
 This state for optimization and/or second-order correction.
 Total Energy, E(TD-HF/TD-DFT) =  -1946.90341082
 Copying the excited state density for this state as the 1-particle RhoCI density.

 Excited state symmetry could not be determined.
 Excited State   2:      Triplet-?Sym    3.6904 eV  335.96 nm  f=0.0000  <S**2>=2.000
     101 ->107         0.29709
     102 ->107         0.54760
     102 ->109        -0.11033
     102 ->114        -0.14513
     106 ->107         0.22866

 Excited state symmetry could not be determined.
 Excited State   3:      Singlet-?Sym    4.1711 eV  297.25 nm  f=0.1282  <S**2>=0.000
     106 ->107         0.69350

 Excited state symmetry could not be determined.
 Excited State   4:      Singlet-?Sym    4.6761 eV  265.14 nm  f=0.0017  <S**2>=0.000
      99 ->107        -0.31852
     100 ->107        -0.15908
     101 ->107         0.22703
     104 ->107         0.51451
     105 ->107        -0.19253

 Alpha  occ. eigenvalues --  -88.91816 -88.89938 -24.70644 -19.12267 -19.10928
 Alpha  occ. eigenvalues --  -14.40437 -14.36407 -14.33671 -10.30407 -10.30286
 Alpha  occ. eigenvalues --  -10.28840 -10.27218 -10.24107 -10.23746 -10.23548
 Alpha  occ. eigenvalues --  -10.23217 -10.23189 -10.22022 -10.21957 -10.20581
 Alpha  occ. eigenvalues --  -10.20297 -10.19929 -10.19616 -10.19417 -10.19222
 Alpha  occ. eigenvalues --  -10.19163 -10.17941  -7.97839  -7.96040  -5.94260
 Alpha  occ. eigenvalues --   -5.93896  -5.93517  -5.92576  -5.92134  -5.91526
 Alpha  occ. eigenvalues --   -1.21613  -1.04866  -1.03183  -0.99258  -0.93472
 Alpha  occ. eigenvalues --   -0.92341  -0.87892  -0.86146  -0.81579  -0.78441
 Alpha  occ. eigenvalues --   -0.77737  -0.75991  -0.75109  -0.74679  -0.73895
 Alpha  occ. eigenvalues --   -0.70568  -0.69403  -0.65133  -0.64785  -0.63365
 Alpha  occ. eigenvalues --   -0.61958  -0.60749  -0.59375  -0.57313  -0.55910
 Alpha  occ. eigenvalues --   -0.53917  -0.53628  -0.51272  -0.50549  -0.49540
 Alpha  occ. eigenvalues --   -0.49414  -0.48631  -0.47188  -0.46328  -0.46250
 Alpha  occ. eigenvalues --   -0.45734  -0.45625  -0.44424  -0.44175  -0.43871
 Alpha  occ. eigenvalues --   -0.42844  -0.42250  -0.41920  -0.41492  -0.41030
 Alpha  occ. eigenvalues --   -0.40598  -0.40031  -0.39741  -0.39649  -0.38535
 Alpha  occ. eigenvalues --   -0.37918  -0.37858  -0.37357  -0.36326  -0.36237
 Alpha  occ. eigenvalues --   -0.36054  -0.35824  -0.35542  -0.34916  -0.34482
 Alpha  occ. eigenvalues --   -0.33684  -0.29246  -0.28190  -0.26985  -0.25966
 Alpha  occ. eigenvalues --   -0.25349  -0.25215  -0.25023  -0.24285  -0.23958
 Alpha  occ. eigenvalues --   -0.21834
 Alpha virt. eigenvalues --   -0.04760  -0.01634  -0.00881   0.00366   0.02142
 Alpha virt. eigenvalues --    0.02445   0.03130   0.03990   0.06645   0.07610
 Alpha virt. eigenvalues --    0.08938   0.09018   0.09580   0.10350   0.11927

 Mulliken charges:
               1
     1  C   -0.452702
     2  C   -0.158325
     3  N   -0.403117
     4  C   -0.144388
     5  C   -0.444745
     6  C    0.625267
     7  O   -0.504575
     8  C   -0.554890
     9  S    0.215687
    10  C    0.312232
    11  N   -0.555299
    12  C    0.305003
    13  C   -0.094947
    14  C   -0.349202
    15  S    0.291076
    16  C   -0.248061
    17  C    0.633015
    18  O   -0.541209
    19  N   -0.491545
    20  C   -0.293544
    21  C    0.099256
    22  C   -0.186065
    23  C   -0.127433
    24  C   -0.129835
    25  C   -0.190633
    26  C    0.331635
    27  F   -0.295833
    28  H    0.175507
    29  H    0.148766
    30  H    0.155201
    31  H    0.155172
    32  H    0.157320
    33  H    0.185259
    34  H    0.138256
    35  H    0.177138
    36  H    0.139693
    37  H    0.147109
    38  H    0.198856
    39  H    0.218231
    40  H    0.151940
    41  H    0.180709
    42  H    0.211514
    43  H    0.217870
    44  H    0.173780
    45  H    0.136270
    46  H    0.138321
    47  H    0.146265
 Sum of Mulliken charges =  -0.00000

 Dipole moment (field-independent basis, Debye):
    X=             -3.7431    Y=              0.4505    Z=              4.6760  Tot=              6.0066
 Quadrupole moment (field-independent basis, Debye-Ang):
   XX=           -153.6913   YY=           -161.3621   ZZ=           -174.1455
   XY=             10.7951   XZ=              1.4693   YZ=             -0.1449

 Normal termination of Gaussian 16 at Sat Nov  5 12:07:36 2022.
