 Gaussian 16, Revision B.01,
 Gaussian 16:  ES64L-G16RevB.01 20-Dec-2017

 -----------------------------
 #p b3lyp/6-31g(d) opt SCF=XQC
 -----------------------------

 ------------------------------
 Gaussian input prepared by ASE
 ------------------------------
 Symbolic Z-matrix:
 Charge =  0 Multiplicity = 1

 SCF Done:  E(RB3LYP) =  -1505.40196936     A.U. after   15 cycles
 SCF Done:  E(RB3LYP) =  -1505.41215420     A.U. after   13 cycles
 SCF Done:  E(RB3LYP) =  -1505.41353349     A.U. after   13 cycles
 SCF Done:  E(RB3LYP) =  -1505.41406746     A.U. after   12 cycles
 SCF Done:  E(RB3LYP) =  -1505.41436999     A.U. after   13 cycles
 SCF Done:  E(RB3LYP) =  -1505.41469891     A.U. after   11 cycles
 SCF Done:  E(RB3LYP) =  -1505.41477758     A.U. after   13 cycles
 SCF Done:  E(RB3LYP) =  -1505.41491613     A.U. after   11 cycles
 SCF Done:  E(RB3LYP) =  -1505.41496685     A.U. after   12 cycles
 SCF Done:  E(RB3LYP) =  -1505.41498246     A.U. after   10 cycles
 SCF Done:  E(RB3LYP) =  -1505.41504404     A.U. after    9 cycles
 SCF Done:  E(RB3LYP) =  -1505.41504764     A.U. after   10 cycles
 SCF Done:  E(RB3LYP) =  -1505.41505359     A.U. after    8 cycles
 SCF Done:  E(RB3LYP) =  -1505.41505626     A.U. after    8 cycles
 SCF Done:  E(RB3LYP) =  -1505.41505835     A.U. after   10 cycles
 SCF Done:  E(RB3LYP) =  -1505.41505904     A.U. after    8 cycles
 SCF Done:  E(RB3LYP) =  -1505.41505951     A.U. after    8 cycles
 SCF Done:  E(RB3LYP) =  -1505.41505954     A.U. after    7 cycles
 SCF Done:  E(RB3LYP) =  -1505.41505962     A.U. after    8 cycles
 SCF Done:  E(RB3LYP) =  -1505.41505960     A.U. after    7 cycles
 Optimization completed.
    -- Stationary point found.

                         Standard orientation:
 ---------------------------------------------------------------------
 Center     Atomic      Atomic             Coordinates (Angstroms)
 Number     Number       Type             X           Y           Z
 ---------------------------------------------------------------------
      1          6           0       -3.016546    2.725673   -2.554176
      2          6           0       -2.363712    2.749874   -1.162791
      3          6           0       -3.026862    3.783681   -0.237573
      4          6           0       -2.195947    1.317565   -0.582526
      5          6           0       -1.578639    1.335344    0.838337
      6          8           0       -2.320087    1.290987    1.814712
      7          7           0       -0.218780    1.471087    0.948351
      8          6           0        0.374940    1.419515    2.291457
      9          6           0        1.096807    0.073211    2.484177
     10          7           0        2.086999   -0.223696    1.443988
     11          6           0        3.362013    0.480638    1.598651
     12          6           0        4.489388   -0.157693    0.801870
     13          6           0        4.620079   -1.549606    0.746554
     14          6           0        5.682108   -2.169593    0.066032
     15          6           0        6.604272   -1.340829   -0.543070
     16          6           0        6.483255    0.044652   -0.494771
     17          6           0        5.438803    0.665621    0.160829
     18          8           0        7.506232    0.623965   -1.211280
     19          6           0        8.388589   -0.451555   -1.551313
     20          8           0        7.708042   -1.683585   -1.291292
     21          6           0        1.483847   -0.101255    0.112404
     22          6           0        0.772172    1.248770   -0.110276
     23          7           0       -3.409780    0.488025   -0.520260
     24          7           0       -4.597195    1.132938   -0.345763
     25          7           0       -5.675399    0.478953   -0.210606
     26          6           0       -5.654912   -0.913921   -0.209804
     27          6           0       -6.879413   -1.591783   -0.062846
     28          6           0       -6.894738   -2.977166   -0.053865
     29          6           0       -5.698380   -3.708730   -0.187431
     30          6           0       -4.486306   -3.050205   -0.328703
     31          6           0       -4.462495   -1.647373   -0.343738
     32          6           0       -3.215934   -0.903689   -0.478395
     33          8           0       -2.092663   -1.392506   -0.561077
     34          1           0       -2.945532    3.716597   -3.016678
     35          1           0       -4.076270    2.462254   -2.491661
     36          1           0       -2.522226    2.008601   -3.221240
     37          1           0       -1.321800    3.075317   -1.302259
     38          1           0       -2.558855    3.803462    0.751111
     39          1           0       -4.088544    3.572378   -0.101334
     40          1           0       -2.922379    4.781333   -0.680716
     41          1           0       -1.549437    0.763312   -1.262628
     42          1           0       -0.428591    1.544469    3.017309
     43          1           0        1.076886    2.258327    2.392548
     44          1           0        1.589244    0.045434    3.463184
     45          1           0        0.341367   -0.723262    2.467930
     46          1           0        3.611769    0.443082    2.667952
     47          1           0        3.315130    1.555215    1.340898
     48          1           0        3.867313   -2.158274    1.236762
     49          1           0        5.776171   -3.249299    0.018416
     50          1           0        5.355424    1.748106    0.180683
     51          1           0        9.293584   -0.393542   -0.929129
     52          1           0        8.640925   -0.392490   -2.613774
     53          1           0        0.739423   -0.898749   -0.006412
     54          1           0        2.261562   -0.248525   -0.643792
     55          1           0        1.492405    2.077649   -0.079741
     56          1           0        0.305488    1.272988   -1.094632
     57          1           0       -7.785894   -1.004551    0.042042
     58          1           0       -7.837051   -3.505878    0.059151
     59          1           0       -5.727922   -4.794488   -0.177571
     60          1           0       -3.549632   -3.588375   -0.429098
 ---------------------------------------------------------------------

 The electronic state is 1-A.
 Alpha  occ. eigenvalues --  -19.19218 -19.19176 -19.13148 -19.10938 -14.42384
 Alpha  occ. eigenvalues --  -14.41931 -14.37486 -14.36503 -14.32948 -10.30649
 Alpha  occ. eigenvalues --  -10.30425 -10.28502 -10.24771 -10.24656 -10.24080
 Alpha  occ. eigenvalues --  -10.23997 -10.22835 -10.21817 -10.21762 -10.21452
 Alpha  occ. eigenvalues --  -10.21424 -10.21237 -10.21180 -10.21095 -10.20992
 Alpha  occ. eigenvalues --  -10.20940 -10.20474 -10.19572 -10.19462 -10.19451
 Alpha  occ. eigenvalues --  -10.18502 -10.17615 -10.16312  -1.12483  -1.09010
 Alpha  occ. eigenvalues --   -1.03809  -1.03352  -1.03102  -0.95105  -0.93493
 Alpha  occ. eigenvalues --   -0.91009  -0.87748  -0.85819  -0.81159  -0.79532
 Alpha  occ. eigenvalues --   -0.77638  -0.77625  -0.77046  -0.75289  -0.73646
 Alpha  occ. eigenvalues --   -0.71832  -0.69385  -0.68707  -0.67985  -0.66282
 Alpha  occ. eigenvalues --   -0.66117  -0.64689  -0.62200  -0.62097  -0.61388
 Alpha  occ. eigenvalues --   -0.58884  -0.58622  -0.57257  -0.54876  -0.53313
 Alpha  occ. eigenvalues --   -0.52135  -0.52033  -0.51710  -0.51089  -0.50092
 Alpha  occ. eigenvalues --   -0.49188  -0.48421  -0.47747  -0.47265  -0.46658
 Alpha  occ. eigenvalues --   -0.46588  -0.45685  -0.45109  -0.45046  -0.44814
 Alpha  occ. eigenvalues --   -0.44437  -0.44179  -0.43415  -0.42601  -0.42302
 Alpha  occ. eigenvalues --   -0.41220  -0.40588  -0.39970  -0.39629  -0.39350
 Alpha  occ. eigenvalues --   -0.39259  -0.38998  -0.38438  -0.38166  -0.37821
 Alpha  occ. eigenvalues --   -0.37651  -0.37336  -0.37088  -0.36726  -0.36199
 Alpha  occ. eigenvalues --   -0.35781  -0.35610  -0.35243  -0.34767  -0.34158
 Alpha  occ. eigenvalues --   -0.33964  -0.33420  -0.32586  -0.30675  -0.29845
 Alpha  occ. eigenvalues --   -0.27866  -0.27148  -0.25759  -0.25227  -0.24712
 Alpha  occ. eigenvalues --   -0.24520  -0.24100  -0.20618  -0.20155
 Alpha virt. eigenvalues --   -0.06456  -0.05043   0.00055   0.00779   0.01424
 Alpha virt. eigenvalues --    0.02323   0.06032   0.07125   0.08607   0.09089
 Alpha virt. eigenvalues --    0.10077   0.10622   0.11015   0.11152   0.11893

 Mulliken charges:
               1
     1  C   -0.453056
     2  C   -0.084870
     3  C   -0.453384
     4  C   -0.064152
     5  C    0.630531
     6  O   -0.530944
     7  N   -0.432491
     8  C   -0.167157
     9  C   -0.149294
    10  N   -0.378043
    11  C   -0.202536
    12  C    0.130743
    13  C   -0.182810
    14  C   -0.183194
    15  C    0.329680
    16  C    0.335549
    17  C   -0.248971
    18  O   -0.533962
    19  C    0.191770
    20  O   -0.530793
    21  C   -0.158170
    22  C   -0.168448
    23  N   -0.357906
    24  N    0.008750
    25  N   -0.376803
    26  C    0.266626
    27  C   -0.137248
    28  C   -0.129036
    29  C   -0.130667
    30  C   -0.173404
    31  C    0.057033
    32  C    0.635871
    33  O   -0.536153
    34  H    0.147330
    35  H    0.172054
    36  H    0.136956
    37  H    0.133851
    38  H    0.159342
    39  H    0.186103
    40  H    0.131561
    41  H    0.174748
    42  H    0.195019
    43  H    0.144163
    44  H    0.141914
    45  H    0.165697
    46  H    0.154707
    47  H    0.119329
    48  H    0.145963
    49  H    0.144710
    50  H    0.135563
    51  H    0.152341
    52  H    0.164539
    53  H    0.179647
    54  H    0.155079
    55  H    0.152077
    56  H    0.161692
    57  H    0.159342
    58  H    0.146847
    59  H    0.146468
    60  H    0.169899
 Sum of Mulliken charges =  -0.00000

 Dipole moment (field-independent basis, Debye):
    X=              1.7972    Y=             -1.0288    Z=             -1.5053  Tot=              2.5601
 Quadrupole moment (field-independent basis, Debye-Ang):
   XX=           -173.1367   YY=           -182.2197   ZZ=           -190.5472
   XY=             22.7884   XZ=              4.0244   YZ=             -3.3215

 Normal termination of Gaussian 16 at Fri Nov  4 21:02:53 2022.
