 Gaussian 16, Revision B.01,
 Gaussian 16:  ES64L-G16RevB.01 20-Dec-2017

 -------------------------------------------------------------------
 #p b3lyp/6-31g(d) 6D 10F nosymm GFInput td=(50-50,nstate=2) SCF=XQC
 -------------------------------------------------------------------

 ------------------------------
 Gaussian input prepared by ASE
 ------------------------------
 Symbolic Z-matrix:
 Charge =  0 Multiplicity = 1

                          Input orientation:
 ---------------------------------------------------------------------
 Center     Atomic      Atomic             Coordinates (Angstroms)
 Number     Number       Type             X           Y           Z
 ---------------------------------------------------------------------
      1          6           0        3.099452    3.436340   -0.722261
      2          6           0        2.371650    2.347749   -1.527246
      3          6           0        2.971593    2.178235   -2.932909
      4          6           0        2.188980    1.045946   -0.697606
      5          6           0        1.495118   -0.071614   -1.516051
      6          8           0        2.182805   -0.916301   -2.080507
      7          7           0        0.129822   -0.030417   -1.634439
      8          6           0       -0.535463   -1.126443   -2.352227
      9          6           0       -1.251277   -2.043228   -1.343326
     10          7           0       -2.179943   -1.337195   -0.454661
     11          6           0       -3.469467   -1.002681   -1.063671
     12          6           0       -4.544436   -0.688460   -0.034591
     13          6           0       -4.655972   -1.453119    1.131779
     14          6           0       -5.672231   -1.224795    2.075434
     15          6           0       -6.569322   -0.211948    1.796852
     16          6           0       -6.466991    0.554995    0.640192
     17          6           0       -5.466936    0.348094   -0.288989
     18          8           0       -7.456037    1.512684    0.630732
     19          6           0       -8.306210    1.191927    1.737639
     20          8           0       -7.626750    0.234983    2.556934
     21          6           0       -1.506679   -0.209394    0.198546
     22          6           0       -0.799453    0.734220   -0.795465
     23          7           0        3.407050    0.464729   -0.111179
     24          7           0        4.575747    0.656235   -0.784817
     25          7           0        5.652420    0.123756   -0.377721
     26          6           0        5.647877   -0.691053    0.752140
     27          6           0        6.870253   -1.252537    1.165695
     28          6           0        6.900934   -2.070931    2.283233
     29          6           0        5.722073   -2.345958    3.003612
     30          6           0        4.512017   -1.800858    2.601907
     31          6           0        4.472993   -0.967035    1.474102
     32          6           0        3.227167   -0.376179    1.000898
     33          8           0        2.115732   -0.553141    1.491725
     34          1           0        3.042360    4.393439   -1.252907
     35          1           0        4.157153    3.191910   -0.588713
     36          1           0        2.650403    3.575709    0.268925
     37          1           0        1.335209    2.690142   -1.666902
     38          1           0        2.450292    1.406375   -3.506838
     39          1           0        4.026641    1.904497   -2.884737
     40          1           0        2.879954    3.124840   -3.478934
     41          1           0        1.586821    1.296834    0.175417
     42          1           0        0.225903   -1.671441   -2.910292
     43          1           0       -1.251432   -0.691300   -3.062575
     44          1           0       -1.795899   -2.834159   -1.872037
     45          1           0       -0.486998   -2.524335   -0.719036
     46          1           0       -3.776585   -1.881567   -1.647137
     47          1           0       -3.420943   -0.166924   -1.786518
     48          1           0       -3.924069   -2.234537    1.308251
     49          1           0       -5.751190   -1.814401    2.982633
     50          1           0       -5.397166    0.962217   -1.181796
     51          1           0       -9.244321    0.755701    1.364611
     52          1           0       -8.501027    2.096651    2.320312
     53          1           0       -0.747807   -0.607593    0.883990
     54          1           0       -2.240361    0.346164    0.791359
     55          1           0       -1.529729    1.221394   -1.455820
     56          1           0       -0.280213    1.528367   -0.259687
     57          1           0        7.762898   -1.027871    0.591013
     58          1           0        7.841697   -2.507093    2.607257
     59          1           0        5.763470   -2.990295    3.877086
     60          1           0        3.588419   -1.999331    3.135423
 ---------------------------------------------------------------------

 SCF Done:  E(RB3LYP) =  -1505.41506234     A.U. after   15 cycles

 Excitation energies and oscillator strengths:

 Excited state symmetry could not be determined.
 Excited State   1:      Triplet-?Sym    2.9362 eV  422.26 nm  f=0.0000  <S**2>=2.000
     111 ->120        -0.13785
     112 ->121        -0.13087
     114 ->120        -0.19202
     115 ->120         0.45542
     117 ->120         0.42846
 This state for optimization and/or second-order correction.
 Total Energy, E(TD-HF/TD-DFT) =  -1505.30715798
 Copying the excited state density for this state as the 1-particle RhoCI density.

 Excited state symmetry could not be determined.
 Excited State   2:      Triplet-?Sym    2.9595 eV  418.93 nm  f=0.0000  <S**2>=2.000
     111 ->120        -0.12367
     112 ->121         0.10657
     114 ->120         0.35812
     115 ->120         0.44594
     115 ->124         0.11279
     117 ->120        -0.32924

 Excited state symmetry could not be determined.
 Excited State   3:      Singlet-?Sym    3.3184 eV  373.62 nm  f=0.0004  <S**2>=0.000
     118 ->120         0.30796
     119 ->120         0.63459

 Excited state symmetry could not be determined.
 Excited State   4:      Singlet-?Sym    3.5574 eV  348.53 nm  f=0.0001  <S**2>=0.000
     118 ->120         0.63466
     119 ->120        -0.31020

 Alpha  occ. eigenvalues --  -19.19218 -19.19176 -19.13148 -19.10938 -14.42384
 Alpha  occ. eigenvalues --  -14.41931 -14.37486 -14.36503 -14.32948 -10.30649
 Alpha  occ. eigenvalues --  -10.30425 -10.28502 -10.24771 -10.24656 -10.24080
 Alpha  occ. eigenvalues --  -10.23997 -10.22835 -10.21818 -10.21762 -10.21452
 Alpha  occ. eigenvalues --  -10.21424 -10.21237 -10.21180 -10.21095 -10.20992
 Alpha  occ. eigenvalues --  -10.20940 -10.20474 -10.19572 -10.19462 -10.19451
 Alpha  occ. eigenvalues --  -10.18502 -10.17615 -10.16312  -1.12483  -1.09010
 Alpha  occ. eigenvalues --   -1.03809  -1.03352  -1.03102  -0.95105  -0.93493
 Alpha  occ. eigenvalues --   -0.91009  -0.87748  -0.85819  -0.81159  -0.79532
 Alpha  occ. eigenvalues --   -0.77638  -0.77625  -0.77046  -0.75289  -0.73646
 Alpha  occ. eigenvalues --   -0.71832  -0.69385  -0.68707  -0.67985  -0.66282
 Alpha  occ. eigenvalues --   -0.66117  -0.64689  -0.62200  -0.62097  -0.61388
 Alpha  occ. eigenvalues --   -0.58884  -0.58622  -0.57257  -0.54876  -0.53313
 Alpha  occ. eigenvalues --   -0.52135  -0.52033  -0.51710  -0.51089  -0.50092
 Alpha  occ. eigenvalues --   -0.49188  -0.48421  -0.47747  -0.47265  -0.46658
 Alpha  occ. eigenvalues --   -0.46588  -0.45685  -0.45109  -0.45046  -0.44814
 Alpha  occ. eigenvalues --   -0.44437  -0.44179  -0.43415  -0.42601  -0.42302
 Alpha  occ. eigenvalues --   -0.41220  -0.40588  -0.39970  -0.39629  -0.39350
 Alpha  occ. eigenvalues --   -0.39259  -0.38998  -0.38438  -0.38166  -0.37821
 Alpha  occ. eigenvalues --   -0.37651  -0.37336  -0.37088  -0.36726  -0.36199
 Alpha  occ. eigenvalues --   -0.35781  -0.35610  -0.35243  -0.34767  -0.34158
 Alpha  occ. eigenvalues --   -0.33964  -0.33420  -0.32586  -0.30675  -0.29845
 Alpha  occ. eigenvalues --   -0.27866  -0.27148  -0.25759  -0.25227  -0.24712
 Alpha  occ. eigenvalues --   -0.24520  -0.24100  -0.20618  -0.20155
 Alpha virt. eigenvalues --   -0.06456  -0.05043   0.00055   0.00779   0.01424
 Alpha virt. eigenvalues --    0.02323   0.06032   0.07125   0.08607   0.09089
 Alpha virt. eigenvalues --    0.10077   0.10622   0.11015   0.11152   0.11893

 Mulliken charges:
               1
     1  C   -0.453050
     2  C   -0.084861
     3  C   -0.453396
     4  C   -0.064146
     5  C    0.630558
     6  O   -0.530952
     7  N   -0.432490
     8  C   -0.167150
     9  C   -0.149320
    10  N   -0.378016
    11  C   -0.202564
    12  C    0.130769
    13  C   -0.182818
    14  C   -0.183204
    15  C    0.329682
    16  C    0.335568
    17  C   -0.248984
    18  O   -0.533964
    19  C    0.191771
    20  O   -0.530793
    21  C   -0.158179
    22  C   -0.168459
    23  N   -0.357923
    24  N    0.008747
    25  N   -0.376806
    26  C    0.266619
    27  C   -0.137248
    28  C   -0.129031
    29  C   -0.130665
    30  C   -0.173413
    31  C    0.057035
    32  C    0.635884
    33  O   -0.536149
    34  H    0.147329
    35  H    0.172053
    36  H    0.136954
    37  H    0.133850
    38  H    0.159341
    39  H    0.186106
    40  H    0.131563
    41  H    0.174745
    42  H    0.195021
    43  H    0.144162
    44  H    0.141915
    45  H    0.165700
    46  H    0.154709
    47  H    0.119332
    48  H    0.145963
    49  H    0.144710
    50  H    0.135562
    51  H    0.152340
    52  H    0.164538
    53  H    0.179648
    54  H    0.155078
    55  H    0.152079
    56  H    0.161695
    57  H    0.159341
    58  H    0.146846
    59  H    0.146468
    60  H    0.169898
 Sum of Mulliken charges =  -0.00000

 Dipole moment (field-independent basis, Debye):
    X=             -1.7007    Y=              0.6849    Z=              1.7869  Tot=              2.5601
 Quadrupole moment (field-independent basis, Debye-Ang):
   XX=           -172.1665   YY=           -183.9266   ZZ=           -189.4664
   XY=            -10.5254   XZ=             19.7286   YZ=             -5.4591

 Normal termination of Gaussian 16 at Sat Nov  5 12:09:05 2022.
