 Gaussian 16, Revision B.01,
 Gaussian 16:  ES64L-G16RevB.01 20-Dec-2017

 -----------------------------
 #p b3lyp/6-31g(d) opt SCF=XQC
 -----------------------------

 ------------------------------
 Gaussian input prepared by ASE
 ------------------------------
 Symbolic Z-matrix:
 Charge =  0 Multiplicity = 1

 SCF Done:  E(RB3LYP) =  -1801.69640413     A.U. after   15 cycles
 SCF Done:  E(RB3LYP) =  -1801.69789781     A.U. after   15 cycles
 SCF Done:  E(RB3LYP) =  -1801.70145383     A.U. after   11 cycles
 SCF Done:  E(RB3LYP) =  -1801.68810931     A.U. after   14 cycles
 SCF Done:  E(RB3LYP) =  -1801.70463863     A.U. after   13 cycles
 SCF Done:  E(RB3LYP) =  -1801.70554056     A.U. after   12 cycles
 SCF Done:  E(RB3LYP) =  -1801.70578127     A.U. after   12 cycles
 SCF Done:  E(RB3LYP) =  -1801.70601841     A.U. after   11 cycles
 SCF Done:  E(RB3LYP) =  -1801.70612138     A.U. after   12 cycles
 SCF Done:  E(RB3LYP) =  -1801.70615873     A.U. after   11 cycles
 SCF Done:  E(RB3LYP) =  -1801.70631902     A.U. after   11 cycles
 SCF Done:  E(RB3LYP) =  -1801.70633639     A.U. after   11 cycles
 SCF Done:  E(RB3LYP) =  -1801.70634133     A.U. after   10 cycles
 SCF Done:  E(RB3LYP) =  -1801.70634261     A.U. after   11 cycles
 SCF Done:  E(RB3LYP) =  -1801.70634442     A.U. after    9 cycles
 SCF Done:  E(RB3LYP) =  -1801.70634487     A.U. after    9 cycles
 SCF Done:  E(RB3LYP) =  -1801.70634494     A.U. after    9 cycles
 SCF Done:  E(RB3LYP) =  -1801.70634498     A.U. after    6 cycles
 SCF Done:  E(RB3LYP) =  -1801.70634501     A.U. after    6 cycles
 SCF Done:  E(RB3LYP) =  -1801.70634501     A.U. after    5 cycles
 Optimization completed.
    -- Stationary point found.

                         Standard orientation:
 ---------------------------------------------------------------------
 Center     Atomic      Atomic             Coordinates (Angstroms)
 Number     Number       Type             X           Y           Z
 ---------------------------------------------------------------------
      1          6           0       -0.938632    6.462550    0.709201
      2          6           0        0.058310    5.661257   -0.129737
      3          7           0       -0.165178    4.217002   -0.061340
      4          6           0        0.393734    3.520947   -1.227095
      5          6           0        0.370828    2.010397   -1.007330
      6          6           0        1.340395    1.591607    0.136781
      7          6           0        1.509520    2.772359    1.132042
      8          6           0        0.222088    3.600558    1.224010
      9          7           0        0.814064    0.407013    0.835982
     10          6           0        1.708878   -0.509502    0.705916
     11         16           0        1.652966   -2.098202    1.464668
     12          6           0        0.217820   -1.915248    2.603958
     13          6           0       -1.144533   -2.250352    1.983142
     14          8           0       -1.655050   -3.348235    2.163028
     15          7           0       -1.689309   -1.217601    1.271635
     16          6           0       -2.928296   -1.178412    0.596691
     17          6           0       -3.321678    0.045848    0.037283
     18          6           0       -4.527666    0.154619   -0.649792
     19          6           0       -5.384929   -0.941854   -0.799741
     20          6           0       -6.702522   -0.808524   -1.550923
     21          6           0       -7.914422   -1.074750   -0.637775
     22          6           0       -6.745967   -1.708098   -2.800778
     23          6           0       -4.979267   -2.156011   -0.227882
     24          6           0       -3.775591   -2.289496    0.460996
     25          6           0        2.868313    0.002711   -0.111744
     26          6           0        4.098808   -0.707960   -0.504460
     27          6           0        4.133135   -2.095938   -0.713679
     28          6           0        5.308887   -2.728929   -1.112786
     29          6           0        6.451041   -1.960142   -1.299513
     30          9           0        7.592148   -2.566298   -1.678095
     31          6           0        6.451982   -0.580691   -1.109734
     32          6           0        5.271727    0.039027   -0.716795
     33          7           0        2.642922    1.234127   -0.416826
     34          1           0       -0.857274    6.233304    1.777648
     35          1           0       -1.963860    6.240440    0.395536
     36          1           0       -0.759787    7.537401    0.589325
     37          1           0        1.095226    5.935340    0.152545
     38          1           0       -0.056683    5.954145   -1.180569
     39          1           0        1.429775    3.836190   -1.456823
     40          1           0       -0.213222    3.775524   -2.105074
     41          1           0       -0.644055    1.706592   -0.734215
     42          1           0        0.643039    1.478524   -1.923291
     43          1           0        2.332012    3.398710    0.772431
     44          1           0        1.796661    2.381823    2.113949
     45          1           0       -0.591498    2.959601    1.592271
     46          1           0        0.355557    4.387802    1.972920
     47          1           0        0.254598   -0.902917    3.015722
     48          1           0        0.397764   -2.644582    3.395339
     49          1           0       -1.089276   -0.398290    1.168044
     50          1           0       -2.685942    0.920952    0.152689
     51          1           0       -4.807846    1.116282   -1.074423
     52          1           0       -6.773136    0.233106   -1.894057
     53          1           0       -8.852949   -0.917104   -1.182929
     54          1           0       -7.908199   -0.409397    0.232439
     55          1           0       -7.914006   -2.106999   -0.267858
     56          1           0       -6.692597   -2.769073   -2.528961
     57          1           0       -7.678361   -1.553978   -3.357309
     58          1           0       -5.907294   -1.493971   -3.472241
     59          1           0       -5.616611   -3.032538   -0.318426
     60          1           0       -3.485734   -3.235758    0.895815
     61          1           0        3.234546   -2.692373   -0.594920
     62          1           0        5.346771   -3.799341   -1.284045
     63          1           0        7.365956   -0.018097   -1.268586
     64          1           0        5.240786    1.112848   -0.566692
 ---------------------------------------------------------------------

 The electronic state is 1-A.
 Alpha  occ. eigenvalues --  -88.91398 -24.71629 -19.11858 -14.36669 -14.34820
 Alpha  occ. eigenvalues --  -14.34391 -14.32300 -10.29500 -10.28737 -10.27800
 Alpha  occ. eigenvalues --  -10.26067 -10.25861 -10.23598 -10.22742 -10.21963
 Alpha  occ. eigenvalues --  -10.21681 -10.21469 -10.21326 -10.21318 -10.21084
 Alpha  occ. eigenvalues --  -10.20985 -10.20959 -10.19887 -10.19823 -10.18980
 Alpha  occ. eigenvalues --  -10.18541 -10.18318 -10.18265 -10.17993 -10.17665
 Alpha  occ. eigenvalues --  -10.17575 -10.17088 -10.17066  -7.97475  -5.93986
 Alpha  occ. eigenvalues --   -5.93559  -5.93006  -1.22857  -1.03657  -1.00972
 Alpha  occ. eigenvalues --   -0.93548  -0.92426  -0.89417  -0.87449  -0.84644
 Alpha  occ. eigenvalues --   -0.82835  -0.80162  -0.78925  -0.77359  -0.77037
 Alpha  occ. eigenvalues --   -0.76228  -0.74254  -0.73823  -0.73052  -0.70395
 Alpha  occ. eigenvalues --   -0.67756  -0.66961  -0.65120  -0.64181  -0.63460
 Alpha  occ. eigenvalues --   -0.62721  -0.61579  -0.60333  -0.58573  -0.57181
 Alpha  occ. eigenvalues --   -0.56354  -0.55777  -0.55197  -0.54660  -0.53245
 Alpha  occ. eigenvalues --   -0.51583  -0.50232  -0.49600  -0.49339  -0.48645
 Alpha  occ. eigenvalues --   -0.47400  -0.47014  -0.46934  -0.46752  -0.45766
 Alpha  occ. eigenvalues --   -0.44961  -0.44690  -0.44312  -0.43738  -0.43088
 Alpha  occ. eigenvalues --   -0.42207  -0.42016  -0.41939  -0.41664  -0.41357
 Alpha  occ. eigenvalues --   -0.41077  -0.40687  -0.40549  -0.40472  -0.39984
 Alpha  occ. eigenvalues --   -0.39134  -0.39023  -0.38246  -0.38069  -0.38006
 Alpha  occ. eigenvalues --   -0.37301  -0.36666  -0.36128  -0.35786  -0.35591
 Alpha  occ. eigenvalues --   -0.34699  -0.34486  -0.34027  -0.33740  -0.33386
 Alpha  occ. eigenvalues --   -0.32816  -0.32335  -0.31896  -0.31719  -0.31007
 Alpha  occ. eigenvalues --   -0.29255  -0.28540  -0.27341  -0.26515  -0.24961
 Alpha  occ. eigenvalues --   -0.24382  -0.24242  -0.20843  -0.20752
 Alpha virt. eigenvalues --   -0.07274  -0.02729  -0.01891  -0.01481   0.00524
 Alpha virt. eigenvalues --    0.02212   0.04425   0.05723   0.06343   0.07722
 Alpha virt. eigenvalues --    0.08200   0.08796   0.09455   0.11186   0.11392

 Mulliken charges:
               1
     1  C   -0.442121
     2  C   -0.117175
     3  N   -0.387700
     4  C   -0.127536
     5  C   -0.297568
     6  C    0.272629
     7  C   -0.275625
     8  C   -0.146771
     9  N   -0.471451
    10  C    0.087902
    11  S    0.196377
    12  C   -0.543142
    13  C    0.602207
    14  O   -0.492015
    15  N   -0.731131
    16  C    0.348187
    17  C   -0.204285
    18  C   -0.207171
    19  C    0.196178
    20  C   -0.160402
    21  C   -0.437666
    22  C   -0.437790
    23  C   -0.205303
    24  C   -0.160841
    25  C    0.210899
    26  C    0.105451
    27  C   -0.179972
    28  C   -0.207625
    29  C    0.390878
    30  F   -0.289804
    31  C   -0.201276
    32  C   -0.152937
    33  N   -0.448093
    34  H    0.145623
    35  H    0.155450
    36  H    0.141664
    37  H    0.111642
    38  H    0.139073
    39  H    0.128804
    40  H    0.145128
    41  H    0.172374
    42  H    0.160790
    43  H    0.166339
    44  H    0.148528
    45  H    0.147374
    46  H    0.143862
    47  H    0.207277
    48  H    0.215887
    49  H    0.378736
    50  H    0.139405
    51  H    0.122888
    52  H    0.125734
    53  H    0.139091
    54  H    0.148644
    55  H    0.144296
    56  H    0.144188
    57  H    0.139221
    58  H    0.147903
    59  H    0.126498
    60  H    0.181115
    61  H    0.169826
    62  H    0.157697
    63  H    0.155295
    64  H    0.164339
 Sum of Mulliken charges =  -0.00000

 Dipole moment (field-independent basis, Debye):
    X=              1.6921    Y=              3.5474    Z=             -0.3458  Tot=              3.9455
 Quadrupole moment (field-independent basis, Debye-Ang):
   XX=           -201.4914   YY=           -201.4895   ZZ=           -200.3338
   XY=             -0.9340   XZ=              8.6887   YZ=              5.4506

 Normal termination of Gaussian 16 at Fri Nov  4 20:43:24 2022.
