 Gaussian 16, Revision B.01,
 Gaussian 16:  ES64L-G16RevB.01 20-Dec-2017

 -------------------------------------------------------------------
 #p b3lyp/6-31g(d) 6D 10F nosymm GFInput td=(50-50,nstate=2) SCF=XQC
 -------------------------------------------------------------------

 ------------------------------
 Gaussian input prepared by ASE
 ------------------------------
 Symbolic Z-matrix:
 Charge =  0 Multiplicity = 1

                          Input orientation:
 ---------------------------------------------------------------------
 Center     Atomic      Atomic             Coordinates (Angstroms)
 Number     Number       Type             X           Y           Z
 ---------------------------------------------------------------------
      1          6           0       -3.567920   -4.072314   -2.578839
      2          6           0       -3.648760   -2.546684   -2.654334
      3          7           0       -2.630083   -1.877747   -1.844816
      4          6           0       -2.360595   -0.515169   -2.320859
      5          6           0       -1.491917    0.238113   -1.316593
      6          6           0       -2.257229    0.487904    0.016198
      7          6           0       -3.332243   -0.616288    0.212234
      8          6           0       -2.866005   -1.948148   -0.388283
      9          7           0       -1.314056    0.487605    1.147390
     10          6           0       -1.418216    1.646935    1.697584
     11         16           0       -0.607053    2.143926    3.180086
     12          6           0        0.106571    0.550288    3.765028
     13          6           0        1.497508    0.223483    3.206276
     14          8           0        2.501486    0.453520    3.867673
     15          7           0        1.466793   -0.346780    1.963917
     16          6           0        2.552457   -0.787266    1.176847
     17          6           0        2.254880   -1.454712   -0.020009
     18          6           0        3.276597   -1.908996   -0.849485
     19          6           0        4.623996   -1.723061   -0.518454
     20          6           0        5.731718   -2.227577   -1.433067
     21          6           0        6.597864   -3.302044   -0.748428
     22          6           0        6.603581   -1.076573   -1.970004
     23          6           0        4.903150   -1.060386    0.685164
     24          6           0        3.897557   -0.594045    1.529270
     25          6           0       -2.414417    2.495264    0.947156
     26          6           0       -2.835209    3.880126    1.227316
     27          6           0       -1.980550    4.821374    1.823171
     28          6           0       -2.404453    6.130180    2.046080
     29          6           0       -3.692593    6.488481    1.668278
     30          9           0       -4.111009    7.749366    1.887302
     31          6           0       -4.564433    5.584282    1.067261
     32          6           0       -4.127663    4.283650    0.845809
     33          7           0       -2.905779    1.795251   -0.016589
     34          1           0       -3.749638   -4.445729   -1.564791
     35          1           0       -2.576066   -4.415972   -2.890181
     36          1           0       -4.319040   -4.526360   -3.235588
     37          1           0       -4.673110   -2.209732   -2.395162
     38          1           0       -3.483654   -2.240542   -3.694656
     39          1           0       -3.285881    0.064537   -2.503395
     40          1           0       -1.838095   -0.582648   -3.283404
     41          1           0       -0.600071   -0.357779   -1.101184
     42          1           0       -1.161581    1.196192   -1.727611
     43          1           0       -4.249289   -0.283190   -0.283953
     44          1           0       -3.553921   -0.722422    1.279335
     45          1           0       -1.949103   -2.271696    0.124525
     46          1           0       -3.619082   -2.716036   -0.184182
     47          1           0       -0.626298   -0.233121    3.553159
     48          1           0        0.215353    0.674894    4.843561
     49          1           0        0.542778   -0.398316    1.533126
     50          1           0        1.217568   -1.630991   -0.296042
     51          1           0        3.017266   -2.423085   -1.772560
     52          1           0        5.244780   -2.700684   -2.297234
     53          1           0        7.351815   -3.692754   -1.442533
     54          1           0        5.985837   -4.141157   -0.400120
     55          1           0        7.126403   -2.892028    0.120428
     56          1           0        7.132411   -0.565648   -1.156558
     57          1           0        7.357688   -1.455472   -2.670430
     58          1           0        5.995793   -0.329823   -2.492540
     59          1           0        5.936569   -0.897257    0.982046
     60          1           0        4.137826   -0.088257    2.453903
     61          1           0       -0.965375    4.549268    2.092762
     62          1           0       -1.751678    6.868338    2.499460
     63          1           0       -5.561481    5.906649    0.786068
     64          1           0       -4.782702    3.558863    0.374442
 ---------------------------------------------------------------------

 SCF Done:  E(RB3LYP) =  -1801.70635030     A.U. after   15 cycles

 Excitation energies and oscillator strengths:

 Excited state symmetry could not be determined.
 Excited State   1:      Triplet-?Sym    2.9403 eV  421.68 nm  f=0.0000  <S**2>=2.000
     114 ->125         0.17652
     115 ->125         0.10385
     119 ->125         0.14964
     120 ->125         0.50323
     120 ->127         0.13549
     121 ->125         0.14109
     122 ->125         0.11940
     124 ->125        -0.30851
 This state for optimization and/or second-order correction.
 Total Energy, E(TD-HF/TD-DFT) =  -1801.59829781
 Copying the excited state density for this state as the 1-particle RhoCI density.

 Excited state symmetry could not be determined.
 Excited State   2:      Singlet-?Sym    3.0449 eV  407.19 nm  f=0.0019  <S**2>=0.000
     124 ->125         0.70386

 Excited state symmetry could not be determined.
 Excited State   3:      Triplet-?Sym    3.0454 eV  407.13 nm  f=0.0000  <S**2>=2.000
     120 ->125         0.25436
     124 ->125         0.63169

 Excited state symmetry could not be determined.
 Excited State   4:      Singlet-?Sym    3.2096 eV  386.29 nm  f=0.0009  <S**2>=0.000
     123 ->125         0.70320

 Alpha  occ. eigenvalues --  -88.91398 -24.71629 -19.11858 -14.36669 -14.34820
 Alpha  occ. eigenvalues --  -14.34391 -14.32300 -10.29500 -10.28737 -10.27800
 Alpha  occ. eigenvalues --  -10.26067 -10.25861 -10.23598 -10.22742 -10.21963
 Alpha  occ. eigenvalues --  -10.21681 -10.21469 -10.21326 -10.21318 -10.21083
 Alpha  occ. eigenvalues --  -10.20985 -10.20959 -10.19887 -10.19822 -10.18980
 Alpha  occ. eigenvalues --  -10.18541 -10.18318 -10.18265 -10.17993 -10.17665
 Alpha  occ. eigenvalues --  -10.17575 -10.17088 -10.17066  -7.97475  -5.93986
 Alpha  occ. eigenvalues --   -5.93559  -5.93006  -1.22857  -1.03657  -1.00972
 Alpha  occ. eigenvalues --   -0.93548  -0.92426  -0.89417  -0.87449  -0.84644
 Alpha  occ. eigenvalues --   -0.82835  -0.80162  -0.78925  -0.77359  -0.77037
 Alpha  occ. eigenvalues --   -0.76228  -0.74254  -0.73823  -0.73052  -0.70395
 Alpha  occ. eigenvalues --   -0.67756  -0.66961  -0.65120  -0.64181  -0.63460
 Alpha  occ. eigenvalues --   -0.62721  -0.61579  -0.60333  -0.58573  -0.57181
 Alpha  occ. eigenvalues --   -0.56354  -0.55777  -0.55197  -0.54660  -0.53245
 Alpha  occ. eigenvalues --   -0.51583  -0.50232  -0.49600  -0.49339  -0.48645
 Alpha  occ. eigenvalues --   -0.47400  -0.47014  -0.46934  -0.46752  -0.45766
 Alpha  occ. eigenvalues --   -0.44962  -0.44690  -0.44312  -0.43738  -0.43088
 Alpha  occ. eigenvalues --   -0.42207  -0.42016  -0.41939  -0.41664  -0.41357
 Alpha  occ. eigenvalues --   -0.41077  -0.40687  -0.40549  -0.40472  -0.39984
 Alpha  occ. eigenvalues --   -0.39134  -0.39023  -0.38246  -0.38069  -0.38006
 Alpha  occ. eigenvalues --   -0.37301  -0.36666  -0.36128  -0.35786  -0.35591
 Alpha  occ. eigenvalues --   -0.34699  -0.34486  -0.34027  -0.33740  -0.33386
 Alpha  occ. eigenvalues --   -0.32816  -0.32335  -0.31896  -0.31719  -0.31007
 Alpha  occ. eigenvalues --   -0.29255  -0.28539  -0.27341  -0.26515  -0.24961
 Alpha  occ. eigenvalues --   -0.24382  -0.24242  -0.20843  -0.20752
 Alpha virt. eigenvalues --   -0.07274  -0.02729  -0.01891  -0.01481   0.00524
 Alpha virt. eigenvalues --    0.02212   0.04425   0.05723   0.06343   0.07722
 Alpha virt. eigenvalues --    0.08200   0.08797   0.09455   0.11186   0.11392

 Mulliken charges:
               1
     1  C   -0.442120
     2  C   -0.117178
     3  N   -0.387705
     4  C   -0.127524
     5  C   -0.297588
     6  C    0.272660
     7  C   -0.275641
     8  C   -0.146754
     9  N   -0.471463
    10  C    0.087891
    11  S    0.196390
    12  C   -0.543146
    13  C    0.602187
    14  O   -0.492005
    15  N   -0.731122
    16  C    0.348177
    17  C   -0.204294
    18  C   -0.207162
    19  C    0.196156
    20  C   -0.160406
    21  C   -0.437667
    22  C   -0.437791
    23  C   -0.205284
    24  C   -0.160830
    25  C    0.210904
    26  C    0.105453
    27  C   -0.179973
    28  C   -0.207626
    29  C    0.390885
    30  F   -0.289805
    31  C   -0.201282
    32  C   -0.152942
    33  N   -0.448094
    34  H    0.145622
    35  H    0.155452
    36  H    0.141663
    37  H    0.111644
    38  H    0.139073
    39  H    0.128803
    40  H    0.145127
    41  H    0.172375
    42  H    0.160792
    43  H    0.166339
    44  H    0.148528
    45  H    0.147367
    46  H    0.143860
    47  H    0.207281
    48  H    0.215887
    49  H    0.378739
    50  H    0.139409
    51  H    0.122888
    52  H    0.125736
    53  H    0.139092
    54  H    0.148644
    55  H    0.144299
    56  H    0.144189
    57  H    0.139222
    58  H    0.147904
    59  H    0.126496
    60  H    0.181113
    61  H    0.169823
    62  H    0.157697
    63  H    0.155295
    64  H    0.164341
 Sum of Mulliken charges =  -0.00000

 Dipole moment (field-independent basis, Debye):
    X=             -3.3331    Y=             -0.8397    Z=             -1.9371  Tot=              3.9455
 Quadrupole moment (field-independent basis, Debye-Ang):
   XX=           -195.8703   YY=           -203.9131   ZZ=           -205.1000
   XY=              2.7358   XZ=             -9.6087   YZ=              0.7825

 Normal termination of Gaussian 16 at Sat Nov  5 12:10:59 2022.
