 Gaussian 16, Revision B.01,
 Gaussian 16:  ES64L-G16RevB.01 20-Dec-2017

 -------------------------------------------------------------------
 #p b3lyp/6-31g(d) 6D 10F nosymm GFInput td=(50-50,nstate=2) SCF=XQC
 -------------------------------------------------------------------

 ------------------------------
 Gaussian input prepared by ASE
 ------------------------------
 Symbolic Z-matrix:
 Charge =  0 Multiplicity = 1

                          Input orientation:
 ---------------------------------------------------------------------
 Center     Atomic      Atomic             Coordinates (Angstroms)
 Number     Number       Type             X           Y           Z
 ---------------------------------------------------------------------
      1          6           0       -6.241570    0.648072   -1.545861
      2          6           0       -4.960565    0.448812   -0.817106
      3          8           0       -4.843752    1.159712    0.372507
      4          6           0       -3.633852    0.855474    0.886842
      5          7           0       -3.206664    1.389073    2.047313
      6          6           0       -2.015882    0.977011    2.385813
      7          7           0       -1.242778    0.098099    1.669974
      8          6           0        0.072662   -0.304103    2.193969
      9          6           0        1.238210    0.547339    1.650557
     10          8           0        1.856372    1.304959    2.392899
     11          7           0        1.489851    0.374494    0.330865
     12          6           0        2.551417    1.099285   -0.365447
     13          6           0        3.838939    0.306736   -0.504667
     14          6           0        4.246669   -0.189261   -1.746805
     15          6           0        5.428476   -0.924399   -1.868334
     16          6           0        6.214396   -1.171245   -0.742954
     17          6           0        5.814885   -0.678428    0.502751
     18          6           0        4.636497    0.056481    0.621768
     19          6           0       -1.651544   -0.459835    0.420075
     20          8           0       -0.893005   -1.206606   -0.206865
     21          6           0       -2.969045   -0.032821    0.057328
     22          6           0       -3.841131   -0.295854   -1.059997
     23          6           0       -3.551981   -1.200350   -2.219134
     24          1           0       -6.249386    0.061332   -2.467666
     25          1           0       -6.389168    1.702745   -1.808596
     26          1           0       -7.098710    0.338995   -0.935072
     27          1           0       -1.571100    1.341602    3.307209
     28          1           0        0.067110   -0.186742    3.277499
     29          1           0        0.214349   -1.356726    1.937333
     30          1           0        0.931553   -0.315418   -0.166839
     31          1           0        2.727909    2.014311    0.206429
     32          1           0        2.176033    1.383647   -1.354429
     33          1           0        3.636997    0.002008   -2.627736
     34          1           0        5.732752   -1.302457   -2.840926
     35          1           0        7.134904   -1.741804   -0.834436
     36          1           0        6.426545   -0.863233    1.382130
     37          1           0        4.324197    0.444432    1.587885
     38          1           0       -4.376013   -1.207940   -2.938584
     39          1           0       -3.382657   -2.229269   -1.882519
     40          1           0       -2.641918   -0.888129   -2.742958
 ---------------------------------------------------------------------

 SCF Done:  E(RB3LYP) =  -1048.01584067     A.U. after   15 cycles

 Excitation energies and oscillator strengths:

 Excited state symmetry could not be determined.
 Excited State   1:      Triplet-?Sym    3.0824 eV  402.23 nm  f=0.0000  <S**2>=2.000
      82 -> 83         0.67729
      82 -> 84        -0.10208
 This state for optimization and/or second-order correction.
 Total Energy, E(TD-HF/TD-DFT) =  -1047.90256355
 Copying the excited state density for this state as the 1-particle RhoCI density.

 Excited state symmetry could not be determined.
 Excited State   2:      Triplet-?Sym    3.7788 eV  328.10 nm  f=0.0000  <S**2>=2.000
      82 -> 83         0.11746
      82 -> 84         0.66851
      82 -> 88        -0.10187

 Excited state symmetry could not be determined.
 Excited State   3:      Singlet-?Sym    4.3893 eV  282.47 nm  f=0.2139  <S**2>=0.000
      82 -> 83         0.68489

 Excited state symmetry could not be determined.
 Excited State   4:      Singlet-?Sym    4.8899 eV  253.55 nm  f=0.0025  <S**2>=0.000
      78 -> 83        -0.15415
      81 -> 83         0.68300

 Alpha  occ. eigenvalues --  -19.22477 -19.13372 -19.11749 -14.41854 -14.35776
 Alpha  occ. eigenvalues --  -14.35280 -10.31143 -10.29200 -10.28951 -10.28847
 Alpha  occ. eigenvalues --  -10.25616 -10.24700 -10.22444 -10.20913 -10.20581
 Alpha  occ. eigenvalues --  -10.20461 -10.19360 -10.19342 -10.18807 -10.18757
 Alpha  occ. eigenvalues --  -10.18703 -10.18638 -10.18290  -1.12634  -1.05874
 Alpha  occ. eigenvalues --   -1.03398  -1.00134  -0.93069  -0.92110  -0.84941
 Alpha  occ. eigenvalues --   -0.83770  -0.79612  -0.77455  -0.75138  -0.74008
 Alpha  occ. eigenvalues --   -0.73556  -0.70671  -0.68700  -0.65883  -0.64506
 Alpha  occ. eigenvalues --   -0.60314  -0.59133  -0.57924  -0.57661  -0.55875
 Alpha  occ. eigenvalues --   -0.54075  -0.52211  -0.51101  -0.50813  -0.48781
 Alpha  occ. eigenvalues --   -0.47461  -0.46062  -0.45704  -0.45440  -0.44848
 Alpha  occ. eigenvalues --   -0.43978  -0.43007  -0.42520  -0.42416  -0.41940
 Alpha  occ. eigenvalues --   -0.41775  -0.41697  -0.41438  -0.40864  -0.40266
 Alpha  occ. eigenvalues --   -0.39517  -0.38482  -0.37950  -0.37494  -0.37198
 Alpha  occ. eigenvalues --   -0.35587  -0.34404  -0.33626  -0.30581  -0.29895
 Alpha  occ. eigenvalues --   -0.28121  -0.27890  -0.26069  -0.25117  -0.24644
 Alpha  occ. eigenvalues --   -0.23874  -0.21977
 Alpha virt. eigenvalues --   -0.04207  -0.01719  -0.00347   0.00302   0.01791
 Alpha virt. eigenvalues --    0.03495   0.08755   0.09577   0.09697   0.11190
 Alpha virt. eigenvalues --    0.12282   0.12572   0.12955   0.13381   0.13913

 Mulliken charges:
               1
     1  C   -0.536196
     2  C    0.276362
     3  O   -0.482036
     4  C    0.485364
     5  N   -0.489960
     6  C    0.225869
     7  N   -0.456494
     8  C   -0.263896
     9  C    0.602105
    10  O   -0.520252
    11  N   -0.585160
    12  C   -0.236725
    13  C    0.168983
    14  C   -0.185279
    15  C   -0.127272
    16  C   -0.128352
    17  C   -0.130383
    18  C   -0.182183
    19  C    0.581556
    20  O   -0.570740
    21  C   -0.001819
    22  C    0.073713
    23  C   -0.516264
    24  H    0.171274
    25  H    0.179217
    26  H    0.179046
    27  H    0.187589
    28  H    0.189442
    29  H    0.205087
    30  H    0.370609
    31  H    0.191178
    32  H    0.152961
    33  H    0.122174
    34  H    0.128668
    35  H    0.128712
    36  H    0.130949
    37  H    0.158984
    38  H    0.150214
    39  H    0.177102
    40  H    0.175854
 Sum of Mulliken charges =  -0.00000

 Dipole moment (field-independent basis, Debye):
    X=             -1.8181    Y=             -1.6128    Z=             -2.2352  Tot=              3.3019
 Quadrupole moment (field-independent basis, Debye-Ang):
   XX=           -122.0798   YY=           -137.9672   ZZ=           -125.8202
   XY=             -1.3089   XZ=              5.2768   YZ=             -7.2103

 Normal termination of Gaussian 16 at Sat Nov  5 11:56:17 2022.
