 Gaussian 16, Revision B.01,
 Gaussian 16:  ES64L-G16RevB.01 20-Dec-2017

 -----------------------------
 #p b3lyp/6-31g(d) opt SCF=XQC
 -----------------------------

 ------------------------------
 Gaussian input prepared by ASE
 ------------------------------
 Symbolic Z-matrix:
 Charge =  0 Multiplicity = 1

 SCF Done:  E(RB3LYP) =  -1048.00761766     A.U. after   15 cycles
 SCF Done:  E(RB3LYP) =  -1048.01237091     A.U. after   13 cycles
 SCF Done:  E(RB3LYP) =  -1048.01305475     A.U. after   13 cycles
 SCF Done:  E(RB3LYP) =  -1048.01355849     A.U. after   13 cycles
 SCF Done:  E(RB3LYP) =  -1048.01315687     A.U. after   14 cycles
 SCF Done:  E(RB3LYP) =  -1048.01411050     A.U. after   12 cycles
 SCF Done:  E(RB3LYP) =  -1048.01417323     A.U. after   12 cycles
 SCF Done:  E(RB3LYP) =  -1048.01424167     A.U. after   11 cycles
 SCF Done:  E(RB3LYP) =  -1048.01428491     A.U. after   11 cycles
 SCF Done:  E(RB3LYP) =  -1048.01431058     A.U. after   11 cycles
 SCF Done:  E(RB3LYP) =  -1048.01584224     A.U. after    9 cycles
 SCF Done:  E(RB3LYP) =  -1048.01584261     A.U. after    8 cycles
 SCF Done:  E(RB3LYP) =  -1048.01584297     A.U. after    8 cycles
 SCF Done:  E(RB3LYP) =  -1048.01584342     A.U. after    8 cycles
 SCF Done:  E(RB3LYP) =  -1048.01584377     A.U. after    8 cycles
 SCF Done:  E(RB3LYP) =  -1048.01584388     A.U. after    7 cycles
 SCF Done:  E(RB3LYP) =  -1048.01584394     A.U. after    7 cycles
 SCF Done:  E(RB3LYP) =  -1048.01584397     A.U. after    7 cycles
 SCF Done:  E(RB3LYP) =  -1048.01584399     A.U. after    7 cycles
 SCF Done:  E(RB3LYP) =  -1048.01584399     A.U. after    6 cycles
 Optimization completed.
    -- Stationary point found.

                         Standard orientation:
 ---------------------------------------------------------------------
 Center     Atomic      Atomic             Coordinates (Angstroms)
 Number     Number       Type             X           Y           Z
 ---------------------------------------------------------------------
      1          6           0       -6.145330    1.587917    0.669329
      2          6           0       -4.854503    0.936111    0.321945
      3          8           0       -4.791294   -0.426227    0.594413
      4          6           0       -3.563450   -0.838994    0.216283
      5          7           0       -3.177830   -2.122149    0.353112
      6          6           0       -1.960978   -2.332575   -0.067996
      7          7           0       -1.125257   -1.382487   -0.598563
      8          6           0        0.214907   -1.774027   -1.064801
      9          6           0        1.316862   -1.580313   -0.003236
     10          8           0        1.877486   -2.550577    0.498232
     11          7           0        1.582526   -0.286720    0.298141
     12          6           0        2.590169    0.096312    1.285580
     13          6           0        3.931770    0.461296    0.675562
     14          6           0        4.376311    1.786903    0.657904
     15          6           0        5.608300    2.118614    0.088661
     16          6           0        6.408107    1.122520   -0.470973
     17          6           0        5.971987   -0.205584   -0.456953
     18          6           0        4.743429   -0.534942    0.113156
     19          6           0       -1.490596   -0.007448   -0.726724
     20          8           0       -0.679087    0.814775   -1.164338
     21          6           0       -2.834876    0.224042   -0.291912
     22          6           0       -3.683834    1.386859   -0.219366
     23          6           0       -3.328216    2.775298   -0.656509
     24          1           0       -6.109235    2.653522    0.430094
     25          1           0       -6.368231    1.483076    1.738195
     26          1           0       -6.978944    1.139759    0.114780
     27          1           0       -1.545212   -3.334188   -0.007692
     28          1           0        0.199089   -2.833069   -1.321748
     29          1           0        0.432632   -1.181005   -1.956358
     30          1           0        1.076315    0.428940   -0.218545
     31          1           0        2.699198   -0.755183    1.962731
     32          1           0        2.196891    0.940726    1.861914
     33          1           0        3.755896    2.567147    1.094510
     34          1           0        5.940695    3.153473    0.083499
     35          1           0        7.367549    1.377212   -0.913516
     36          1           0        6.593922   -0.986601   -0.886834
     37          1           0        4.402328   -1.566840    0.129254
     38          1           0       -4.148348    3.476270   -0.475637
     39          1           0       -3.085627    2.801363   -1.724743
     40          1           0       -2.442189    3.139186   -0.124878
 ---------------------------------------------------------------------

 The electronic state is 1-A.
 Alpha  occ. eigenvalues --  -19.22477 -19.13372 -19.11749 -14.41854 -14.35776
 Alpha  occ. eigenvalues --  -14.35280 -10.31143 -10.29200 -10.28951 -10.28848
 Alpha  occ. eigenvalues --  -10.25616 -10.24700 -10.22443 -10.20913 -10.20581
 Alpha  occ. eigenvalues --  -10.20461 -10.19360 -10.19342 -10.18807 -10.18757
 Alpha  occ. eigenvalues --  -10.18703 -10.18638 -10.18290  -1.12634  -1.05875
 Alpha  occ. eigenvalues --   -1.03398  -1.00134  -0.93069  -0.92110  -0.84941
 Alpha  occ. eigenvalues --   -0.83770  -0.79612  -0.77455  -0.75138  -0.74008
 Alpha  occ. eigenvalues --   -0.73556  -0.70671  -0.68700  -0.65883  -0.64506
 Alpha  occ. eigenvalues --   -0.60314  -0.59133  -0.57924  -0.57661  -0.55875
 Alpha  occ. eigenvalues --   -0.54075  -0.52211  -0.51101  -0.50813  -0.48781
 Alpha  occ. eigenvalues --   -0.47461  -0.46062  -0.45704  -0.45440  -0.44848
 Alpha  occ. eigenvalues --   -0.43978  -0.43007  -0.42520  -0.42416  -0.41940
 Alpha  occ. eigenvalues --   -0.41775  -0.41697  -0.41438  -0.40864  -0.40266
 Alpha  occ. eigenvalues --   -0.39517  -0.38482  -0.37950  -0.37494  -0.37198
 Alpha  occ. eigenvalues --   -0.35587  -0.34404  -0.33626  -0.30581  -0.29895
 Alpha  occ. eigenvalues --   -0.28121  -0.27890  -0.26069  -0.25117  -0.24644
 Alpha  occ. eigenvalues --   -0.23874  -0.21977
 Alpha virt. eigenvalues --   -0.04207  -0.01720  -0.00347   0.00302   0.01791
 Alpha virt. eigenvalues --    0.03495   0.08755   0.09577   0.09697   0.11190
 Alpha virt. eigenvalues --    0.12282   0.12572   0.12955   0.13381   0.13913

 Mulliken charges:
               1
     1  C   -0.536194
     2  C    0.276369
     3  O   -0.482037
     4  C    0.485326
     5  N   -0.489935
     6  C    0.225852
     7  N   -0.456477
     8  C   -0.263893
     9  C    0.602116
    10  O   -0.520254
    11  N   -0.585167
    12  C   -0.236728
    13  C    0.168981
    14  C   -0.185272
    15  C   -0.127280
    16  C   -0.128351
    17  C   -0.130377
    18  C   -0.182186
    19  C    0.581511
    20  O   -0.570734
    21  C   -0.001785
    22  C    0.073717
    23  C   -0.516259
    24  H    0.171273
    25  H    0.179217
    26  H    0.179045
    27  H    0.187590
    28  H    0.189441
    29  H    0.205088
    30  H    0.370609
    31  H    0.191178
    32  H    0.152961
    33  H    0.122174
    34  H    0.128668
    35  H    0.128712
    36  H    0.130949
    37  H    0.158984
    38  H    0.150215
    39  H    0.177102
    40  H    0.175853
 Sum of Mulliken charges =  -0.00000

 Dipole moment (field-independent basis, Debye):
    X=             -1.6933    Y=              2.6948    Z=             -0.8797  Tot=              3.3019
 Quadrupole moment (field-independent basis, Debye-Ang):
   XX=           -122.4139   YY=           -130.5223   ZZ=           -132.2556
   XY=             -5.3874   XZ=             -2.1301   YZ=              8.8795

 Normal termination of Gaussian 16 at Fri Nov  4 20:07:47 2022.
