 Gaussian 16, Revision B.01,
 Gaussian 16:  ES64L-G16RevB.01 20-Dec-2017

 -----------------------------
 #p b3lyp/6-31g(d) opt SCF=XQC
 -----------------------------

 ------------------------------
 Gaussian input prepared by ASE
 ------------------------------
 Symbolic Z-matrix:
 Charge =  0 Multiplicity = 1

 SCF Done:  E(RB3LYP) =  -1508.31739002     A.U. after   16 cycles
 SCF Done:  E(RB3LYP) =  -1508.32387207     A.U. after   12 cycles
 SCF Done:  E(RB3LYP) =  -1508.32489035     A.U. after   11 cycles
 SCF Done:  E(RB3LYP) =  -1508.32548672     A.U. after   11 cycles
 SCF Done:  E(RB3LYP) =  -1508.32534616     A.U. after   12 cycles
 SCF Done:  E(RB3LYP) =  -1508.32582671     A.U. after   12 cycles
 SCF Done:  E(RB3LYP) =  -1508.32644058     A.U. after   11 cycles
 SCF Done:  E(RB3LYP) =  -1508.32655698     A.U. after   12 cycles
 SCF Done:  E(RB3LYP) =  -1508.32662098     A.U. after   11 cycles
 SCF Done:  E(RB3LYP) =  -1508.32665383     A.U. after   10 cycles
 SCF Done:  E(RB3LYP) =  -1508.32700497     A.U. after   12 cycles
 SCF Done:  E(RB3LYP) =  -1508.32700687     A.U. after    9 cycles
 SCF Done:  E(RB3LYP) =  -1508.32701570     A.U. after    9 cycles
 SCF Done:  E(RB3LYP) =  -1508.32701842     A.U. after   10 cycles
 SCF Done:  E(RB3LYP) =  -1508.32702489     A.U. after    8 cycles
 SCF Done:  E(RB3LYP) =  -1508.32702829     A.U. after    9 cycles
 SCF Done:  E(RB3LYP) =  -1508.32702990     A.U. after    9 cycles
 SCF Done:  E(RB3LYP) =  -1508.32703128     A.U. after    9 cycles
 SCF Done:  E(RB3LYP) =  -1508.32703139     A.U. after    7 cycles
 SCF Done:  E(RB3LYP) =  -1508.32703143     A.U. after    7 cycles
 Optimization completed.
    -- Stationary point found.

                         Standard orientation:
 ---------------------------------------------------------------------
 Center     Atomic      Atomic             Coordinates (Angstroms)
 Number     Number       Type             X           Y           Z
 ---------------------------------------------------------------------
      1          6           0       -4.199449    1.397816    2.548348
      2          6           0       -5.418973    0.470569    2.473373
      3          6           0       -6.305217    0.679140    1.227114
      4          6           0       -6.014672   -0.253514    0.026637
      5          7           0       -6.899970    0.126116   -1.081300
      6          6           0       -4.591588   -0.174424   -0.463446
      7          7           0       -3.614411   -0.913015   -0.033602
      8          6           0       -2.420278   -0.560541   -0.627008
      9          6           0       -1.192200   -1.352905   -0.287311
     10          8           0       -1.241193   -2.538704   -0.005459
     11          7           0       -0.026764   -0.607949   -0.348335
     12          6           0        1.300819   -1.029793   -0.148266
     13          6           0        1.669259   -2.397139    0.011525
     14          7           0        2.917724   -2.771081    0.175283
     15          6           0        3.910083   -1.835611    0.199463
     16          6           0        5.230703   -2.316782    0.379663
     17          6           0        6.274583   -1.430171    0.414741
     18          6           0        6.035836   -0.042897    0.272725
     19          6           0        4.774012    0.499733    0.093089
     20          6           0        4.607726    2.033459   -0.052173
     21          6           0        3.739047    2.606579    1.098124
     22          6           0        5.961705    2.774594    0.034097
     23          6           0        4.015993    2.396130   -1.439456
     24          6           0        3.661831   -0.426119    0.052600
     25          6           0        2.299083   -0.072752   -0.124931
     26          6           0       -2.502026    0.458879   -1.542810
     27         16           0       -4.134755    1.011882   -1.692335
     28          1           0       -3.627405    1.212738    3.464710
     29          1           0       -3.521923    1.250107    1.701930
     30          1           0       -4.507130    2.450837    2.553508
     31          1           0       -6.033688    0.634571    3.367306
     32          1           0       -5.087400   -0.574348    2.518715
     33          1           0       -7.356910    0.504704    1.495424
     34          1           0       -6.243756    1.718376    0.878912
     35          1           0       -6.150614   -1.291121    0.373031
     36          1           0       -7.856203    0.223357   -0.745268
     37          1           0       -6.907863   -0.600101   -1.795778
     38          1           0       -0.151201    0.391868   -0.441018
     39          1           0        0.905528   -3.165197    0.007279
     40          1           0        5.365750   -3.388221    0.485303
     41          1           0        7.294211   -1.779794    0.552181
     42          1           0        6.899014    0.609159    0.309969
     43          1           0        2.733436    2.184275    1.144849
     44          1           0        3.638563    3.692972    0.985446
     45          1           0        4.216544    2.411794    2.065014
     46          1           0        5.788089    3.851069   -0.072948
     47          1           0        6.649450    2.472693   -0.763251
     48          1           0        6.457825    2.616796    0.997834
     49          1           0        3.036741    1.952989   -1.630801
     50          1           0        4.686282    2.055872   -2.236848
     51          1           0        3.911861    3.484331   -1.528981
     52          1           0        2.012708    0.963691   -0.247608
     53          1           0       -1.719983    0.852103   -2.178791
 ---------------------------------------------------------------------

 The electronic state is 1-A.
 Alpha  occ. eigenvalues --  -88.92363 -19.12486 -14.38587 -14.34292 -14.33450
 Alpha  occ. eigenvalues --  -14.32313 -10.30318 -10.26018 -10.24360 -10.23895
 Alpha  occ. eigenvalues --  -10.23813 -10.23528 -10.21691 -10.21551 -10.21238
 Alpha  occ. eigenvalues --  -10.20646 -10.20435 -10.20090 -10.19468 -10.18763
 Alpha  occ. eigenvalues --  -10.18706 -10.18503 -10.18226 -10.18045 -10.17976
 Alpha  occ. eigenvalues --  -10.17860 -10.17347  -7.98416  -5.94797  -5.94437
 Alpha  occ. eigenvalues --   -5.94159  -1.04570  -0.97411  -0.95518  -0.92952
 Alpha  occ. eigenvalues --   -0.90559  -0.85278  -0.81351  -0.80918  -0.80047
 Alpha  occ. eigenvalues --   -0.79195  -0.76834  -0.74466  -0.73044  -0.71210
 Alpha  occ. eigenvalues --   -0.69158  -0.68764  -0.66354  -0.64946  -0.64148
 Alpha  occ. eigenvalues --   -0.61469  -0.60901  -0.59591  -0.58073  -0.55608
 Alpha  occ. eigenvalues --   -0.54850  -0.54187  -0.51999  -0.50604  -0.50153
 Alpha  occ. eigenvalues --   -0.49261  -0.48671  -0.47182  -0.46959  -0.46139
 Alpha  occ. eigenvalues --   -0.44549  -0.44014  -0.43719  -0.43570  -0.43192
 Alpha  occ. eigenvalues --   -0.42766  -0.42408  -0.41887  -0.41454  -0.40648
 Alpha  occ. eigenvalues --   -0.40158  -0.39590  -0.38958  -0.38604  -0.38412
 Alpha  occ. eigenvalues --   -0.38267  -0.37739  -0.37088  -0.37035  -0.35607
 Alpha  occ. eigenvalues --   -0.34706  -0.33786  -0.33738  -0.33671  -0.32996
 Alpha  occ. eigenvalues --   -0.32877  -0.32174  -0.31441  -0.29185  -0.28079
 Alpha  occ. eigenvalues --   -0.27777  -0.26397  -0.26340  -0.24957  -0.24315
 Alpha  occ. eigenvalues --   -0.23449  -0.21312
 Alpha virt. eigenvalues --   -0.05308  -0.04044  -0.01738   0.00740   0.02067
 Alpha virt. eigenvalues --    0.02513   0.05806   0.06891   0.07788   0.08440
 Alpha virt. eigenvalues --    0.09655   0.10273   0.10774   0.11397   0.11966

 Mulliken charges:
               1
     1  C   -0.447165
     2  C   -0.260541
     3  C   -0.263307
     4  C   -0.024675
     5  N   -0.732281
     6  C    0.105409
     7  N   -0.421895
     8  C    0.216687
     9  C    0.580018
    10  O   -0.479385
    11  N   -0.747094
    12  C    0.356068
    13  C    0.017670
    14  N   -0.506558
    15  C    0.233155
    16  C   -0.135979
    17  C   -0.134707
    18  C   -0.210590
    19  C    0.105569
    20  C    0.024050
    21  C   -0.448050
    22  C   -0.459738
    23  C   -0.447184
    24  C    0.109879
    25  C   -0.254520
    26  C   -0.395374
    27  S    0.268995
    28  H    0.145663
    29  H    0.155163
    30  H    0.139046
    31  H    0.135803
    32  H    0.160173
    33  H    0.132588
    34  H    0.153919
    35  H    0.156141
    36  H    0.308015
    37  H    0.312092
    38  H    0.331441
    39  H    0.196871
    40  H    0.144160
    41  H    0.130829
    42  H    0.129281
    43  H    0.144537
    44  H    0.139494
    45  H    0.152763
    46  H    0.142271
    47  H    0.148614
    48  H    0.149065
    49  H    0.141658
    50  H    0.152296
    51  H    0.139653
    52  H    0.130218
    53  H    0.179789
 Sum of Mulliken charges =  -0.00000

 Dipole moment (field-independent basis, Debye):
    X=             -2.0327    Y=              5.0680    Z=             -0.9064  Tot=              5.5352
 Quadrupole moment (field-independent basis, Debye-Ang):
   XX=           -129.9304   YY=           -179.1087   ZZ=           -166.7583
   XY=              8.4225   XZ=             -0.2722   YZ=              2.0972

 Normal termination of Gaussian 16 at Fri Nov  4 20:32:54 2022.
