 Gaussian 16, Revision B.01,
 Gaussian 16:  ES64L-G16RevB.01 20-Dec-2017

 -------------------------------------------------------------------
 #p b3lyp/6-31g(d) 6D 10F nosymm GFInput td=(50-50,nstate=2) SCF=XQC
 -------------------------------------------------------------------

 ------------------------------
 Gaussian input prepared by ASE
 ------------------------------
 Symbolic Z-matrix:
 Charge =  0 Multiplicity = 1

                          Input orientation:
 ---------------------------------------------------------------------
 Center     Atomic      Atomic             Coordinates (Angstroms)
 Number     Number       Type             X           Y           Z
 ---------------------------------------------------------------------
      1          6           0        4.651417   -1.875044    1.038405
      2          6           0        5.903862   -0.997774    1.158519
      3          6           0        6.578520   -0.658602   -0.187547
      4          6           0        6.173322    0.691790   -0.826030
      5          7           0        6.856560    0.817554   -2.119385
      6          6           0        4.690906    0.820979   -1.065524
      7          7           0        3.839123    1.306031   -0.214437
      8          6           0        2.549350    1.231674   -0.697427
      9          6           0        1.440060    1.802497    0.136269
     10          8           0        1.607767    2.759448    0.873885
     11          7           0        0.232546    1.148049   -0.038461
     12          6           0       -1.019920    1.441249    0.532348
     13          6           0       -1.270468    2.612655    1.304324
     14          7           0       -2.453417    2.878010    1.809826
     15          6           0       -3.489856    2.015554    1.603842
     16          6           0       -4.734553    2.370958    2.180430
     17          6           0       -5.817013    1.548026    2.012920
     18          6           0       -5.693068    0.350559    1.269681
     19          6           0       -4.510302   -0.061051    0.677601
     20          6           0       -4.467877   -1.390258   -0.117682
     21          6           0       -3.476340   -2.391197    0.531341
     22          6           0       -5.839165   -2.104008   -0.128337
     23          6           0       -4.114899   -1.132589   -1.606052
     24          6           0       -3.358705    0.800013    0.845472
     25          6           0       -2.063716    0.559563    0.317593
     26          6           0        2.426788    0.693142   -1.954230
     27         16           0        3.979324    0.260876   -2.584116
     28          1           0        4.235954   -2.095360    2.028385
     29          1           0        3.866148   -1.387191    0.453057
     30          1           0        4.887139   -2.831080    0.554693
     31          1           0        6.633196   -1.520660    1.789826
     32          1           0        5.651583   -0.070452    1.687929
     33          1           0        7.667597   -0.609342   -0.046267
     34          1           0        6.398152   -1.454729   -0.921498
     35          1           0        6.426799    1.487488   -0.106510
     36          1           0        7.843867    0.591520   -2.015025
     37          1           0        6.804951    1.777169   -2.457627
     38          1           0        0.276325    0.280769   -0.557709
     39          1           0       -0.467531    3.313995    1.495722
     40          1           0       -4.782199    3.297697    2.742802
     41          1           0       -6.779700    1.803294    2.447478
     42          1           0       -6.581634   -0.259854    1.172278
     43          1           0       -2.449675   -2.023977    0.585049
     44          1           0       -3.464822   -3.328668   -0.037920
     45          1           0       -3.790342   -2.623625    1.555158
     46          1           0       -5.754004   -3.034574   -0.700346
     47          1           0       -6.617140   -1.497015   -0.603958
     48          1           0       -6.174420   -2.368726    0.880301
     49          1           0       -3.148441   -0.646300   -1.752353
     50          1           0       -4.873159   -0.490722   -2.068594
     51          1           0       -4.096440   -2.081438   -2.155948
     52          1           0       -1.867031   -0.327676   -0.270112
     53          1           0        1.534582    0.601351   -2.559400
 ---------------------------------------------------------------------

 SCF Done:  E(RB3LYP) =  -1508.32703676     A.U. after   16 cycles

 Excitation energies and oscillator strengths:

 Excited state symmetry could not be determined.
 Excited State   1:      Triplet-?Sym    2.6478 eV  468.25 nm  f=0.0000  <S**2>=2.000
     101 ->103         0.11075
     101 ->104        -0.15159
     101 ->105         0.11473
     102 ->103         0.57842
     102 ->104        -0.29016
 This state for optimization and/or second-order correction.
 Total Energy, E(TD-HF/TD-DFT) =  -1508.22973095
 Copying the excited state density for this state as the 1-particle RhoCI density.

 Excited state symmetry could not be determined.
 Excited State   2:      Triplet-?Sym    3.3520 eV  369.88 nm  f=0.0000  <S**2>=2.000
      97 ->103        -0.21207
      97 ->104        -0.23245
      99 ->103         0.26771
      99 ->104         0.30574
     100 ->103        -0.23417
     100 ->104        -0.21751
     101 ->103         0.19960
     102 ->103        -0.12071
     102 ->104        -0.16788

 Excited state symmetry could not be determined.
 Excited State   3:      Singlet-?Sym    3.9477 eV  314.07 nm  f=0.2559  <S**2>=0.000
     102 ->103         0.68952

 Excited state symmetry could not be determined.
 Excited State   4:      Singlet-?Sym    4.1194 eV  300.97 nm  f=0.0066  <S**2>=0.000
     101 ->103         0.32097
     102 ->104         0.56389
     102 ->105        -0.19037

 Alpha  occ. eigenvalues --  -88.92363 -19.12486 -14.38587 -14.34292 -14.33450
 Alpha  occ. eigenvalues --  -14.32313 -10.30318 -10.26018 -10.24360 -10.23895
 Alpha  occ. eigenvalues --  -10.23813 -10.23528 -10.21691 -10.21551 -10.21238
 Alpha  occ. eigenvalues --  -10.20646 -10.20435 -10.20091 -10.19468 -10.18763
 Alpha  occ. eigenvalues --  -10.18706 -10.18503 -10.18226 -10.18045 -10.17976
 Alpha  occ. eigenvalues --  -10.17860 -10.17347  -7.98416  -5.94798  -5.94437
 Alpha  occ. eigenvalues --   -5.94159  -1.04570  -0.97411  -0.95518  -0.92952
 Alpha  occ. eigenvalues --   -0.90559  -0.85278  -0.81352  -0.80918  -0.80047
 Alpha  occ. eigenvalues --   -0.79195  -0.76834  -0.74466  -0.73044  -0.71210
 Alpha  occ. eigenvalues --   -0.69158  -0.68764  -0.66354  -0.64946  -0.64148
 Alpha  occ. eigenvalues --   -0.61469  -0.60902  -0.59591  -0.58073  -0.55608
 Alpha  occ. eigenvalues --   -0.54850  -0.54187  -0.51999  -0.50604  -0.50153
 Alpha  occ. eigenvalues --   -0.49261  -0.48671  -0.47182  -0.46959  -0.46139
 Alpha  occ. eigenvalues --   -0.44549  -0.44014  -0.43719  -0.43570  -0.43192
 Alpha  occ. eigenvalues --   -0.42766  -0.42408  -0.41887  -0.41454  -0.40648
 Alpha  occ. eigenvalues --   -0.40158  -0.39590  -0.38958  -0.38604  -0.38412
 Alpha  occ. eigenvalues --   -0.38267  -0.37739  -0.37088  -0.37035  -0.35607
 Alpha  occ. eigenvalues --   -0.34706  -0.33786  -0.33738  -0.33671  -0.32996
 Alpha  occ. eigenvalues --   -0.32877  -0.32174  -0.31441  -0.29185  -0.28079
 Alpha  occ. eigenvalues --   -0.27777  -0.26397  -0.26340  -0.24957  -0.24315
 Alpha  occ. eigenvalues --   -0.23449  -0.21312
 Alpha virt. eigenvalues --   -0.05308  -0.04044  -0.01738   0.00740   0.02067
 Alpha virt. eigenvalues --    0.02513   0.05806   0.06891   0.07788   0.08440
 Alpha virt. eigenvalues --    0.09655   0.10273   0.10774   0.11397   0.11966

 Mulliken charges:
               1
     1  C   -0.447156
     2  C   -0.260552
     3  C   -0.263306
     4  C   -0.024668
     5  N   -0.732285
     6  C    0.105414
     7  N   -0.421899
     8  C    0.216684
     9  C    0.580056
    10  O   -0.479400
    11  N   -0.747125
    12  C    0.356110
    13  C    0.017638
    14  N   -0.506549
    15  C    0.233168
    16  C   -0.135979
    17  C   -0.134708
    18  C   -0.210587
    19  C    0.105541
    20  C    0.024048
    21  C   -0.448042
    22  C   -0.459725
    23  C   -0.447189
    24  C    0.109872
    25  C   -0.254527
    26  C   -0.395376
    27  S    0.268994
    28  H    0.145662
    29  H    0.155163
    30  H    0.139044
    31  H    0.135805
    32  H    0.160175
    33  H    0.132587
    34  H    0.153919
    35  H    0.156140
    36  H    0.308015
    37  H    0.312093
    38  H    0.331441
    39  H    0.196875
    40  H    0.144161
    41  H    0.130829
    42  H    0.129283
    43  H    0.144537
    44  H    0.139493
    45  H    0.152762
    46  H    0.142270
    47  H    0.148612
    48  H    0.149062
    49  H    0.141660
    50  H    0.152297
    51  H    0.139655
    52  H    0.130221
    53  H    0.179788
 Sum of Mulliken charges =  -0.00000

 Dipole moment (field-independent basis, Debye):
    X=              1.5400    Y=             -4.2068    Z=             -3.2510  Tot=              5.5351
 Quadrupole moment (field-independent basis, Debye-Ang):
   XX=           -129.1652   YY=           -179.0413   ZZ=           -170.8619
   XY=              6.3828   XZ=             -3.5777   YZ=             -8.7953

 Normal termination of Gaussian 16 at Sat Nov  5 11:58:12 2022.
