 Gaussian 16, Revision B.01,
 Gaussian 16:  ES64L-G16RevB.01 20-Dec-2017

 -------------------------------------------------------------------
 #p b3lyp/6-31g(d) 6D 10F nosymm GFInput td=(50-50,nstate=2) SCF=XQC
 -------------------------------------------------------------------

 ------------------------------
 Gaussian input prepared by ASE
 ------------------------------
 Symbolic Z-matrix:
 Charge =  0 Multiplicity = 1

                          Input orientation:
 ---------------------------------------------------------------------
 Center     Atomic      Atomic             Coordinates (Angstroms)
 Number     Number       Type             X           Y           Z
 ---------------------------------------------------------------------
      1          6           0        3.898988    2.413056   -0.424095
      2          6           0        3.022724    1.305848    0.084683
      3          6           0        1.719199    1.168961   -0.216820
      4          6           0        0.809560    0.113927    0.245196
      5          6           0        1.411737   -0.927591    1.159062
      6          6           0       -0.477276    0.181760   -0.195034
      7          6           0       -1.680013   -0.633681    0.009604
      8          6           0       -1.664925   -1.869533    0.880871
      9          6           0       -2.803226   -0.217079   -0.625497
     10          6           0       -4.177965   -0.816015   -0.625036
     11          1           0        4.324847    2.999362    0.402435
     12          1           0        4.751233    2.019343   -0.995868
     13          1           0        3.345279    3.099393   -1.073966
     14          1           0        3.506306    0.582150    0.739328
     15          1           0        1.271448    1.914692   -0.875913
     16          1           0        1.823667   -0.452695    2.059244
     17          1           0        0.707950   -1.690588    1.479063
     18          1           0        2.250243   -1.432482    0.661528
     19          1           0       -0.676844    1.030210   -0.850688
     20          1           0       -0.950958   -2.612966    0.507778
     21          1           0       -2.643588   -2.351367    0.920316
     22          1           0       -1.378932   -1.628771    1.911337
     23          1           0       -2.717656    0.685308   -1.232273
     24          1           0       -4.915178   -0.090823   -0.252117
     25          1           0       -4.267648   -1.720069   -0.018153
     26          1           0       -4.488976   -1.070348   -1.648282
 ---------------------------------------------------------------------

 SCF Done:  E(RB3LYP) =  -390.661366515     A.U. after   13 cycles

 Excitation energies and oscillator strengths:

 Excited state symmetry could not be determined.
 Excited State   1:      Triplet-?Sym    2.1894 eV  566.29 nm  f=0.0000  <S**2>=2.000
      37 -> 40         0.14143
      38 -> 39         0.70505
      38 <- 39         0.15078
 This state for optimization and/or second-order correction.
 Total Energy, E(TD-HF/TD-DFT) =  -390.580906426
 Copying the excited state density for this state as the 1-particle RhoCI density.

 Excited state symmetry could not be determined.
 Excited State   2:      Triplet-?Sym    3.8611 eV  321.11 nm  f=0.0000  <S**2>=2.000
      36 -> 40         0.11061
      37 -> 39         0.54545
      37 -> 42        -0.10062
      38 -> 40         0.42635

 Excited state symmetry could not be determined.
 Excited State   3:      Singlet-?Sym    4.6013 eV  269.46 nm  f=1.0985  <S**2>=0.000
      38 -> 39         0.70822
      38 <- 39        -0.10392

 Excited state symmetry could not be determined.
 Excited State   4:      Singlet-?Sym    5.5784 eV  222.26 nm  f=0.0102  <S**2>=0.000
      37 -> 39         0.57131
      38 -> 40        -0.41247

 Alpha  occ. eigenvalues --  -10.19170 -10.18941 -10.18322 -10.18150 -10.17890
 Alpha  occ. eigenvalues --  -10.17841 -10.17838 -10.17738 -10.17460 -10.17423
 Alpha  occ. eigenvalues --   -0.82449  -0.79689  -0.75574  -0.72250  -0.69567
 Alpha  occ. eigenvalues --   -0.67345  -0.64460  -0.56673  -0.52172  -0.51117
 Alpha  occ. eigenvalues --   -0.47144  -0.45878  -0.42705  -0.42180  -0.41008
 Alpha  occ. eigenvalues --   -0.40302  -0.40239  -0.39902  -0.39179  -0.37439
 Alpha  occ. eigenvalues --   -0.37189  -0.35555  -0.34173  -0.33800  -0.32177
 Alpha  occ. eigenvalues --   -0.30111  -0.25657  -0.18930
 Alpha virt. eigenvalues --   -0.02682   0.05550   0.09526   0.10718   0.11186
 Alpha virt. eigenvalues --    0.11919   0.12416   0.13512   0.14622   0.16056
 Alpha virt. eigenvalues --    0.16238   0.17456   0.17631   0.18251   0.18434

 Mulliken charges:
               1
     1  C   -0.487018
     2  C   -0.112849
     3  C   -0.147315
     4  C    0.197580
     5  C   -0.545751
     6  C   -0.275607
     7  C    0.226034
     8  C   -0.542014
     9  C   -0.174099
    10  C   -0.494523
    11  H    0.153369
    12  H    0.153369
    13  H    0.151570
    14  H    0.120718
    15  H    0.112651
    16  H    0.157604
    17  H    0.159533
    18  H    0.157601
    19  H    0.115028
    20  H    0.163394
    21  H    0.150727
    22  H    0.163394
    23  H    0.124117
    24  H    0.158543
    25  H    0.155401
    26  H    0.158545
 Sum of Mulliken charges =  -0.00000

 Dipole moment (field-independent basis, Debye):
    X=             -0.3213    Y=             -0.3563    Z=              0.1517  Tot=              0.5033
 Quadrupole moment (field-independent basis, Debye-Ang):
   XX=            -57.4421   YY=            -61.7342   ZZ=            -63.6307
   XY=              1.3733   XZ=              1.5940   YZ=             -2.5316

 Normal termination of Gaussian 16 at Sat Nov  5 11:52:53 2022.
