 Gaussian 16, Revision B.01,
 Gaussian 16:  ES64L-G16RevB.01 20-Dec-2017

 -----------------------------
 #p b3lyp/6-31g(d) opt SCF=XQC
 -----------------------------

 ------------------------------
 Gaussian input prepared by ASE
 ------------------------------
 Symbolic Z-matrix:
 Charge =  0 Multiplicity = 1

 SCF Done:  E(RB3LYP) =  -390.656388906     A.U. after   13 cycles
 SCF Done:  E(RB3LYP) =  -390.659151321     A.U. after   12 cycles
 SCF Done:  E(RB3LYP) =  -390.659477142     A.U. after   11 cycles
 SCF Done:  E(RB3LYP) =  -390.660046298     A.U. after   12 cycles
 SCF Done:  E(RB3LYP) =  -390.660571734     A.U. after   12 cycles
 SCF Done:  E(RB3LYP) =  -390.661107790     A.U. after   12 cycles
 SCF Done:  E(RB3LYP) =  -390.661228659     A.U. after   11 cycles
 SCF Done:  E(RB3LYP) =  -390.661298903     A.U. after   11 cycles
 SCF Done:  E(RB3LYP) =  -390.661326640     A.U. after   10 cycles
 SCF Done:  E(RB3LYP) =  -390.661345563     A.U. after   10 cycles
 SCF Done:  E(RB3LYP) =  -390.661362038     A.U. after    9 cycles
 SCF Done:  E(RB3LYP) =  -390.661362959     A.U. after    7 cycles
 SCF Done:  E(RB3LYP) =  -390.661363646     A.U. after    7 cycles
 SCF Done:  E(RB3LYP) =  -390.661364479     A.U. after    7 cycles
 SCF Done:  E(RB3LYP) =  -390.661364897     A.U. after    7 cycles
 SCF Done:  E(RB3LYP) =  -390.661364947     A.U. after    6 cycles
 SCF Done:  E(RB3LYP) =  -390.661365080     A.U. after    7 cycles
 SCF Done:  E(RB3LYP) =  -390.661365204     A.U. after    7 cycles
 SCF Done:  E(RB3LYP) =  -390.661365253     A.U. after    6 cycles
 SCF Done:  E(RB3LYP) =  -390.661365275     A.U. after    6 cycles
 Optimization completed.
    -- Stationary point found.

                         Standard orientation:
 ---------------------------------------------------------------------
 Center     Atomic      Atomic             Coordinates (Angstroms)
 Number     Number       Type             X           Y           Z
 ---------------------------------------------------------------------
      1          6           0        4.487970   -0.920652    0.000011
      2          6           0        3.270625   -0.042770    0.000117
      3          6           0        2.005241   -0.498427   -0.000147
      4          6           0        0.775610    0.302826   -0.000045
      5          6           0        0.961100    1.802200    0.000101
      6          6           0       -0.400261   -0.383962   -0.000089
      7          6           0       -1.816748   -0.000607   -0.000039
      8          6           0       -2.249094    1.448441   -0.000141
      9          6           0       -2.714010   -1.017188    0.000127
     10          6           0       -4.212734   -0.967577    0.000082
     11          1           0        5.118952   -0.731093   -0.879869
     12          1           0        5.118782   -0.731506    0.880100
     13          1           0        4.219393   -1.982655   -0.000264
     14          1           0        3.460289    1.029693    0.000409
     15          1           0        1.856960   -1.579636   -0.000491
     16          1           0        1.538842    2.115031   -0.879612
     17          1           0        0.028981    2.359904    0.000259
     18          1           0        1.538945    2.114857    0.879809
     19          1           0       -0.279935   -1.467981   -0.000210
     20          1           0       -1.873683    1.977671    0.883388
     21          1           0       -3.336049    1.548601   -0.000358
     22          1           0       -1.873314    1.977724   -0.883468
     23          1           0       -2.308227   -2.029681    0.000262
     24          1           0       -4.616534   -1.490066   -0.878785
     25          1           0       -4.622953    0.045035   -0.000208
     26          1           0       -4.616647   -1.489600    0.879167
 ---------------------------------------------------------------------

 The electronic state is 1-A.
 Alpha  occ. eigenvalues --  -10.19170 -10.18941 -10.18322 -10.18150 -10.17890
 Alpha  occ. eigenvalues --  -10.17841 -10.17838 -10.17738 -10.17460 -10.17422
 Alpha  occ. eigenvalues --   -0.82449  -0.79689  -0.75574  -0.72250  -0.69567
 Alpha  occ. eigenvalues --   -0.67345  -0.64460  -0.56673  -0.52172  -0.51117
 Alpha  occ. eigenvalues --   -0.47144  -0.45878  -0.42705  -0.42180  -0.41008
 Alpha  occ. eigenvalues --   -0.40302  -0.40239  -0.39902  -0.39179  -0.37439
 Alpha  occ. eigenvalues --   -0.37189  -0.35555  -0.34173  -0.33800  -0.32177
 Alpha  occ. eigenvalues --   -0.30111  -0.25657  -0.18930
 Alpha virt. eigenvalues --   -0.02682   0.05550   0.09526   0.10718   0.11186
 Alpha virt. eigenvalues --    0.11919   0.12416   0.13512   0.14622   0.16056
 Alpha virt. eigenvalues --    0.16238   0.17456   0.17631   0.18251   0.18434

 Mulliken charges:
               1
     1  C   -0.487019
     2  C   -0.112850
     3  C   -0.147317
     4  C    0.197592
     5  C   -0.545757
     6  C   -0.275614
     7  C    0.226027
     8  C   -0.542003
     9  C   -0.174098
    10  C   -0.494521
    11  H    0.153369
    12  H    0.153369
    13  H    0.151570
    14  H    0.120718
    15  H    0.112651
    16  H    0.157605
    17  H    0.159533
    18  H    0.157602
    19  H    0.115029
    20  H    0.163392
    21  H    0.150726
    22  H    0.163392
    23  H    0.124117
    24  H    0.158542
    25  H    0.155401
    26  H    0.158545
 Sum of Mulliken charges =  -0.00000

 Dipole moment (field-independent basis, Debye):
    X=             -0.4285    Y=              0.2640    Z=              0.0000  Tot=              0.5033
 Quadrupole moment (field-independent basis, Debye-Ang):
   XX=            -57.0536   YY=            -59.8275   ZZ=            -65.9036
   XY=              0.6814   XZ=              0.0001   YZ=              0.0006

 Normal termination of Gaussian 16 at Fri Nov  4 19:40:21 2022.
