 Gaussian 16, Revision B.01,
 Gaussian 16:  ES64L-G16RevB.01 20-Dec-2017

 -----------------------------
 #p b3lyp/6-31g(d) opt SCF=XQC
 -----------------------------

 ------------------------------
 Gaussian input prepared by ASE
 ------------------------------
 Symbolic Z-matrix:
 Charge =  0 Multiplicity = 1

 SCF Done:  E(RB3LYP) =  -2181.96240027     A.U. after   14 cycles
 SCF Done:  E(RB3LYP) =  -2181.95832476     A.U. after   14 cycles
 SCF Done:  E(RB3LYP) =  -2181.97040424     A.U. after   13 cycles
 SCF Done:  E(RB3LYP) =  -2180.15455820     A.U. after   18 cycles
 SCF Done:  E(RB3LYP) =  -2181.93346550     A.U. after   13 cycles
 SCF Done:  E(RB3LYP) =  -2181.97262019     A.U. after   11 cycles
 SCF Done:  E(RB3LYP) =  -2181.97425180     A.U. after   13 cycles
 SCF Done:  E(RB3LYP) =  -2181.97709498     A.U. after   12 cycles
 SCF Done:  E(RB3LYP) =  -2181.97706832     A.U. after   12 cycles
 SCF Done:  E(RB3LYP) =  -2181.97860217     A.U. after   12 cycles
 SCF Done:  E(RB3LYP) =  -2181.98014268     A.U. after    9 cycles
 SCF Done:  E(RB3LYP) =  -2181.98014628     A.U. after    9 cycles
 SCF Done:  E(RB3LYP) =  -2181.98014810     A.U. after    8 cycles
 SCF Done:  E(RB3LYP) =  -2181.98014903     A.U. after    8 cycles
 SCF Done:  E(RB3LYP) =  -2181.98014935     A.U. after    8 cycles
 SCF Done:  E(RB3LYP) =  -2181.98014966     A.U. after    8 cycles
 SCF Done:  E(RB3LYP) =  -2181.98014976     A.U. after    7 cycles
 SCF Done:  E(RB3LYP) =  -2181.98014980     A.U. after    6 cycles
 SCF Done:  E(RB3LYP) =  -2181.98014982     A.U. after    6 cycles
 SCF Done:  E(RB3LYP) =  -2181.98014983     A.U. after    6 cycles
 Optimization completed.
    -- Stationary point found.

                         Standard orientation:
 ---------------------------------------------------------------------
 Center     Atomic      Atomic             Coordinates (Angstroms)
 Number     Number       Type             X           Y           Z
 ---------------------------------------------------------------------
      1          6           0        2.841859    5.072174    1.621335
      2          6           0        1.656750    4.171827    1.277440
      3         16           0        1.096991    4.477846   -0.434266
      4          8           0        0.584944    5.856701   -0.496651
      5          8           0        2.194970    4.062224   -1.335601
      6          6           0       -0.304245    3.355655   -0.623011
      7          6           0       -1.526631    3.831685   -0.138448
      8          6           0       -2.665518    3.032147   -0.126832
      9          6           0       -2.570640    1.717611   -0.605576
     10          7           0       -3.636422    0.803660   -0.589030
     11          6           0       -4.853596    0.917406    0.055334
     12          8           0       -5.271250    1.946428    0.561819
     13          6           0       -5.662700   -0.389790    0.087892
     14          8           0       -5.132766   -1.362185    0.997086
     15          6           0       -3.962893   -2.020966    0.634085
     16          6           0       -3.977547   -3.009060   -0.367108
     17          6           0       -5.251679   -3.401418   -1.079558
     18          6           0       -2.770461   -3.661641   -0.650757
     19          6           0       -1.571927   -3.365448    0.014759
     20          5           0       -0.232631   -4.139987   -0.314722
     21          8           0       -0.254381   -5.472429   -0.649298
     22          8           0        0.995240   -3.557798   -0.273589
     23          6           0       -1.620759   -2.392895    1.027275
     24          6           0       -2.799875   -1.727088    1.371453
     25          6           0       -2.841176   -0.739684    2.512837
     26          6           0       -1.350090    1.260336   -1.128883
     27          6           0       -0.205731    2.053048   -1.155798
     28          6           0        1.047374    1.461537   -1.791301
     29          7           0        2.134730    1.199771   -0.861164
     30          6           0        2.174877    0.076334   -0.107411
     31          8           0        1.321883   -0.807998   -0.155773
     32          8           0        3.251643    0.083987    0.708912
     33          6           0        3.567534   -1.147834    1.421682
     34          6           0        4.674095   -1.902884    0.729827
     35          6           0        5.999057   -1.458404    0.838537
     36          6           0        7.029093   -2.135030    0.187892
     37          6           0        6.743260   -3.269312   -0.576755
     38          6           0        5.427201   -3.719526   -0.686881
     39          6           0        4.393400   -3.039747   -0.038609
     40          1           0        2.565684    6.126824    1.538157
     41          1           0        3.160769    4.875700    2.650072
     42          1           0        3.686566    4.879790    0.953854
     43          1           0        1.909684    3.108674    1.333971
     44          1           0        0.791968    4.365001    1.919103
     45          1           0       -1.588001    4.852788    0.223915
     46          1           0       -3.605995    3.403801    0.253820
     47          1           0       -3.396578   -0.126724   -0.910914
     48          1           0       -6.653481   -0.138289    0.466311
     49          1           0       -5.757041   -0.805925   -0.923661
     50          1           0       -5.443593   -2.788391   -1.970784
     51          1           0       -5.194423   -4.440811   -1.417725
     52          1           0       -6.119048   -3.303027   -0.419783
     53          1           0       -2.778284   -4.428395   -1.425358
     54          1           0       -1.138384   -5.848269   -0.543924
     55          1           0        0.998219   -2.583353   -0.196672
     56          1           0       -0.712906   -2.147700    1.573325
     57          1           0       -1.866327   -0.685320    3.006123
     58          1           0       -3.107603    0.270171    2.182015
     59          1           0       -3.589127   -1.031249    3.258336
     60          1           0       -1.280746    0.242188   -1.503910
     61          1           0        1.434256    2.136577   -2.554272
     62          1           0        0.778263    0.516445   -2.268268
     63          1           0        2.866944    1.891236   -0.775601
     64          1           0        3.874281   -0.809241    2.414530
     65          1           0        2.660299   -1.747146    1.506451
     66          1           0        6.221848   -0.576967    1.436101
     67          1           0        8.053047   -1.782667    0.280328
     68          1           0        7.545800   -3.801150   -1.081201
     69          1           0        5.200049   -4.603108   -1.277176
     70          1           0        3.370546   -3.396718   -0.129703
 ---------------------------------------------------------------------

 The electronic state is 1-A.
 Alpha  occ. eigenvalues --  -89.09670 -19.19765 -19.18607 -19.14662 -19.14509
 Alpha  occ. eigenvalues --  -19.14503 -19.14137 -19.14135 -19.13505 -14.39891
 Alpha  occ. eigenvalues --  -14.37433 -10.35083 -10.31441 -10.26504 -10.26425
 Alpha  occ. eigenvalues --  -10.25295 -10.25157 -10.24151 -10.23417 -10.23295
 Alpha  occ. eigenvalues --  -10.23240 -10.21983 -10.21545 -10.21149 -10.20799
 Alpha  occ. eigenvalues --  -10.20673 -10.20108 -10.19941 -10.19902 -10.19719
 Alpha  occ. eigenvalues --  -10.19489 -10.19232 -10.19135 -10.19081 -10.18790
 Alpha  occ. eigenvalues --  -10.18760 -10.18552 -10.17772  -8.12591  -6.77448
 Alpha  occ. eigenvalues --   -6.09031  -6.08960  -6.08887  -1.11353  -1.09940
 Alpha  occ. eigenvalues --   -1.07394  -1.05629  -1.02485  -1.01597  -0.99726
 Alpha  occ. eigenvalues --   -0.98673  -0.96615  -0.94291  -0.87983  -0.86435
 Alpha  occ. eigenvalues --   -0.85487  -0.81027  -0.79732  -0.79420  -0.78664
 Alpha  occ. eigenvalues --   -0.77508  -0.76760  -0.74325  -0.73928  -0.72726
 Alpha  occ. eigenvalues --   -0.70447  -0.69058  -0.68757  -0.68227  -0.65252
 Alpha  occ. eigenvalues --   -0.64152  -0.61362  -0.60833  -0.60590  -0.59494
 Alpha  occ. eigenvalues --   -0.59213  -0.58762  -0.57916  -0.56827  -0.55967
 Alpha  occ. eigenvalues --   -0.55435  -0.53509  -0.52822  -0.51921  -0.51656
 Alpha  occ. eigenvalues --   -0.50406  -0.49317  -0.48909  -0.48658  -0.48488
 Alpha  occ. eigenvalues --   -0.48438  -0.48154  -0.47732  -0.47519  -0.46413
 Alpha  occ. eigenvalues --   -0.46049  -0.45607  -0.44782  -0.44475  -0.44277
 Alpha  occ. eigenvalues --   -0.44014  -0.43559  -0.43288  -0.42895  -0.42443
 Alpha  occ. eigenvalues --   -0.42344  -0.41877  -0.41750  -0.41421  -0.41223
 Alpha  occ. eigenvalues --   -0.41090  -0.40843  -0.40053  -0.39895  -0.39247
 Alpha  occ. eigenvalues --   -0.38534  -0.38388  -0.38047  -0.37999  -0.37618
 Alpha  occ. eigenvalues --   -0.36681  -0.36614  -0.36098  -0.36040  -0.35395
 Alpha  occ. eigenvalues --   -0.35118  -0.34138  -0.33616  -0.33373  -0.32678
 Alpha  occ. eigenvalues --   -0.31701  -0.31212  -0.30760  -0.30496  -0.30128
 Alpha  occ. eigenvalues --   -0.29854  -0.29449  -0.29021  -0.27702  -0.27088
 Alpha  occ. eigenvalues --   -0.26730  -0.25071  -0.24929  -0.24905  -0.24792
 Alpha  occ. eigenvalues --   -0.24048
 Alpha virt. eigenvalues --   -0.05462  -0.02880  -0.02435  -0.01328  -0.01115
 Alpha virt. eigenvalues --   -0.00005   0.00157   0.03397   0.05652   0.06060
 Alpha virt. eigenvalues --    0.06617   0.07392   0.08070   0.08786   0.09161

 Mulliken charges:
               1
     1  C   -0.464574
     2  C   -0.449002
     3  S    1.145105
     4  O   -0.543238
     5  O   -0.583112
     6  C   -0.223227
     7  C   -0.172578
     8  C   -0.152991
     9  C    0.369019
    10  N   -0.709100
    11  C    0.589880
    12  O   -0.482043
    13  C   -0.130388
    14  O   -0.516869
    15  C    0.165018
    16  C    0.177972
    17  C   -0.541320
    18  C   -0.300726
    19  C    0.071727
    20  B    0.372738
    21  O   -0.558316
    22  O   -0.585784
    23  C   -0.279320
    24  C    0.168217
    25  C   -0.525015
    26  C   -0.244483
    27  C    0.163805
    28  C   -0.225035
    29  N   -0.610844
    30  C    0.815214
    31  O   -0.551909
    32  O   -0.485140
    33  C   -0.154761
    34  C    0.147407
    35  C   -0.167183
    36  C   -0.130325
    37  C   -0.125518
    38  C   -0.137338
    39  C   -0.199506
    40  H    0.190191
    41  H    0.165704
    42  H    0.182625
    43  H    0.189879
    44  H    0.192571
    45  H    0.185770
    46  H    0.197493
    47  H    0.349527
    48  H    0.190515
    49  H    0.152163
    50  H    0.159550
    51  H    0.163744
    52  H    0.178941
    53  H    0.116013
    54  H    0.398473
    55  H    0.460417
    56  H    0.131522
    57  H    0.153477
    58  H    0.170548
    59  H    0.175576
    60  H    0.157229
    61  H    0.204481
    62  H    0.178604
    63  H    0.363763
    64  H    0.158237
    65  H    0.179708
    66  H    0.126497
    67  H    0.130751
    68  H    0.131693
    69  H    0.139389
    70  H    0.188491
 Sum of Mulliken charges =  -0.00000

 Dipole moment (field-independent basis, Debye):
    X=             -0.8907    Y=             -2.1209    Z=              1.2275  Tot=              2.6074
 Quadrupole moment (field-independent basis, Debye-Ang):
   XX=           -217.4503   YY=           -261.9651   ZZ=           -226.6798
   XY=             16.9030   XZ=             18.1374   YZ=             16.7034

 Normal termination of Gaussian 16 at Fri Nov  4 21:58:40 2022.
