 Gaussian 16, Revision B.01,
 Gaussian 16:  ES64L-G16RevB.01 20-Dec-2017

 -------------------------------------------------------------------
 #p b3lyp/6-31g(d) 6D 10F nosymm GFInput td=(50-50,nstate=2) SCF=XQC
 -------------------------------------------------------------------

 ------------------------------
 Gaussian input prepared by ASE
 ------------------------------
 Symbolic Z-matrix:
 Charge =  0 Multiplicity = 1

                          Input orientation:
 ---------------------------------------------------------------------
 Center     Atomic      Atomic             Coordinates (Angstroms)
 Number     Number       Type             X           Y           Z
 ---------------------------------------------------------------------
      1          6           0       -4.879615   -3.221548    1.935369
      2          6           0       -3.411984   -2.987489    1.582314
      3         16           0       -2.991396   -3.821044    0.012215
      4          8           0       -3.126314   -5.271261    0.226678
      5          8           0       -3.774196   -3.162316   -1.057367
      6          6           0       -1.237373   -3.451609   -0.200664
      7          6           0       -0.356757   -4.295785    0.483087
      8          6           0        1.015327   -4.063844    0.489966
      9          6           0        1.513611   -2.949485   -0.200049
     10          7           0        2.869322   -2.584372   -0.214520
     11          6           0        3.897746   -3.074582    0.567589
     12          8           0        3.813173   -4.066293    1.274134
     13          6           0        5.192336   -2.249643    0.478239
     14          8           0        5.110591   -0.990794    1.157674
     15          6           0        4.353024    0.016543    0.569685
     16          6           0        4.823407    0.695624   -0.568963
     17          6           0        6.161527    0.371399   -1.192864
     18          6           0        4.027357    1.728265   -1.082125
     19          6           0        2.800369    2.096999   -0.511460
     20          5           0        1.939441    3.284695   -1.103380
     21          8           0        2.546391    4.393352   -1.642180
     22          8           0        0.579944    3.293019   -1.102851
     23          6           0        2.393578    1.407140    0.642684
     24          6           0        3.156964    0.386092    1.214324
     25          6           0        2.733252   -0.289181    2.496474
     26          6           0        0.627629   -2.130108   -0.918622
     27          6           0       -0.745985   -2.356610   -0.942195
     28          6           0       -1.599862   -1.425892   -1.795824
     29          7           0       -2.492380   -0.558648   -1.042618
     30          6           0       -2.063045    0.598354   -0.486845
     31          8           0       -0.909960    1.014375   -0.583293
     32          8           0       -3.059580    1.200499    0.198871
     33          6           0       -2.830420    2.561853    0.667285
     34          6           0       -3.479783    3.565174   -0.251908
     35          6           0       -4.868954    3.749380   -0.217576
     36          6           0       -5.484583    4.658808   -1.075525
     37          6           0       -4.713367    5.398532   -1.976088
     38          6           0       -3.329688    5.222888   -2.013690
     39          6           0       -2.711966    4.308626   -1.157157
     40          1           0       -5.085795   -4.288946    2.052119
     41          1           0       -5.111178   -2.716813    2.878889
     42          1           0       -5.537817   -2.822772    1.158310
     43          1           0       -3.180420   -1.927416    1.440575
     44          1           0       -2.735304   -3.400341    2.336338
     45          1           0       -0.754643   -5.158020    1.008407
     46          1           0        1.690285   -4.716634    1.024587
     47          1           0        3.065969   -1.719751   -0.704937
     48          1           0        5.964762   -2.817476    0.996915
     49          1           0        5.486779   -2.113305   -0.570581
     50          1           0        6.094144   -0.423061   -1.948648
     51          1           0        6.570355    1.252740   -1.696920
     52          1           0        6.881116    0.044970   -0.435930
     53          1           0        4.389108    2.257163   -1.963818
     54          1           0        3.502506    4.374708   -1.503191
     55          1           0        0.152527    2.444784   -0.872029
     56          1           0        1.453931    1.675969    1.119428
     57          1           0        1.817526    0.167012    2.883711
     58          1           0        2.544824   -1.359998    2.362021
     59          1           0        3.511915   -0.203170    3.262304
     60          1           0        1.017416   -1.269552   -1.456759
     61          1           0       -2.219106   -2.007277   -2.478472
     62          1           0       -0.933999   -0.792021   -2.385697
     63          1           0       -3.454125   -0.847363   -0.927413
     64          1           0       -3.282007    2.580109    1.662383
     65          1           0       -1.755891    2.727681    0.752868
     66          1           0       -5.468960    3.175474    0.485471
     67          1           0       -6.562243    4.794915   -1.039311
     68          1           0       -5.191081    6.111705   -2.642843
     69          1           0       -2.725033    5.798247   -2.709476
     70          1           0       -1.633338    4.177326   -1.192910
 ---------------------------------------------------------------------

 SCF Done:  E(RB3LYP) =  -2181.98014841     A.U. after   15 cycles

 Excitation energies and oscillator strengths:

 Excited state symmetry could not be determined.
 Excited State   1:      Triplet-?Sym    3.3684 eV  368.08 nm  f=0.0000  <S**2>=2.000
     139 ->148         0.14103
     140 ->148        -0.16123
     140 ->149        -0.10506
     142 ->147        -0.22710
     145 ->147         0.51994
     146 ->147        -0.27567
 This state for optimization and/or second-order correction.
 Total Energy, E(TD-HF/TD-DFT) =  -2181.85636344
 Copying the excited state density for this state as the 1-particle RhoCI density.

 Excited state symmetry could not be determined.
 Excited State   2:      Triplet-?Sym    3.5495 eV  349.30 nm  f=0.0000  <S**2>=2.000
     141 ->149         0.10388
     142 ->150        -0.35957
     145 ->148        -0.10123
     145 ->149         0.14635
     145 ->150        -0.12860
     146 ->148        -0.30346
     146 ->149         0.40511

 Excited state symmetry could not be determined.
 Excited State   3:      Singlet-?Sym    4.3922 eV  282.28 nm  f=0.0093  <S**2>=0.000
     141 ->147        -0.28071
     141 ->153        -0.10453
     145 ->147         0.16842
     146 ->147         0.59127

 Excited state symmetry could not be determined.
 Excited State   4:      Singlet-?Sym    4.7591 eV  260.52 nm  f=0.0256  <S**2>=0.000
     140 ->147        -0.11156
     141 ->147        -0.27338
     142 ->147         0.49202
     145 ->147         0.28407
     146 ->147        -0.22933

 Alpha  occ. eigenvalues --  -89.09670 -19.19765 -19.18607 -19.14662 -19.14509
 Alpha  occ. eigenvalues --  -19.14503 -19.14137 -19.14135 -19.13504 -14.39891
 Alpha  occ. eigenvalues --  -14.37433 -10.35083 -10.31441 -10.26504 -10.26425
 Alpha  occ. eigenvalues --  -10.25295 -10.25157 -10.24151 -10.23417 -10.23295
 Alpha  occ. eigenvalues --  -10.23240 -10.21983 -10.21545 -10.21149 -10.20799
 Alpha  occ. eigenvalues --  -10.20673 -10.20108 -10.19942 -10.19902 -10.19719
 Alpha  occ. eigenvalues --  -10.19490 -10.19231 -10.19134 -10.19081 -10.18789
 Alpha  occ. eigenvalues --  -10.18760 -10.18551 -10.17772  -8.12591  -6.77448
 Alpha  occ. eigenvalues --   -6.09031  -6.08960  -6.08887  -1.11352  -1.09940
 Alpha  occ. eigenvalues --   -1.07394  -1.05629  -1.02484  -1.01597  -0.99726
 Alpha  occ. eigenvalues --   -0.98673  -0.96615  -0.94291  -0.87983  -0.86435
 Alpha  occ. eigenvalues --   -0.85487  -0.81027  -0.79732  -0.79420  -0.78664
 Alpha  occ. eigenvalues --   -0.77508  -0.76760  -0.74325  -0.73928  -0.72726
 Alpha  occ. eigenvalues --   -0.70447  -0.69058  -0.68757  -0.68227  -0.65252
 Alpha  occ. eigenvalues --   -0.64152  -0.61362  -0.60833  -0.60590  -0.59494
 Alpha  occ. eigenvalues --   -0.59213  -0.58762  -0.57916  -0.56827  -0.55967
 Alpha  occ. eigenvalues --   -0.55435  -0.53509  -0.52823  -0.51922  -0.51656
 Alpha  occ. eigenvalues --   -0.50406  -0.49318  -0.48909  -0.48658  -0.48488
 Alpha  occ. eigenvalues --   -0.48438  -0.48154  -0.47732  -0.47519  -0.46413
 Alpha  occ. eigenvalues --   -0.46049  -0.45607  -0.44782  -0.44475  -0.44277
 Alpha  occ. eigenvalues --   -0.44014  -0.43559  -0.43288  -0.42895  -0.42443
 Alpha  occ. eigenvalues --   -0.42344  -0.41877  -0.41750  -0.41421  -0.41223
 Alpha  occ. eigenvalues --   -0.41090  -0.40843  -0.40053  -0.39895  -0.39247
 Alpha  occ. eigenvalues --   -0.38534  -0.38388  -0.38048  -0.37999  -0.37618
 Alpha  occ. eigenvalues --   -0.36681  -0.36614  -0.36098  -0.36040  -0.35395
 Alpha  occ. eigenvalues --   -0.35118  -0.34138  -0.33616  -0.33373  -0.32677
 Alpha  occ. eigenvalues --   -0.31701  -0.31212  -0.30760  -0.30496  -0.30128
 Alpha  occ. eigenvalues --   -0.29854  -0.29449  -0.29021  -0.27702  -0.27088
 Alpha  occ. eigenvalues --   -0.26730  -0.25071  -0.24929  -0.24905  -0.24792
 Alpha  occ. eigenvalues --   -0.24048
 Alpha virt. eigenvalues --   -0.05462  -0.02880  -0.02435  -0.01328  -0.01114
 Alpha virt. eigenvalues --   -0.00005   0.00157   0.03397   0.05652   0.06060
 Alpha virt. eigenvalues --    0.06617   0.07392   0.08070   0.08786   0.09161

 Mulliken charges:
               1
     1  C   -0.464568
     2  C   -0.448998
     3  S    1.145097
     4  O   -0.543237
     5  O   -0.583114
     6  C   -0.223238
     7  C   -0.172563
     8  C   -0.153005
     9  C    0.369047
    10  N   -0.709124
    11  C    0.589893
    12  O   -0.482037
    13  C   -0.130389
    14  O   -0.516867
    15  C    0.165008
    16  C    0.177961
    17  C   -0.541319
    18  C   -0.300722
    19  C    0.071723
    20  B    0.372739
    21  O   -0.558316
    22  O   -0.585781
    23  C   -0.279312
    24  C    0.168229
    25  C   -0.525020
    26  C   -0.244454
    27  C    0.163767
    28  C   -0.225042
    29  N   -0.610787
    30  C    0.815154
    31  O   -0.551890
    32  O   -0.485147
    33  C   -0.154762
    34  C    0.147440
    35  C   -0.167198
    36  C   -0.130313
    37  C   -0.125525
    38  C   -0.137342
    39  C   -0.199512
    40  H    0.190192
    41  H    0.165703
    42  H    0.182624
    43  H    0.189884
    44  H    0.192571
    45  H    0.185769
    46  H    0.197493
    47  H    0.349524
    48  H    0.190514
    49  H    0.152162
    50  H    0.159549
    51  H    0.163745
    52  H    0.178944
    53  H    0.116012
    54  H    0.398473
    55  H    0.460415
    56  H    0.131520
    57  H    0.153479
    58  H    0.170548
    59  H    0.175577
    60  H    0.157225
    61  H    0.204483
    62  H    0.178608
    63  H    0.363759
    64  H    0.158236
    65  H    0.179706
    66  H    0.126497
    67  H    0.130750
    68  H    0.131692
    69  H    0.139388
    70  H    0.188487
 Sum of Mulliken charges =  -0.00000

 Dipole moment (field-independent basis, Debye):
    X=              1.6869    Y=              1.7401    Z=              0.9619  Tot=              2.6074
 Quadrupole moment (field-independent basis, Debye-Ang):
   XX=           -211.5223   YY=           -268.9497   ZZ=           -226.9753
   XY=            -11.4580   XZ=            -21.7895   YZ=             -0.0683

 Normal termination of Gaussian 16 at Sat Nov  5 12:07:01 2022.
