 Gaussian 16, Revision B.01,
 Gaussian 16:  ES64L-G16RevB.01 20-Dec-2017

 -----------------------------
 #p b3lyp/6-31g(d) opt SCF=XQC
 -----------------------------

 ------------------------------
 Gaussian input prepared by ASE
 ------------------------------
 Symbolic Z-matrix:
 Charge =  0 Multiplicity = 1

 SCF Done:  E(RB3LYP) =  -1147.76208709     A.U. after   15 cycles
 SCF Done:  E(RB3LYP) =  -1147.76777486     A.U. after   12 cycles
 SCF Done:  E(RB3LYP) =  -1147.76808243     A.U. after   11 cycles
 SCF Done:  E(RB3LYP) =  -1147.76810851     A.U. after   10 cycles
 SCF Done:  E(RB3LYP) =  -1147.76811247     A.U. after    9 cycles
 SCF Done:  E(RB3LYP) =  -1147.76811426     A.U. after    8 cycles
 SCF Done:  E(RB3LYP) =  -1147.76811526     A.U. after    9 cycles
 SCF Done:  E(RB3LYP) =  -1147.76811559     A.U. after    8 cycles
 SCF Done:  E(RB3LYP) =  -1147.76811575     A.U. after    7 cycles
 SCF Done:  E(RB3LYP) =  -1147.76811580     A.U. after    7 cycles
 Optimization completed.
    -- Stationary point found.

                         Standard orientation:
 ---------------------------------------------------------------------
 Center     Atomic      Atomic             Coordinates (Angstroms)
 Number     Number       Type             X           Y           Z
 ---------------------------------------------------------------------
      1          9           0        7.242300    0.269027   -1.032512
      2          6           0        5.993790    0.624867   -0.659450
      3          6           0        5.498428    1.860374   -1.054539
      4          6           0        4.202554    2.204695   -0.662179
      5          6           0        3.436269    1.330398    0.107764
      6          6           0        3.952616    0.086484    0.497615
      7          6           0        3.139014   -0.847169    1.377531
      8          7           0        1.755086   -0.991107    0.936515
      9          6           0        1.658440   -1.684211   -0.356349
     10          6           0        0.196336   -2.057558   -0.694211
     11          6           0       -0.761542   -1.128522    0.058772
     12          7           0       -2.156021   -1.282665   -0.363494
     13          6           0       -2.795777   -2.425341   -0.818858
     14          7           0       -4.070842   -2.266091   -1.058595
     15          6           0       -4.319937   -0.938968   -0.736323
     16          6           0       -5.526487   -0.211618   -0.801553
     17          7           0       -5.601131    1.069087   -0.452080
     18          6           0       -4.453938    1.627368   -0.031869
     19          7           0       -4.340516    2.938949    0.376585
     20          6           0       -3.040233    3.194269    0.750869
     21          6           0       -2.283414    2.057076    0.592046
     22          6           0       -3.162762    1.041351    0.091668
     23          6           0       -3.134769   -0.311917   -0.294292
     24          6           0       -0.595027   -1.346629    1.580414
     25          6           0        0.885516   -1.612665    1.936675
     26          6           0        5.246372   -0.266505    0.102913
     27          1           0        6.115141    2.522537   -1.653114
     28          1           0        3.792040    3.165469   -0.960662
     29          1           0        2.426554    1.596507    0.404688
     30          1           0        3.655356   -1.825452    1.443363
     31          1           0        3.115239   -0.439518    2.397033
     32          1           0        2.067590   -1.020083   -1.124455
     33          1           0        2.277217   -2.602427   -0.362964
     34          1           0        0.031763   -1.994022   -1.774773
     35          1           0        0.000341   -3.096191   -0.400719
     36          1           0       -0.487533   -0.098369   -0.183960
     37          1           0       -2.253234   -3.349610   -0.964592
     38          1           0       -6.438919   -0.693730   -1.145309
     39          1           0       -5.112682    3.587713    0.392583
     40          1           0       -2.749961    4.173455    1.104318
     41          1           0       -1.228291    1.971994    0.811282
     42          1           0       -0.970885   -0.466950    2.113495
     43          1           0       -1.212832   -2.198135    1.888785
     44          1           0        1.074474   -2.700850    2.021129
     45          1           0        1.118370   -1.182390    2.915994
     46          1           0        5.680808   -1.223094    0.378113
 ---------------------------------------------------------------------

 The electronic state is 1-A.
 Alpha  occ. eigenvalues --  -24.70558 -14.39001 -14.37804 -14.34132 -14.31671
 Alpha  occ. eigenvalues --  -14.31200 -10.27514 -10.24605 -10.24340 -10.23686
 Alpha  occ. eigenvalues --  -10.22724 -10.22447 -10.22411 -10.22312 -10.22143
 Alpha  occ. eigenvalues --  -10.20991 -10.20844 -10.20605 -10.20385 -10.19938
 Alpha  occ. eigenvalues --  -10.19929 -10.19865 -10.19667 -10.19384 -10.19146
 Alpha  occ. eigenvalues --  -10.18180  -1.21694  -1.01593  -0.98643  -0.94387
 Alpha  occ. eigenvalues --   -0.91266  -0.88982  -0.86618  -0.81392  -0.79700
 Alpha  occ. eigenvalues --   -0.77217  -0.76598  -0.75147  -0.74326  -0.72771
 Alpha  occ. eigenvalues --   -0.70211  -0.65849  -0.65164  -0.63512  -0.62036
 Alpha  occ. eigenvalues --   -0.61942  -0.60349  -0.59717  -0.58138  -0.56565
 Alpha  occ. eigenvalues --   -0.54203  -0.52965  -0.51656  -0.51240  -0.49689
 Alpha  occ. eigenvalues --   -0.49287  -0.49007  -0.48062  -0.46715  -0.45946
 Alpha  occ. eigenvalues --   -0.45597  -0.44921  -0.44455  -0.44384  -0.43504
 Alpha  occ. eigenvalues --   -0.43277  -0.43003  -0.41781  -0.41643  -0.40858
 Alpha  occ. eigenvalues --   -0.40524  -0.39623  -0.38981  -0.38827  -0.38467
 Alpha  occ. eigenvalues --   -0.37856  -0.37055  -0.36212  -0.35370  -0.34797
 Alpha  occ. eigenvalues --   -0.34358  -0.33834  -0.33098  -0.29291  -0.26988
 Alpha  occ. eigenvalues --   -0.26336  -0.26015  -0.25016  -0.24610  -0.22830
 Alpha  occ. eigenvalues --   -0.21039  -0.20314
 Alpha virt. eigenvalues --   -0.01481  -0.01275  -0.00438   0.01716   0.05342
 Alpha virt. eigenvalues --    0.06069   0.07172   0.07890   0.08674   0.09326
 Alpha virt. eigenvalues --    0.09974   0.11042   0.11853   0.12232   0.12699

 Mulliken charges:
               1
     1  F   -0.299485
     2  C    0.385834
     3  C   -0.197101
     4  C   -0.132192
     5  C   -0.164491
     6  C    0.143198
     7  C   -0.193399
     8  N   -0.408792
     9  C   -0.114962
    10  C   -0.327774
    11  C    0.031068
    12  N   -0.539322
    13  C    0.204259
    14  N   -0.510135
    15  C    0.186789
    16  C   -0.006069
    17  N   -0.520454
    18  C    0.456873
    19  N   -0.636459
    20  C    0.052941
    21  C   -0.249090
    22  C    0.115947
    23  C    0.271397
    24  C   -0.272893
    25  C   -0.129869
    26  C   -0.260665
    27  H    0.146862
    28  H    0.139591
    29  H    0.137561
    30  H    0.123276
    31  H    0.157396
    32  H    0.162819
    33  H    0.120980
    34  H    0.164860
    35  H    0.149658
    36  H    0.173755
    37  H    0.155767
    38  H    0.145175
    39  H    0.334044
    40  H    0.152173
    41  H    0.132767
    42  H    0.159701
    43  H    0.149152
    44  H    0.121071
    45  H    0.147567
    46  H    0.140672
 Sum of Mulliken charges =  -0.00000

 Dipole moment (field-independent basis, Debye):
    X=              3.4851    Y=              1.5089    Z=              2.2056  Tot=              4.3917
 Quadrupole moment (field-independent basis, Debye-Ang):
   XX=           -185.1453   YY=           -133.4115   ZZ=           -149.5722
   XY=            -13.8675   XZ=             -4.8578   YZ=             -1.6914

 Normal termination of Gaussian 16 at Fri Nov  4 19:49:15 2022.
