 Gaussian 16, Revision B.01,
 Gaussian 16:  ES64L-G16RevB.01 20-Dec-2017

 -------------------------------------------------------------------
 #p b3lyp/6-31g(d) 6D 10F nosymm GFInput td=(50-50,nstate=2) SCF=XQC
 -------------------------------------------------------------------

 ------------------------------
 Gaussian input prepared by ASE
 ------------------------------
 Symbolic Z-matrix:
 Charge =  0 Multiplicity = 1

                          Input orientation:
 ---------------------------------------------------------------------
 Center     Atomic      Atomic             Coordinates (Angstroms)
 Number     Number       Type             X           Y           Z
 ---------------------------------------------------------------------
      1          9           0        6.944468    0.337380   -1.805042
      2          6           0        5.686174    0.729648   -1.509412
      3          6           0        5.059762    1.659369   -2.328669
      4          6           0        3.756311    2.045850   -2.007041
      5          6           0        3.110942    1.513132   -0.891645
      6          6           0        3.758778    0.575031   -0.075436
      7          6           0        3.076876    0.030045    1.167909
      8          7           0        1.694088   -0.374397    0.933828
      9          6           0        1.604708   -1.540131    0.042589
     10          6           0        0.170345   -2.116487    0.001295
     11          6           0       -0.835549   -1.027663    0.388933
     12          7           0       -2.227028   -1.434442    0.176898
     13          6           0       -2.776622   -2.703676    0.273576
     14          7           0       -4.070511   -2.742569    0.092018
     15          6           0       -4.428247   -1.419704   -0.129830
     16          6           0       -5.699429   -0.865588   -0.386939
     17          7           0       -5.878079    0.437892   -0.579114
     18          6           0       -4.770556    1.195021   -0.512360
     19          7           0       -4.762400    2.563374   -0.678157
     20          6           0       -3.476262    3.036290   -0.543201
     21          6           0       -2.624013    1.987287   -0.289287
     22          6           0       -3.425839    0.799072   -0.265836
     23          6           0       -3.288423   -0.588507   -0.073944
     24          6           0       -0.580864   -0.593102    1.850776
     25          6           0        0.932660   -0.589945    2.165320
     26          6           0        5.060829    0.179561   -0.395534
     27          1           0        5.584003    2.058967   -3.190399
     28          1           0        3.244420    2.770706   -2.634138
     29          1           0        2.095132    1.808692   -0.648177
     30          1           0        3.685173   -0.798701    1.581592
     31          1           0        3.060948    0.816136    1.934680
     32          1           0        1.914686   -1.222006   -0.957994
     33          1           0        2.305981   -2.336915    0.357867
     34          1           0       -0.048017   -2.511345   -0.996272
     35          1           0        0.086103   -2.955093    0.703400
     36          1           0       -0.670633   -0.170777   -0.269674
     37          1           0       -2.156874   -3.567958    0.470532
     38          1           0       -6.577167   -1.506334   -0.433363
     39          1           0       -5.590523    3.108410   -0.864001
     40          1           0       -3.263508    4.091530   -0.639081
     41          1           0       -1.556755    2.070498   -0.138878
     42          1           0       -1.013185    0.400121    2.011666
     43          1           0       -1.101512   -1.283713    2.524438
     44          1           0        1.226504   -1.533160    2.666305
     45          1           0        1.168032    0.217597    2.865963
     46          1           0        5.595070   -0.549391    0.206751
 ---------------------------------------------------------------------

 SCF Done:  E(RB3LYP) =  -1147.76811627     A.U. after   15 cycles

 Excitation energies and oscillator strengths:

 Excited state symmetry could not be determined.
 Excited State   1:      Triplet-?Sym    3.2825 eV  377.71 nm  f=0.0000  <S**2>=2.000
      91 -> 96         0.16098
      92 -> 94         0.66725
 This state for optimization and/or second-order correction.
 Total Energy, E(TD-HF/TD-DFT) =  -1147.64748543
 Copying the excited state density for this state as the 1-particle RhoCI density.

 Excited state symmetry could not be determined.
 Excited State   2:      Triplet-?Sym    3.8100 eV  325.42 nm  f=0.0000  <S**2>=2.000
      91 -> 94         0.68668

 Excited state symmetry could not be determined.
 Excited State   3:      Singlet-?Sym    4.6862 eV  264.57 nm  f=0.0469  <S**2>=0.000
      91 -> 94         0.58476
      91 -> 96        -0.10680
      92 -> 94        -0.21996
      92 -> 96        -0.29388

 Excited state symmetry could not be determined.
 Excited State   4:      Singlet-?Sym    4.7770 eV  259.54 nm  f=0.0016  <S**2>=0.000
      92 -> 93         0.69913

 Alpha  occ. eigenvalues --  -24.70558 -14.39001 -14.37804 -14.34132 -14.31671
 Alpha  occ. eigenvalues --  -14.31200 -10.27515 -10.24605 -10.24340 -10.23686
 Alpha  occ. eigenvalues --  -10.22724 -10.22447 -10.22411 -10.22312 -10.22143
 Alpha  occ. eigenvalues --  -10.20991 -10.20844 -10.20605 -10.20385 -10.19938
 Alpha  occ. eigenvalues --  -10.19929 -10.19865 -10.19667 -10.19384 -10.19145
 Alpha  occ. eigenvalues --  -10.18179  -1.21694  -1.01593  -0.98643  -0.94387
 Alpha  occ. eigenvalues --   -0.91266  -0.88982  -0.86618  -0.81392  -0.79700
 Alpha  occ. eigenvalues --   -0.77217  -0.76598  -0.75147  -0.74326  -0.72771
 Alpha  occ. eigenvalues --   -0.70211  -0.65849  -0.65164  -0.63512  -0.62036
 Alpha  occ. eigenvalues --   -0.61942  -0.60349  -0.59717  -0.58138  -0.56565
 Alpha  occ. eigenvalues --   -0.54203  -0.52965  -0.51656  -0.51240  -0.49689
 Alpha  occ. eigenvalues --   -0.49287  -0.49007  -0.48062  -0.46715  -0.45946
 Alpha  occ. eigenvalues --   -0.45597  -0.44921  -0.44455  -0.44384  -0.43504
 Alpha  occ. eigenvalues --   -0.43277  -0.43003  -0.41781  -0.41643  -0.40858
 Alpha  occ. eigenvalues --   -0.40524  -0.39623  -0.38981  -0.38827  -0.38467
 Alpha  occ. eigenvalues --   -0.37856  -0.37055  -0.36212  -0.35370  -0.34797
 Alpha  occ. eigenvalues --   -0.34358  -0.33834  -0.33098  -0.29291  -0.26988
 Alpha  occ. eigenvalues --   -0.26336  -0.26015  -0.25016  -0.24610  -0.22830
 Alpha  occ. eigenvalues --   -0.21039  -0.20314
 Alpha virt. eigenvalues --   -0.01481  -0.01275  -0.00438   0.01716   0.05342
 Alpha virt. eigenvalues --    0.06069   0.07172   0.07890   0.08674   0.09326
 Alpha virt. eigenvalues --    0.09974   0.11042   0.11853   0.12232   0.12699

 Mulliken charges:
               1
     1  F   -0.299486
     2  C    0.385842
     3  C   -0.197114
     4  C   -0.132191
     5  C   -0.164477
     6  C    0.143179
     7  C   -0.193398
     8  N   -0.408794
     9  C   -0.114954
    10  C   -0.327772
    11  C    0.031070
    12  N   -0.539309
    13  C    0.204261
    14  N   -0.510138
    15  C    0.186776
    16  C   -0.006058
    17  N   -0.520457
    18  C    0.456881
    19  N   -0.636464
    20  C    0.052948
    21  C   -0.249096
    22  C    0.115932
    23  C    0.271394
    24  C   -0.272878
    25  C   -0.129890
    26  C   -0.260656
    27  H    0.146863
    28  H    0.139591
    29  H    0.137560
    30  H    0.123276
    31  H    0.157396
    32  H    0.162818
    33  H    0.120979
    34  H    0.164860
    35  H    0.149657
    36  H    0.173751
    37  H    0.155768
    38  H    0.145174
    39  H    0.334044
    40  H    0.152173
    41  H    0.132772
    42  H    0.159697
    43  H    0.149152
    44  H    0.121076
    45  H    0.147569
    46  H    0.140672
 Sum of Mulliken charges =  -0.00000

 Dipole moment (field-independent basis, Debye):
    X=              3.4241    Y=              2.5094    Z=              1.1251  Tot=              4.3917
 Quadrupole moment (field-independent basis, Debye-Ang):
   XX=           -183.7292   YY=           -139.4366   ZZ=           -146.5132
   XY=            -18.5992   XZ=              3.8423   YZ=             -6.0527

 Normal termination of Gaussian 16 at Sat Nov  5 11:59:01 2022.
