 Gaussian 16, Revision B.01,
 Gaussian 16:  ES64L-G16RevB.01 20-Dec-2017

 -----------------------------
 #p b3lyp/6-31g(d) opt SCF=XQC
 -----------------------------

 ------------------------------
 Gaussian input prepared by ASE
 ------------------------------
 Symbolic Z-matrix:
 Charge =  0 Multiplicity = 1

 SCF Done:  E(RB3LYP) =  -1134.59651788     A.U. after   15 cycles
 SCF Done:  E(RB3LYP) =  -1134.60387373     A.U. after   15 cycles
 SCF Done:  E(RB3LYP) =  -1134.60517023     A.U. after   13 cycles
 SCF Done:  E(RB3LYP) =  -1134.60647209     A.U. after   12 cycles
 SCF Done:  E(RB3LYP) =  -1134.60657405     A.U. after   11 cycles
 SCF Done:  E(RB3LYP) =  -1134.60664229     A.U. after   10 cycles
 SCF Done:  E(RB3LYP) =  -1134.60666018     A.U. after   10 cycles
 SCF Done:  E(RB3LYP) =  -1134.60666404     A.U. after    9 cycles
 SCF Done:  E(RB3LYP) =  -1134.60666498     A.U. after    7 cycles
 SCF Done:  E(RB3LYP) =  -1134.60666521     A.U. after    7 cycles
 SCF Done:  E(RB3LYP) =  -1134.60666524     A.U. after    7 cycles
 SCF Done:  E(RB3LYP) =  -1134.60666527     A.U. after    7 cycles
 SCF Done:  E(RB3LYP) =  -1134.60666528     A.U. after    7 cycles
 SCF Done:  E(RB3LYP) =  -1134.60666530     A.U. after    7 cycles
 SCF Done:  E(RB3LYP) =  -1134.60666531     A.U. after    7 cycles
 SCF Done:  E(RB3LYP) =  -1134.60666531     A.U. after    7 cycles
 SCF Done:  E(RB3LYP) =  -1134.60666530     A.U. after    7 cycles
 SCF Done:  E(RB3LYP) =  -1134.60666528     A.U. after    7 cycles
 SCF Done:  E(RB3LYP) =  -1134.60666527     A.U. after    7 cycles
 Optimization completed.
    -- Stationary point found.

                         Standard orientation:
 ---------------------------------------------------------------------
 Center     Atomic      Atomic             Coordinates (Angstroms)
 Number     Number       Type             X           Y           Z
 ---------------------------------------------------------------------
      1          6           0       -2.358258    4.367123    0.347484
      2          6           0       -3.491413    3.337569    0.175667
      3          6           0       -4.376189    3.686086   -1.036468
      4          6           0       -2.955813    1.914795    0.095097
      5          6           0       -2.103348    1.507954   -0.943555
      6          6           0       -1.620528    0.204932   -1.016555
      7          6           0       -1.970241   -0.747951   -0.042297
      8          6           0       -1.419831   -2.110852   -0.130851
      9          6           0       -0.120565   -2.526521   -0.428232
     10          6           0        1.072870   -1.710045   -0.820848
     11          8           0        1.504580   -1.778957   -1.974142
     12          7           0        1.658960   -0.904936    0.121091
     13          6           0        1.322346   -0.919536    1.549919
     14          6           0        1.513768    0.471094    2.163132
     15          6           0        2.959869    0.997123    1.974849
     16          6           0        3.738326    0.191132    0.910095
     17          6           0        5.049981    0.899057    0.456403
     18          6           0        4.968146    1.508424   -0.958579
     19          6           0        3.603707    2.164338   -1.206800
     20          6           0        2.448825    1.135720   -1.102526
     21          6           0        2.848245   -0.131153   -0.304136
     22          6           0       -0.187717   -3.935805   -0.424660
     23          7           0       -1.408130   -4.377091   -0.135113
     24          7           0       -2.150676   -3.259457    0.036778
     25          6           0       -3.571989   -3.411148    0.297078
     26          6           0       -2.815009   -0.343149    1.003298
     27          6           0       -3.299246    0.963452    1.062960
     28          1           0       -1.750018    4.144054    1.230899
     29          1           0       -2.769287    5.377104    0.461882
     30          1           0       -1.692381    4.375911   -0.523550
     31          1           0       -4.124632    3.392970    1.071734
     32          1           0       -4.798106    4.692288   -0.928652
     33          1           0       -3.800490    3.665068   -1.969320
     34          1           0       -5.205019    2.977375   -1.139735
     35          1           0       -1.816705    2.216389   -1.716739
     36          1           0       -0.975547   -0.090435   -1.838807
     37          1           0        1.947082   -1.654114    2.081412
     38          1           0        0.288393   -1.241363    1.664243
     39          1           0        1.250030    0.424073    3.226225
     40          1           0        0.795040    1.151295    1.691846
     41          1           0        2.932842    2.056686    1.694438
     42          1           0        3.515050    0.949391    2.920056
     43          1           0        4.013982   -0.767762    1.367203
     44          1           0        5.287338    1.693105    1.177015
     45          1           0        5.888568    0.193594    0.496219
     46          1           0        5.775771    2.238756   -1.091230
     47          1           0        5.135756    0.727401   -1.712240
     48          1           0        3.588506    2.650013   -2.189763
     49          1           0        3.461961    2.966390   -0.469449
     50          1           0        1.571424    1.597822   -0.635754
     51          1           0        2.133300    0.805021   -2.096647
     52          1           0        3.405973   -0.786346   -0.980333
     53          1           0        0.610957   -4.638624   -0.621817
     54          1           0       -3.778923   -3.469270    1.371887
     55          1           0       -3.896056   -4.338919   -0.176032
     56          1           0       -4.117857   -2.566946   -0.128077
     57          1           0       -3.079603   -1.045712    1.788647
     58          1           0       -3.950686    1.250992    1.885428
 ---------------------------------------------------------------------

 The electronic state is 1-A.
 Alpha  occ. eigenvalues --  -19.09682 -14.40925 -14.35072 -14.34102 -10.27537
 Alpha  occ. eigenvalues --  -10.22799 -10.22751 -10.21645 -10.20988 -10.20988
 Alpha  occ. eigenvalues --  -10.20166 -10.20119 -10.20026 -10.19805 -10.19574
 Alpha  occ. eigenvalues --  -10.19573 -10.19396 -10.18743 -10.18586 -10.18233
 Alpha  occ. eigenvalues --  -10.18187 -10.18166 -10.18114 -10.17960 -10.17691
 Alpha  occ. eigenvalues --  -10.17623 -10.16976  -1.04236  -1.01598  -0.92331
 Alpha  occ. eigenvalues --   -0.86905  -0.83775  -0.82535  -0.81542  -0.78711
 Alpha  occ. eigenvalues --   -0.78463  -0.75112  -0.74190  -0.73410  -0.72737
 Alpha  occ. eigenvalues --   -0.70448  -0.68826  -0.67107  -0.63654  -0.63142
 Alpha  occ. eigenvalues --   -0.62330  -0.61443  -0.59679  -0.57448  -0.56954
 Alpha  occ. eigenvalues --   -0.56237  -0.54883  -0.53007  -0.51245  -0.50091
 Alpha  occ. eigenvalues --   -0.48328  -0.47940  -0.47442  -0.46864  -0.46546
 Alpha  occ. eigenvalues --   -0.45708  -0.44597  -0.43530  -0.43268  -0.43176
 Alpha  occ. eigenvalues --   -0.42926  -0.42528  -0.42005  -0.41923  -0.41746
 Alpha  occ. eigenvalues --   -0.40676  -0.40086  -0.39321  -0.39257  -0.39130
 Alpha  occ. eigenvalues --   -0.38524  -0.37641  -0.37279  -0.36860  -0.36593
 Alpha  occ. eigenvalues --   -0.36013  -0.35512  -0.34609  -0.34459  -0.33892
 Alpha  occ. eigenvalues --   -0.33163  -0.33058  -0.32967  -0.32913  -0.30343
 Alpha  occ. eigenvalues --   -0.29683  -0.28965  -0.28625  -0.26702  -0.25773
 Alpha  occ. eigenvalues --   -0.25359  -0.23112  -0.22486  -0.21612
 Alpha virt. eigenvalues --   -0.02584  -0.00988   0.02550   0.03538   0.06669
 Alpha virt. eigenvalues --    0.07981   0.08155   0.09007   0.09440   0.10782
 Alpha virt. eigenvalues --    0.10883   0.12090   0.12307   0.13129   0.13348

 Mulliken charges:
               1
     1  C   -0.439924
     2  C   -0.162091
     3  C   -0.439499
     4  C    0.194415
     5  C   -0.197525
     6  C   -0.172632
     7  C    0.094619
     8  C    0.281850
     9  C   -0.105012
    10  C    0.503975
    11  O   -0.528570
    12  N   -0.443791
    13  C   -0.134138
    14  C   -0.285771
    15  C   -0.280952
    16  C   -0.105622
    17  C   -0.279607
    18  C   -0.264766
    19  C   -0.269845
    20  C   -0.278487
    21  C    0.042597
    22  C    0.041603
    23  N   -0.297146
    24  N   -0.325953
    25  C   -0.317473
    26  C   -0.167837
    27  C   -0.206604
    28  H    0.148798
    29  H    0.144531
    30  H    0.146177
    31  H    0.129834
    32  H    0.144270
    33  H    0.146488
    34  H    0.150296
    35  H    0.133849
    36  H    0.169079
    37  H    0.142489
    38  H    0.164634
    39  H    0.138679
    40  H    0.155658
    41  H    0.141652
    42  H    0.136029
    43  H    0.130849
    44  H    0.134534
    45  H    0.135524
    46  H    0.130831
    47  H    0.141378
    48  H    0.135178
    49  H    0.129435
    50  H    0.134937
    51  H    0.165185
    52  H    0.162204
    53  H    0.150168
    54  H    0.168701
    55  H    0.193193
    56  H    0.179338
    57  H    0.132914
    58  H    0.127349
 Sum of Mulliken charges =  -0.00000

 Dipole moment (field-independent basis, Debye):
    X=             -1.8242    Y=              3.5765    Z=              3.4433  Tot=              5.2892
 Quadrupole moment (field-independent basis, Debye-Ang):
   XX=           -146.5196   YY=           -168.6700   ZZ=           -164.6296
   XY=              0.4260   XZ=              1.3874   YZ=             -7.3118

 Normal termination of Gaussian 16 at Fri Nov  4 20:29:08 2022.
