 Gaussian 16, Revision B.01,
 Gaussian 16:  ES64L-G16RevB.01 20-Dec-2017

 -------------------------------------------------------------------
 #p b3lyp/6-31g(d) 6D 10F nosymm GFInput td=(50-50,nstate=2) SCF=XQC
 -------------------------------------------------------------------

 ------------------------------
 Gaussian input prepared by ASE
 ------------------------------
 Symbolic Z-matrix:
 Charge =  0 Multiplicity = 1

                          Input orientation:
 ---------------------------------------------------------------------
 Center     Atomic      Atomic             Coordinates (Angstroms)
 Number     Number       Type             X           Y           Z
 ---------------------------------------------------------------------
      1          6           0        2.704249    0.516107   -3.727317
      2          6           0        3.621953   -0.328170   -2.822576
      3          6           0        4.977892    0.370043   -2.604646
      4          6           0        2.947944   -0.679935   -1.503631
      5          6           0        2.557972    0.312022   -0.589872
      6          6           0        1.947234   -0.014169    0.617152
      7          6           0        1.695900   -1.356058    0.957200
      8          6           0        1.021691   -1.667642    2.228676
      9          6           0       -0.080338   -1.050991    2.824141
     10          6           0       -0.848900    0.156608    2.381325
     11          8           0       -0.760454    1.204328    3.026049
     12          7           0       -1.638289    0.062067    1.264688
     13          6           0       -1.940992   -1.193536    0.566903
     14          6           0       -2.145248   -0.942533   -0.930361
     15          6           0       -3.272211    0.087245   -1.200323
     16          6           0       -3.649577    0.883362    0.069760
     17          6           0       -4.515525    2.140813   -0.240693
     18          6           0       -3.749029    3.472107   -0.098071
     19          6           0       -2.320580    3.356241   -0.645463
     20          6           0       -1.499432    2.290352    0.124133
     21          6           0       -2.396324    1.273333    0.874589
     22          6           0       -0.249422   -1.729646    4.049475
     23          7           0        0.647145   -2.697990    4.212130
     24          7           0        1.418246   -2.648479    3.101735
     25          6           0        2.553231   -3.551020    3.011589
     26          6           0        2.075751   -2.350864    0.042410
     27          6           0        2.693941   -2.013402   -1.161422
     28          1           0        1.753693    0.005131   -3.915691
     29          1           0        3.186169    0.708090   -4.693231
     30          1           0        2.477476    1.486586   -3.270245
     31          1           0        3.819405   -1.273941   -3.345552
     32          1           0        5.471691    0.560508   -3.564837
     33          1           0        4.852814    1.334260   -2.097967
     34          1           0        5.646871   -0.244401   -1.992420
     35          1           0        2.741588    1.359112   -0.817351
     36          1           0        1.669496    0.770060    1.315141
     37          1           0       -2.840864   -1.660945    0.996021
     38          1           0       -1.117921   -1.889325    0.722250
     39          1           0       -2.364444   -1.899230   -1.418846
     40          1           0       -1.195559   -0.588206   -1.347371
     41          1           0       -2.959089    0.776603   -1.993275
     42          1           0       -4.173073   -0.414509   -1.575302
     43          1           0       -4.242727    0.214929    0.706770
     44          1           0       -4.902277    2.056187   -1.265092
     45          1           0       -5.394855    2.160155    0.414208
     46          1           0       -4.296373    4.268487   -0.617140
     47          1           0       -3.707828    3.768422    0.958619
     48          1           0       -1.815224    4.328195   -0.598028
     49          1           0       -2.374617    3.093626   -1.710910
     50          1           0       -0.837778    1.752511   -0.564480
     51          1           0       -0.853062    2.762957    0.869817
     52          1           0       -2.715679    1.741428    1.810794
     53          1           0       -0.993034   -1.544584    4.813345
     54          1           0        2.276601   -4.496528    2.531065
     55          1           0        2.891724   -3.756672    4.027827
     56          1           0        3.355671   -3.080041    2.440910
     57          1           0        1.868281   -3.394802    0.260416
     58          1           0        2.976091   -2.804261   -1.853117
 ---------------------------------------------------------------------

 SCF Done:  E(RB3LYP) =  -1134.60664855     A.U. after   16 cycles

 Excitation energies and oscillator strengths:

 Excited state symmetry could not be determined.
 Excited State   1:      Triplet-?Sym    3.3830 eV  366.50 nm  f=0.0000  <S**2>=2.000
      94 ->100         0.12577
      94 ->103         0.11490
      95 ->101         0.26374
      97 ->100         0.28960
      98 ->100        -0.20194
      99 ->100         0.50561
 This state for optimization and/or second-order correction.
 Total Energy, E(TD-HF/TD-DFT) =  -1134.48232713
 Copying the excited state density for this state as the 1-particle RhoCI density.

 Excited state symmetry could not be determined.
 Excited State   2:      Triplet-?Sym    4.1055 eV  302.00 nm  f=0.0000  <S**2>=2.000
      94 ->100        -0.28249
      95 ->101        -0.38004
      97 ->100        -0.17264
      97 ->103        -0.12114
      99 ->100         0.32395
      99 ->102        -0.18365
      99 ->103        -0.18384

 Excited state symmetry could not be determined.
 Excited State   3:      Singlet-?Sym    4.5736 eV  271.09 nm  f=0.1087  <S**2>=0.000
      97 ->100        -0.12800
      98 ->100         0.15490
      99 ->100         0.66457

 Excited state symmetry could not be determined.
 Excited State   4:      Singlet-?Sym    4.7885 eV  258.92 nm  f=0.0382  <S**2>=0.000
      97 ->100         0.20783
      98 ->100         0.64830
      99 ->100        -0.10543

 Alpha  occ. eigenvalues --  -19.09682 -14.40925 -14.35072 -14.34102 -10.27537
 Alpha  occ. eigenvalues --  -10.22799 -10.22751 -10.21645 -10.20988 -10.20988
 Alpha  occ. eigenvalues --  -10.20166 -10.20119 -10.20026 -10.19805 -10.19574
 Alpha  occ. eigenvalues --  -10.19573 -10.19396 -10.18743 -10.18586 -10.18233
 Alpha  occ. eigenvalues --  -10.18187 -10.18166 -10.18114 -10.17960 -10.17690
 Alpha  occ. eigenvalues --  -10.17623 -10.16976  -1.04236  -1.01599  -0.92331
 Alpha  occ. eigenvalues --   -0.86905  -0.83775  -0.82535  -0.81542  -0.78711
 Alpha  occ. eigenvalues --   -0.78463  -0.75113  -0.74190  -0.73410  -0.72737
 Alpha  occ. eigenvalues --   -0.70448  -0.68826  -0.67107  -0.63654  -0.63142
 Alpha  occ. eigenvalues --   -0.62330  -0.61443  -0.59679  -0.57448  -0.56954
 Alpha  occ. eigenvalues --   -0.56237  -0.54883  -0.53006  -0.51245  -0.50091
 Alpha  occ. eigenvalues --   -0.48328  -0.47940  -0.47442  -0.46864  -0.46546
 Alpha  occ. eigenvalues --   -0.45708  -0.44597  -0.43530  -0.43268  -0.43176
 Alpha  occ. eigenvalues --   -0.42926  -0.42528  -0.42005  -0.41924  -0.41746
 Alpha  occ. eigenvalues --   -0.40676  -0.40086  -0.39321  -0.39257  -0.39130
 Alpha  occ. eigenvalues --   -0.38524  -0.37641  -0.37279  -0.36860  -0.36593
 Alpha  occ. eigenvalues --   -0.36013  -0.35512  -0.34609  -0.34459  -0.33892
 Alpha  occ. eigenvalues --   -0.33163  -0.33058  -0.32967  -0.32913  -0.30343
 Alpha  occ. eigenvalues --   -0.29683  -0.28965  -0.28625  -0.26702  -0.25773
 Alpha  occ. eigenvalues --   -0.25359  -0.23112  -0.22486  -0.21612
 Alpha virt. eigenvalues --   -0.02584  -0.00988   0.02550   0.03538   0.06669
 Alpha virt. eigenvalues --    0.07981   0.08155   0.09008   0.09440   0.10782
 Alpha virt. eigenvalues --    0.10883   0.12090   0.12307   0.13129   0.13348

 Mulliken charges:
               1
     1  C   -0.439909
     2  C   -0.162096
     3  C   -0.439511
     4  C    0.194426
     5  C   -0.197539
     6  C   -0.172640
     7  C    0.094632
     8  C    0.281843
     9  C   -0.105006
    10  C    0.503989
    11  O   -0.528573
    12  N   -0.443808
    13  C   -0.134151
    14  C   -0.285756
    15  C   -0.280947
    16  C   -0.105592
    17  C   -0.279613
    18  C   -0.264745
    19  C   -0.269876
    20  C   -0.278462
    21  C    0.042592
    22  C    0.041600
    23  N   -0.297147
    24  N   -0.325945
    25  C   -0.317471
    26  C   -0.167849
    27  C   -0.206596
    28  H    0.148794
    29  H    0.144529
    30  H    0.146175
    31  H    0.129834
    32  H    0.144273
    33  H    0.146490
    34  H    0.150298
    35  H    0.133850
    36  H    0.169079
    37  H    0.142489
    38  H    0.164635
    39  H    0.138675
    40  H    0.155655
    41  H    0.141650
    42  H    0.136026
    43  H    0.130846
    44  H    0.134530
    45  H    0.135522
    46  H    0.130829
    47  H    0.141373
    48  H    0.135180
    49  H    0.129436
    50  H    0.134935
    51  H    0.165182
    52  H    0.162203
    53  H    0.150168
    54  H    0.168701
    55  H    0.193193
    56  H    0.179338
    57  H    0.132916
    58  H    0.127349
 Sum of Mulliken charges =  -0.00000

 Dipole moment (field-independent basis, Debye):
    X=              0.7582    Y=             -1.8212    Z=             -4.9076  Tot=              5.2892
 Quadrupole moment (field-independent basis, Debye-Ang):
   XX=           -148.3277   YY=           -156.8952   ZZ=           -178.0280
   XY=             -4.8309   XZ=             -1.6435   YZ=             -1.5884

 Normal termination of Gaussian 16 at Sat Nov  5 12:22:21 2022.
