 Gaussian 16, Revision B.01,
 Gaussian 16:  ES64L-G16RevB.01 20-Dec-2017

 -----------------------------
 #p b3lyp/6-31g(d) opt SCF=XQC
 -----------------------------

 ------------------------------
 Gaussian input prepared by ASE
 ------------------------------
 Symbolic Z-matrix:
 Charge =  0 Multiplicity = 1

 SCF Done:  E(RB3LYP) =  -711.798411179     A.U. after   14 cycles
 SCF Done:  E(RB3LYP) =  -711.801116249     A.U. after   13 cycles
 SCF Done:  E(RB3LYP) =  -711.801802345     A.U. after   12 cycles
 SCF Done:  E(RB3LYP) =  -711.801927167     A.U. after   11 cycles
 SCF Done:  E(RB3LYP) =  -711.801950052     A.U. after   10 cycles
 SCF Done:  E(RB3LYP) =  -711.801957819     A.U. after   10 cycles
 SCF Done:  E(RB3LYP) =  -711.801958788     A.U. after    8 cycles
 SCF Done:  E(RB3LYP) =  -711.801959622     A.U. after    8 cycles
 SCF Done:  E(RB3LYP) =  -711.801960268     A.U. after    8 cycles
 SCF Done:  E(RB3LYP) =  -711.801961124     A.U. after    9 cycles
 SCF Done:  E(RB3LYP) =  -711.801962782     A.U. after    7 cycles
 SCF Done:  E(RB3LYP) =  -711.801962799     A.U. after    6 cycles
 SCF Done:  E(RB3LYP) =  -711.801962813     A.U. after    6 cycles
 SCF Done:  E(RB3LYP) =  -711.801962830     A.U. after    6 cycles
 SCF Done:  E(RB3LYP) =  -711.801962854     A.U. after    6 cycles
 SCF Done:  E(RB3LYP) =  -711.801962892     A.U. after    7 cycles
 SCF Done:  E(RB3LYP) =  -711.801962950     A.U. after    7 cycles
 SCF Done:  E(RB3LYP) =  -711.801963032     A.U. after    8 cycles
 SCF Done:  E(RB3LYP) =  -711.801963127     A.U. after    8 cycles
 SCF Done:  E(RB3LYP) =  -711.801963180     A.U. after    7 cycles
 Optimization completed.
    -- Stationary point found.

                         Standard orientation:
 ---------------------------------------------------------------------
 Center     Atomic      Atomic             Coordinates (Angstroms)
 Number     Number       Type             X           Y           Z
 ---------------------------------------------------------------------
      1          6           0       -5.178353    1.705395   -0.574230
      2          6           0       -3.977766    0.853230   -0.232399
      3          6           0       -3.750062    0.413376    1.077734
      4          6           0       -2.656434   -0.391387    1.394651
      5          6           0       -1.768484   -0.775883    0.390217
      6          8           0       -0.750680   -1.642223    0.746486
      7          6           0        0.527440   -1.476883    0.249000
      8          6           0        1.272488   -2.641625    0.052192
      9          6           0        2.592065   -2.536593   -0.382749
     10          6           0        3.162107   -1.285838   -0.625001
     11          6           0        2.418904   -0.114842   -0.425071
     12          6           0        3.043330    1.248468   -0.630972
     13          6           0        3.688154    1.805558    0.650007
     14          7           0        4.232019    3.145203    0.402612
     15          6           0        1.094512   -0.221089    0.018615
     16          6           0       -1.974749   -0.356768   -0.926810
     17          6           0       -3.068640    0.455211   -1.222194
     18          1           0       -5.521318    2.280010    0.292733
     19          1           0       -4.952349    2.413650   -1.378920
     20          1           0       -6.023870    1.090942   -0.912137
     21          1           0       -4.435681    0.709671    1.868470
     22          1           0       -2.479310   -0.728483    2.411224
     23          1           0        0.807043   -3.603729    0.240630
     24          1           0        3.176109   -3.439078   -0.542930
     25          1           0        4.189223   -1.216364   -0.975149
     26          1           0        3.810470    1.187749   -1.415458
     27          1           0        2.294961    1.970976   -0.975524
     28          1           0        4.428209    1.074867    1.023694
     29          1           0        2.918173    1.893437    1.426151
     30          1           0        4.595369    3.534537    1.271162
     31          1           0        5.030247    3.077828   -0.228507
     32          1           0        0.503077    0.674659    0.183246
     33          1           0       -1.285586   -0.661792   -1.707681
     34          1           0       -3.220536    0.780503   -2.249118
 ---------------------------------------------------------------------

 The electronic state is 1-A.
 Alpha  occ. eigenvalues --  -19.18135 -14.31103 -10.24596 -10.24421 -10.20659
 Alpha  occ. eigenvalues --  -10.19510 -10.19280 -10.18913 -10.18793 -10.18733
 Alpha  occ. eigenvalues --  -10.18721 -10.18525 -10.18346 -10.18297 -10.18287
 Alpha  occ. eigenvalues --  -10.18251 -10.18130  -1.06996  -0.87837  -0.85769
 Alpha  occ. eigenvalues --   -0.84586  -0.78027  -0.76411  -0.74564  -0.73509
 Alpha  occ. eigenvalues --   -0.70657  -0.67880  -0.62122  -0.61927  -0.60747
 Alpha  occ. eigenvalues --   -0.58279  -0.56576  -0.53497  -0.49771  -0.48325
 Alpha  occ. eigenvalues --   -0.47781  -0.47271  -0.46540  -0.45111  -0.43880
 Alpha  occ. eigenvalues --   -0.42979  -0.41966  -0.41955  -0.41614  -0.40549
 Alpha  occ. eigenvalues --   -0.39385  -0.38792  -0.37840  -0.37204  -0.35856
 Alpha  occ. eigenvalues --   -0.35300  -0.34799  -0.34259  -0.33675  -0.32637
 Alpha  occ. eigenvalues --   -0.31385  -0.25112  -0.24433  -0.23760  -0.23207
 Alpha  occ. eigenvalues --   -0.20977
 Alpha virt. eigenvalues --   -0.00540   0.00108   0.00637   0.01774   0.08287
 Alpha virt. eigenvalues --    0.09327   0.09953   0.12376   0.12795   0.12919
 Alpha virt. eigenvalues --    0.13728   0.14482   0.14715   0.16271   0.16979

 Mulliken charges:
               1
     1  C   -0.530014
     2  C    0.181478
     3  C   -0.190364
     4  C   -0.169591
     5  C    0.341456
     6  O   -0.580530
     7  C    0.352062
     8  C   -0.176101
     9  C   -0.135814
    10  C   -0.181764
    11  C    0.161849
    12  C   -0.340166
    13  C   -0.130533
    14  N   -0.714631
    15  C   -0.229993
    16  C   -0.161358
    17  C   -0.189717
    18  H    0.155709
    19  H    0.156910
    20  H    0.164820
    21  H    0.125194
    22  H    0.139503
    23  H    0.138660
    24  H    0.130667
    25  H    0.118401
    26  H    0.134206
    27  H    0.158642
    28  H    0.119142
    29  H    0.146087
    30  H    0.297155
    31  H    0.291677
    32  H    0.144532
    33  H    0.146416
    34  H    0.126011
 Sum of Mulliken charges =  -0.00000

 Dipole moment (field-independent basis, Debye):
    X=              0.9752    Y=              0.5508    Z=             -0.1102  Tot=              1.1254
 Quadrupole moment (field-independent basis, Debye-Ang):
   XX=            -81.2358   YY=           -102.5744   ZZ=            -97.0314
   XY=             -2.4889   XZ=              0.7144   YZ=              2.4966

 Normal termination of Gaussian 16 at Fri Nov  4 19:53:26 2022.
