 Gaussian 16, Revision B.01,
 Gaussian 16:  ES64L-G16RevB.01 20-Dec-2017

 -------------------------------------------------------------------
 #p b3lyp/6-31g(d) 6D 10F nosymm GFInput td=(50-50,nstate=2) SCF=XQC
 -------------------------------------------------------------------

 ------------------------------
 Gaussian input prepared by ASE
 ------------------------------
 Symbolic Z-matrix:
 Charge =  0 Multiplicity = 1

                          Input orientation:
 ---------------------------------------------------------------------
 Center     Atomic      Atomic             Coordinates (Angstroms)
 Number     Number       Type             X           Y           Z
 ---------------------------------------------------------------------
      1          6           0        5.130871    1.393552    1.217961
      2          6           0        3.946642    1.033990    0.350344
      3          6           0        3.464477    1.919532   -0.621818
      4          6           0        2.386503    1.584097   -1.440084
      5          6           0        1.773133    0.339627   -1.297777
      6          8           0        0.764431    0.028245   -2.191622
      7          6           0       -0.379381   -0.622308   -1.771035
      8          6           0       -0.979067   -1.482529   -2.693449
      9          6           0       -2.172907   -2.115341   -2.353175
     10          6           0       -2.760456   -1.898934   -1.105787
     11          6           0       -2.163694   -1.033650   -0.179121
     12          6           0       -2.820049   -0.748156    1.154524
     13          6           0       -3.770770    0.460304    1.101554
     14          7           0       -4.337909    0.717862    2.429583
     15          6           0       -0.967032   -0.392706   -0.524594
     16          6           0        2.237426   -0.566044   -0.340200
     17          6           0        3.310365   -0.208701    0.474826
     18          1           0        5.231596    2.478506    1.328243
     19          1           0        5.040732    0.960688    2.220325
     20          1           0        6.071032    1.021766    0.788421
     21          1           0        3.934749    2.893304   -0.739039
     22          1           0        2.011655    2.272986   -2.190648
     23          1           0       -0.501364   -1.640987   -3.654950
     24          1           0       -2.642424   -2.790076   -3.064182
     25          1           0       -3.686267   -2.407005   -0.846679
     26          1           0       -3.387388   -1.630337    1.482386
     27          1           0       -2.065958   -0.552598    1.925169
     28          1           0       -4.522686    0.288225    0.310198
     29          1           0       -3.200705    1.348014    0.801572
     30          1           0       -4.911509    1.559383    2.401163
     31          1           0       -4.969121   -0.041707    2.683835
     32          1           0       -0.490848    0.284578    0.178114
     33          1           0        1.762121   -1.535980   -0.235064
     34          1           0        3.663803   -0.917601    1.220481
 ---------------------------------------------------------------------

 SCF Done:  E(RB3LYP) =  -711.801962041     A.U. after   14 cycles

 Excitation energies and oscillator strengths:

 Excited state symmetry could not be determined.
 Excited State   1:      Triplet-?Sym    3.6026 eV  344.15 nm  f=0.0000  <S**2>=2.000
      57 -> 62         0.12951
      57 -> 64        -0.23336
      58 -> 62        -0.25547
      58 -> 65        -0.10948
      59 -> 65        -0.23413
      61 -> 63         0.49988
 This state for optimization and/or second-order correction.
 Total Energy, E(TD-HF/TD-DFT) =  -711.669567698
 Copying the excited state density for this state as the 1-particle RhoCI density.

 Excited state symmetry could not be determined.
 Excited State   2:      Triplet-?Sym    3.7198 eV  333.31 nm  f=0.0000  <S**2>=2.000
      57 -> 62        -0.28310
      58 -> 63        -0.15520
      58 -> 64        -0.26059
      59 -> 62         0.10843
      59 -> 63        -0.30707
      59 -> 64         0.13566
      60 -> 64        -0.11415
      61 -> 65         0.39894

 Excited state symmetry could not be determined.
 Excited State   3:      Singlet-?Sym    4.8265 eV  256.88 nm  f=0.0148  <S**2>=0.000
      57 -> 65         0.11230
      58 -> 63         0.16397
      61 -> 62         0.66462

 Excited state symmetry could not be determined.
 Excited State   4:      Singlet-?Sym    5.1098 eV  242.64 nm  f=0.0342  <S**2>=0.000
      57 -> 63         0.20407
      58 -> 65         0.15583
      59 -> 62        -0.10479
      61 -> 63         0.21615
      61 -> 64         0.58971

 Alpha  occ. eigenvalues --  -19.18135 -14.31103 -10.24596 -10.24421 -10.20659
 Alpha  occ. eigenvalues --  -10.19510 -10.19280 -10.18913 -10.18793 -10.18732
 Alpha  occ. eigenvalues --  -10.18721 -10.18525 -10.18346 -10.18297 -10.18287
 Alpha  occ. eigenvalues --  -10.18251 -10.18130  -1.06996  -0.87837  -0.85769
 Alpha  occ. eigenvalues --   -0.84586  -0.78027  -0.76411  -0.74564  -0.73509
 Alpha  occ. eigenvalues --   -0.70657  -0.67880  -0.62122  -0.61927  -0.60747
 Alpha  occ. eigenvalues --   -0.58279  -0.56576  -0.53497  -0.49771  -0.48325
 Alpha  occ. eigenvalues --   -0.47781  -0.47271  -0.46540  -0.45111  -0.43880
 Alpha  occ. eigenvalues --   -0.42979  -0.41966  -0.41955  -0.41614  -0.40549
 Alpha  occ. eigenvalues --   -0.39385  -0.38792  -0.37840  -0.37204  -0.35856
 Alpha  occ. eigenvalues --   -0.35300  -0.34799  -0.34259  -0.33675  -0.32637
 Alpha  occ. eigenvalues --   -0.31385  -0.25112  -0.24433  -0.23760  -0.23207
 Alpha  occ. eigenvalues --   -0.20977
 Alpha virt. eigenvalues --   -0.00540   0.00108   0.00637   0.01774   0.08287
 Alpha virt. eigenvalues --    0.09327   0.09953   0.12376   0.12795   0.12919
 Alpha virt. eigenvalues --    0.13728   0.14482   0.14715   0.16271   0.16979

 Mulliken charges:
               1
     1  C   -0.530019
     2  C    0.181480
     3  C   -0.190351
     4  C   -0.169599
     5  C    0.341442
     6  O   -0.580524
     7  C    0.352057
     8  C   -0.176098
     9  C   -0.135819
    10  C   -0.181759
    11  C    0.161855
    12  C   -0.340165
    13  C   -0.130536
    14  N   -0.714630
    15  C   -0.230000
    16  C   -0.161339
    17  C   -0.189727
    18  H    0.155710
    19  H    0.156910
    20  H    0.164820
    21  H    0.125192
    22  H    0.139504
    23  H    0.138660
    24  H    0.130668
    25  H    0.118401
    26  H    0.134205
    27  H    0.158643
    28  H    0.119142
    29  H    0.146087
    30  H    0.297155
    31  H    0.291677
    32  H    0.144532
    33  H    0.146413
    34  H    0.126012
 Sum of Mulliken charges =  -0.00000

 Dipole moment (field-independent basis, Debye):
    X=             -0.9622    Y=             -0.0741    Z=              0.5790  Tot=              1.1254
 Quadrupole moment (field-independent basis, Debye-Ang):
   XX=            -82.2367   YY=            -95.1385   ZZ=           -104.0417
   XY=              3.8274   XZ=              2.2017   YZ=             -0.3572

 Normal termination of Gaussian 16 at Sat Nov  5 11:55:35 2022.
