 Gaussian 16, Revision B.01,
 Gaussian 16:  ES64L-G16RevB.01 20-Dec-2017

 -----------------------------
 #p b3lyp/6-31g(d) opt SCF=XQC
 -----------------------------

 ------------------------------
 Gaussian input prepared by ASE
 ------------------------------
 Symbolic Z-matrix:
 Charge =  0 Multiplicity = 1

 SCF Done:  E(RB3LYP) =  -1243.17593570     A.U. after   15 cycles
 SCF Done:  E(RB3LYP) =  -1243.18245138     A.U. after   13 cycles
 SCF Done:  E(RB3LYP) =  -1243.18318506     A.U. after   12 cycles
 SCF Done:  E(RB3LYP) =  -1243.18336124     A.U. after   12 cycles
 SCF Done:  E(RB3LYP) =  -1243.18334940     A.U. after   12 cycles
 SCF Done:  E(RB3LYP) =  -1243.18336650     A.U. after   12 cycles
 SCF Done:  E(RB3LYP) =  -1243.18342050     A.U. after   11 cycles
 SCF Done:  E(RB3LYP) =  -1243.18343669     A.U. after   11 cycles
 SCF Done:  E(RB3LYP) =  -1243.18344181     A.U. after   11 cycles
 SCF Done:  E(RB3LYP) =  -1243.18344266     A.U. after    8 cycles
 SCF Done:  E(RB3LYP) =  -1243.18344272     A.U. after    7 cycles
 Optimization completed.
    -- Stationary point found.

                         Standard orientation:
 ---------------------------------------------------------------------
 Center     Atomic      Atomic             Coordinates (Angstroms)
 Number     Number       Type             X           Y           Z
 ---------------------------------------------------------------------
      1          6           0       -6.641909   -0.657058   -0.092877
      2          6           0       -5.136729   -0.590825   -0.193328
      3          6           0       -4.368740   -1.751687   -0.057816
      4          6           0       -2.977995   -1.719459   -0.146522
      5          6           0       -2.317677   -0.510881   -0.386348
      6          6           0       -0.821427   -0.450585   -0.470061
      7         16           0       -0.091099    0.305666    1.088532
      8          8           0       -0.400301    1.787035    1.036798
      9          6           0        1.654674    0.114321    0.586541
     10          6           0        2.349417    1.254085    0.186439
     11          6           0        3.694239    1.145724   -0.163600
     12          6           0        4.336111   -0.099002   -0.103218
     13          6           0        5.768877   -0.271839   -0.463990
     14          8           0        6.370513   -1.326685   -0.430863
     15          8           0        6.363444    0.886534   -0.846878
     16          6           0        3.627609   -1.234928    0.315768
     17          6           0        2.286486   -1.130227    0.668980
     18          6           0       -3.084438    0.655929   -0.518919
     19          6           0       -4.477884    0.637003   -0.424904
     20          6           0       -5.261409    1.920134   -0.571005
     21          1           0       -7.021790   -0.031105    0.725077
     22          1           0       -7.126713   -0.300827   -1.011231
     23          1           0       -6.981089   -1.681748    0.086804
     24          1           0       -4.870438   -2.700187    0.120141
     25          1           0       -2.407871   -2.639494   -0.037733
     26          1           0       -0.467476    0.197347   -1.278706
     27          1           0       -0.370591   -1.442000   -0.578906
     28          1           0        1.825648    2.205386    0.164668
     29          1           0        4.249548    2.021402   -0.481038
     30          1           0        7.286706    0.652918   -1.056219
     31          1           0        4.148226   -2.185634    0.363320
     32          1           0        1.742044   -2.007728    1.010181
     33          1           0       -2.575888    1.602450   -0.680754
     34          1           0       -5.857241    2.134649    0.325611
     35          1           0       -5.964864    1.873374   -1.412714
     36          1           0       -4.595113    2.771247   -0.738311
 ---------------------------------------------------------------------

 The electronic state is 1-A.
 Alpha  occ. eigenvalues --  -88.99057 -19.20334 -19.14449 -19.11216 -10.32909
 Alpha  occ. eigenvalues --  -10.23022 -10.22264 -10.21959 -10.21785 -10.21435
 Alpha  occ. eigenvalues --  -10.21389 -10.20958 -10.20027 -10.19655 -10.19525
 Alpha  occ. eigenvalues --  -10.19053 -10.18763 -10.18547 -10.18452 -10.18259
 Alpha  occ. eigenvalues --   -8.03752  -6.00150  -6.00050  -5.99506  -1.11143
 Alpha  occ. eigenvalues --   -1.01965  -1.00689  -0.88057  -0.86270  -0.80848
 Alpha  occ. eigenvalues --   -0.78999  -0.76828  -0.76376  -0.74365  -0.70101
 Alpha  occ. eigenvalues --   -0.68515  -0.66048  -0.63431  -0.62440  -0.59802
 Alpha  occ. eigenvalues --   -0.58665  -0.56299  -0.53880  -0.49959  -0.49200
 Alpha  occ. eigenvalues --   -0.48663  -0.47788  -0.47148  -0.45635  -0.45475
 Alpha  occ. eigenvalues --   -0.44908  -0.44293  -0.43520  -0.43025  -0.42888
 Alpha  occ. eigenvalues --   -0.41630  -0.40800  -0.40151  -0.39937  -0.38803
 Alpha  occ. eigenvalues --   -0.38599  -0.38102  -0.37842  -0.36616  -0.35699
 Alpha  occ. eigenvalues --   -0.34521  -0.33855  -0.33436  -0.32555  -0.28444
 Alpha  occ. eigenvalues --   -0.27749  -0.27384  -0.27081  -0.24675  -0.23952
 Alpha  occ. eigenvalues --   -0.22283
 Alpha virt. eigenvalues --   -0.06346  -0.02217  -0.01188   0.00042   0.02906
 Alpha virt. eigenvalues --    0.04015   0.05685   0.07022   0.08712   0.09221
 Alpha virt. eigenvalues --    0.09572   0.11368   0.12579   0.13172   0.13731

 Mulliken charges:
               1
     1  C   -0.533074
     2  C    0.135110
     3  C   -0.184502
     4  C   -0.174982
     5  C    0.164637
     6  C   -0.559284
     7  S    0.790971
     8  O   -0.633155
     9  C   -0.146130
    10  C   -0.155427
    11  C   -0.150860
    12  C    0.068158
    13  C    0.541519
    14  O   -0.471176
    15  O   -0.580975
    16  C   -0.147053
    17  C   -0.164868
    18  C   -0.225182
    19  C    0.131491
    20  C   -0.532821
    21  H    0.162699
    22  H    0.160987
    23  H    0.155192
    24  H    0.122995
    25  H    0.120063
    26  H    0.202389
    27  H    0.178177
    28  H    0.187432
    29  H    0.169623
    30  H    0.414610
    31  H    0.172228
    32  H    0.149208
    33  H    0.149177
    34  H    0.162008
    35  H    0.158033
    36  H    0.162780
 Sum of Mulliken charges =  -0.00000

 Dipole moment (field-independent basis, Debye):
    X=             -0.8730    Y=             -1.1400    Z=             -1.4922  Tot=              2.0708
 Quadrupole moment (field-independent basis, Debye-Ang):
   XX=           -107.9646   YY=           -122.5073   ZZ=           -125.6871
   XY=             10.7912   XZ=             -1.5096   YZ=             -6.0871

 Normal termination of Gaussian 16 at Fri Nov  4 19:44:53 2022.
