 Gaussian 16, Revision B.01,
 Gaussian 16:  ES64L-G16RevB.01 20-Dec-2017

 -------------------------------------------------------------------
 #p b3lyp/6-31g(d) 6D 10F nosymm GFInput td=(50-50,nstate=2) SCF=XQC
 -------------------------------------------------------------------

 ------------------------------
 Gaussian input prepared by ASE
 ------------------------------
 Symbolic Z-matrix:
 Charge =  0 Multiplicity = 1

                          Input orientation:
 ---------------------------------------------------------------------
 Center     Atomic      Atomic             Coordinates (Angstroms)
 Number     Number       Type             X           Y           Z
 ---------------------------------------------------------------------
      1          6           0       -5.736840    0.999495    0.814799
      2          6           0       -4.263717    0.689785    0.696334
      3          6           0       -3.382530    1.048920    1.721176
      4          6           0       -2.018308    0.774898    1.638157
      5          6           0       -1.501194    0.117634    0.517982
      6          6           0       -0.034561   -0.173327    0.400773
      7         16           0        0.787356    0.997226   -0.819376
      8          8           0        0.340029    0.566942   -2.200495
      9          6           0        2.478906    0.348117   -0.587752
     10          6           0        3.019105   -0.446289   -1.597165
     11          6           0        4.322538   -0.922597   -1.466749
     12          6           0        5.078450   -0.594599   -0.332729
     13          6           0        6.473689   -1.074185   -0.142583
     14          8           0        7.169440   -0.820851    0.820492
     15          8           0        6.914873   -1.844523   -1.169168
     16          6           0        4.526318    0.218439    0.668256
     17          6           0        3.227224    0.698322    0.540193
     18          6           0       -2.381393   -0.240557   -0.513469
     19          6           0       -3.748934    0.035074   -0.444551
     20          6           0       -4.657840   -0.366873   -1.582095
     21          1           0       -6.081949    1.647757   -0.001185
     22          1           0       -6.348490    0.088820    0.771598
     23          1           0       -5.959379    1.505629    1.759056
     24          1           0       -3.773115    1.552854    2.602377
     25          1           0       -1.357931    1.065854    2.452152
     26          1           0        0.169228   -1.171668   -0.000213
     27          1           0        0.490779   -0.053306    1.353463
     28          1           0        2.411143   -0.669500   -2.469141
     29          1           0        4.757810   -1.545271   -2.240546
     30          1           0        7.827643   -2.096823   -0.936771
     31          1           0        5.133886    0.466379    1.532276
     32          1           0        2.805440    1.342675    1.308146
     33          1           0       -1.982104   -0.729504   -1.397898
     34          1           0       -5.170560    0.501162   -2.016359
     35          1           0       -5.440764   -1.061743   -1.250893
     36          1           0       -4.094247   -0.854368   -2.382749
 ---------------------------------------------------------------------

 SCF Done:  E(RB3LYP) =  -1243.18344421     A.U. after   15 cycles

 Excitation energies and oscillator strengths:

 Excited state symmetry could not be determined.
 Excited State   1:      Triplet-?Sym    3.2430 eV  382.31 nm  f=0.0000  <S**2>=2.000
      71 -> 77        -0.31683
      72 -> 77         0.12803
      72 -> 78        -0.11784
      73 -> 78         0.14492
      75 -> 77        -0.14196
      76 -> 77         0.53021
 This state for optimization and/or second-order correction.
 Total Energy, E(TD-HF/TD-DFT) =  -1243.06426563
 Copying the excited state density for this state as the 1-particle RhoCI density.

 Excited state symmetry could not be determined.
 Excited State   2:      Triplet-?Sym    3.5665 eV  347.64 nm  f=0.0000  <S**2>=2.000
      71 -> 77         0.17601
      74 -> 77         0.10541
      74 -> 79         0.17802
      74 -> 80        -0.26179
      75 -> 77         0.16766
      75 -> 79         0.26571
      75 -> 80         0.22737
      76 -> 79         0.39189

 Excited state symmetry could not be determined.
 Excited State   3:      Singlet-?Sym    3.7609 eV  329.66 nm  f=0.1663  <S**2>=0.000
      75 -> 77        -0.12817
      76 -> 77         0.68478

 Excited state symmetry could not be determined.
 Excited State   4:      Singlet-?Sym    4.2684 eV  290.47 nm  f=0.0059  <S**2>=0.000
      74 -> 77         0.19680
      75 -> 77         0.64796
      76 -> 77         0.15426

 Alpha  occ. eigenvalues --  -88.99057 -19.20334 -19.14449 -19.11216 -10.32909
 Alpha  occ. eigenvalues --  -10.23022 -10.22264 -10.21959 -10.21785 -10.21435
 Alpha  occ. eigenvalues --  -10.21389 -10.20959 -10.20027 -10.19655 -10.19525
 Alpha  occ. eigenvalues --  -10.19053 -10.18763 -10.18547 -10.18452 -10.18259
 Alpha  occ. eigenvalues --   -8.03752  -6.00150  -6.00050  -5.99506  -1.11143
 Alpha  occ. eigenvalues --   -1.01965  -1.00689  -0.88057  -0.86270  -0.80848
 Alpha  occ. eigenvalues --   -0.78999  -0.76828  -0.76376  -0.74365  -0.70101
 Alpha  occ. eigenvalues --   -0.68515  -0.66048  -0.63431  -0.62440  -0.59802
 Alpha  occ. eigenvalues --   -0.58665  -0.56299  -0.53880  -0.49959  -0.49200
 Alpha  occ. eigenvalues --   -0.48663  -0.47788  -0.47148  -0.45635  -0.45475
 Alpha  occ. eigenvalues --   -0.44908  -0.44293  -0.43520  -0.43025  -0.42888
 Alpha  occ. eigenvalues --   -0.41630  -0.40800  -0.40151  -0.39937  -0.38803
 Alpha  occ. eigenvalues --   -0.38599  -0.38102  -0.37842  -0.36616  -0.35699
 Alpha  occ. eigenvalues --   -0.34521  -0.33855  -0.33436  -0.32555  -0.28444
 Alpha  occ. eigenvalues --   -0.27749  -0.27384  -0.27081  -0.24675  -0.23952
 Alpha  occ. eigenvalues --   -0.22283
 Alpha virt. eigenvalues --   -0.06346  -0.02217  -0.01188   0.00042   0.02906
 Alpha virt. eigenvalues --    0.04015   0.05685   0.07022   0.08712   0.09221
 Alpha virt. eigenvalues --    0.09572   0.11369   0.12579   0.13172   0.13731

 Mulliken charges:
               1
     1  C   -0.533072
     2  C    0.135103
     3  C   -0.184502
     4  C   -0.174981
     5  C    0.164637
     6  C   -0.559275
     7  S    0.790954
     8  O   -0.633149
     9  C   -0.146118
    10  C   -0.155424
    11  C   -0.150867
    12  C    0.068159
    13  C    0.541518
    14  O   -0.471175
    15  O   -0.580976
    16  C   -0.147046
    17  C   -0.164883
    18  C   -0.225183
    19  C    0.131502
    20  C   -0.532828
    21  H    0.162699
    22  H    0.160986
    23  H    0.155192
    24  H    0.122995
    25  H    0.120063
    26  H    0.202387
    27  H    0.178176
    28  H    0.187433
    29  H    0.169623
    30  H    0.414610
    31  H    0.172227
    32  H    0.149211
    33  H    0.149177
    34  H    0.162009
    35  H    0.158034
    36  H    0.162781
 Sum of Mulliken charges =  -0.00000

 Dipole moment (field-independent basis, Debye):
    X=             -0.9208    Y=             -0.9799    Z=              1.5749  Tot=              2.0708
 Quadrupole moment (field-independent basis, Debye-Ang):
   XX=           -111.9032   YY=           -120.7481   ZZ=           -125.7066
   XY=             -6.5946   XZ=             -8.5001   YZ=              7.8053

 Normal termination of Gaussian 16 at Sat Nov  5 11:55:50 2022.
