 Gaussian 16, Revision B.01,
 Gaussian 16:  ES64L-G16RevB.01 20-Dec-2017

 -------------------------------------------------------------------
 #p b3lyp/6-31g(d) 6D 10F nosymm GFInput td=(50-50,nstate=2) SCF=XQC
 -------------------------------------------------------------------

 ------------------------------
 Gaussian input prepared by ASE
 ------------------------------
 Symbolic Z-matrix:
 Charge =  0 Multiplicity = 1

                          Input orientation:
 ---------------------------------------------------------------------
 Center     Atomic      Atomic             Coordinates (Angstroms)
 Number     Number       Type             X           Y           Z
 ---------------------------------------------------------------------
      1          7           0       -5.576444   -1.595809   -0.203919
      2          6           0       -4.589300   -1.018135   -0.793508
      3          7           0       -4.510380   -0.591583   -2.097011
      4          6           0       -3.359960   -0.716106    0.015328
      5          6           0       -3.334760   -0.956041    1.390032
      6          6           0       -2.157872   -0.665507    2.076598
      7          6           0       -1.059401   -0.150199    1.392296
      8          6           0       -1.199813    0.054345    0.013503
      9          8           0       -0.191251    0.528185   -0.789008
     10          6           0        0.959415    1.063752   -0.224920
     11          6           0        0.933158    2.310434    0.358014
     12          6           0        2.127661    2.874397    0.864192
     13          6           0        3.318202    2.189834    0.770699
     14          6           0        3.371483    0.906670    0.163189
     15          6           0        4.584071    0.174872    0.046241
     16          6           0        4.606612   -1.066836   -0.546920
     17          6           0        3.414293   -1.637625   -1.055738
     18          6           0        2.219675   -0.959831   -0.961613
     19          6           0        2.167392    0.320870   -0.350262
     20          7           0       -2.309835   -0.220173   -0.658944
     21          1           0       -6.356800   -1.741533   -0.851863
     22          1           0       -3.586265   -0.336232   -2.424131
     23          1           0       -5.151271   -0.982354   -2.771980
     24          1           0       -4.215370   -1.358042    1.874639
     25          1           0       -2.089398   -0.841892    3.146695
     26          1           0       -0.131426    0.080386    1.900748
     27          1           0       -0.005762    2.851948    0.417815
     28          1           0        2.095901    3.858325    1.323363
     29          1           0        4.236170    2.625010    1.157404
     30          1           0        5.498365    0.616966    0.434838
     31          1           0        5.541899   -1.613820   -0.629238
     32          1           0        3.445772   -2.616974   -1.525259
     33          1           0        1.305240   -1.387305   -1.358473
 ---------------------------------------------------------------------

 SCF Done:  E(RB3LYP) =  -857.015623380     A.U. after   15 cycles

 Excitation energies and oscillator strengths:

 Excited state symmetry could not be determined.
 Excited State   1:      Triplet-?Sym    2.6742 eV  463.64 nm  f=0.0000  <S**2>=2.000
      66 -> 72         0.14327
      68 -> 70         0.23634
      69 -> 70         0.62292
 This state for optimization and/or second-order correction.
 Total Energy, E(TD-HF/TD-DFT) =  -856.917349226
 Copying the excited state density for this state as the 1-particle RhoCI density.

 Excited state symmetry could not be determined.
 Excited State   2:      Triplet-?Sym    3.1858 eV  389.17 nm  f=0.0000  <S**2>=2.000
      63 -> 71        -0.12776
      68 -> 70         0.10781
      68 -> 71         0.52318
      68 -> 72         0.12355
      68 -> 73        -0.12459
      69 -> 71        -0.33828

 Excited state symmetry could not be determined.
 Excited State   3:      Singlet-?Sym    4.2153 eV  294.13 nm  f=0.0593  <S**2>=0.000
      68 -> 70        -0.10324
      69 -> 70         0.66586
      69 -> 71         0.13365

 Excited state symmetry could not be determined.
 Excited State   4:      Singlet-?Sym    4.2414 eV  292.32 nm  f=0.0754  <S**2>=0.000
      66 -> 70         0.11256
      69 -> 70        -0.11780
      69 -> 71         0.65806
      69 -> 72        -0.10878

 Alpha  occ. eigenvalues --  -19.19358 -14.33892 -14.33436 -14.28940 -10.28823
 Alpha  occ. eigenvalues --  -10.25544 -10.25386 -10.23292 -10.21048 -10.20634
 Alpha  occ. eigenvalues --  -10.20566 -10.20165 -10.20067 -10.19892 -10.19702
 Alpha  occ. eigenvalues --  -10.19677 -10.19631 -10.19581 -10.19466 -10.19003
 Alpha  occ. eigenvalues --   -1.08901  -0.95956  -0.92579  -0.87730  -0.84095
 Alpha  occ. eigenvalues --   -0.82664  -0.80580  -0.78407  -0.75793  -0.74833
 Alpha  occ. eigenvalues --   -0.72303  -0.66409  -0.64897  -0.62500  -0.62276
 Alpha  occ. eigenvalues --   -0.60545  -0.57200  -0.54134  -0.52474  -0.51914
 Alpha  occ. eigenvalues --   -0.51526  -0.50537  -0.49938  -0.48221  -0.47889
 Alpha  occ. eigenvalues --   -0.46004  -0.43640  -0.43332  -0.42776  -0.42224
 Alpha  occ. eigenvalues --   -0.41990  -0.40889  -0.39689  -0.38871  -0.37924
 Alpha  occ. eigenvalues --   -0.37587  -0.37221  -0.35140  -0.34274  -0.33131
 Alpha  occ. eigenvalues --   -0.32629  -0.28749  -0.28456  -0.27887  -0.25495
 Alpha  occ. eigenvalues --   -0.25157  -0.24516  -0.22598  -0.21551
 Alpha virt. eigenvalues --   -0.04455  -0.03969  -0.01607  -0.00611   0.02927
 Alpha virt. eigenvalues --    0.07238   0.08888   0.09254   0.09284   0.10310
 Alpha virt. eigenvalues --    0.11121   0.12887   0.14134   0.15055   0.15980

 Mulliken charges:
               1
     1  N   -0.647813
     2  C    0.431888
     3  N   -0.767348
     4  C    0.311179
     5  C   -0.157597
     6  C   -0.109231
     7  C   -0.186609
     8  C    0.504423
     9  O   -0.544375
    10  C    0.254452
    11  C   -0.159415
    12  C   -0.148057
    13  C   -0.181484
    14  C    0.124609
    15  C   -0.196092
    16  C   -0.129546
    17  C   -0.136497
    18  C   -0.183644
    19  C    0.098856
    20  N   -0.578789
    21  H    0.266177
    22  H    0.357224
    23  H    0.320626
    24  H    0.177399
    25  H    0.147910
    26  H    0.158966
    27  H    0.147033
    28  H    0.138105
    29  H    0.132630
    30  H    0.133103
    31  H    0.133676
    32  H    0.134780
    33  H    0.153461
 Sum of Mulliken charges =  -0.00000

 Dipole moment (field-independent basis, Debye):
    X=              2.3473    Y=              0.3218    Z=             -0.0215  Tot=              2.3693
 Quadrupole moment (field-independent basis, Debye-Ang):
   XX=           -109.8758   YY=           -109.8104   ZZ=           -105.3558
   XY=             -0.7277   XZ=             11.3730   YZ=              7.8728

 Normal termination of Gaussian 16 at Sat Nov  5 11:56:14 2022.
