 Gaussian 16, Revision B.01,
 Gaussian 16:  ES64L-G16RevB.01 20-Dec-2017

 -----------------------------
 #p b3lyp/6-31g(d) opt SCF=XQC
 -----------------------------

 ------------------------------
 Gaussian input prepared by ASE
 ------------------------------
 Symbolic Z-matrix:
 Charge =  0 Multiplicity = 1

 SCF Done:  E(RB3LYP) =  -857.011558965     A.U. after   15 cycles
 SCF Done:  E(RB3LYP) =  -857.014644131     A.U. after   13 cycles
 SCF Done:  E(RB3LYP) =  -857.015157600     A.U. after   12 cycles
 SCF Done:  E(RB3LYP) =  -857.015320153     A.U. after   12 cycles
 SCF Done:  E(RB3LYP) =  -857.015385745     A.U. after   12 cycles
 SCF Done:  E(RB3LYP) =  -857.015462183     A.U. after   12 cycles
 SCF Done:  E(RB3LYP) =  -857.015500057     A.U. after   12 cycles
 SCF Done:  E(RB3LYP) =  -857.015532751     A.U. after   11 cycles
 SCF Done:  E(RB3LYP) =  -857.015557277     A.U. after   10 cycles
 SCF Done:  E(RB3LYP) =  -857.015572688     A.U. after   11 cycles
 SCF Done:  E(RB3LYP) =  -857.015580103     A.U. after   10 cycles
 SCF Done:  E(RB3LYP) =  -857.015592276     A.U. after   11 cycles
 SCF Done:  E(RB3LYP) =  -857.015606308     A.U. after   12 cycles
 SCF Done:  E(RB3LYP) =  -857.015616431     A.U. after   12 cycles
 SCF Done:  E(RB3LYP) =  -857.015621164     A.U. after   11 cycles
 SCF Done:  E(RB3LYP) =  -857.015622424     A.U. after   10 cycles
 SCF Done:  E(RB3LYP) =  -857.015623005     A.U. after   10 cycles
 SCF Done:  E(RB3LYP) =  -857.015623174     A.U. after    8 cycles
 SCF Done:  E(RB3LYP) =  -857.015623198     A.U. after    7 cycles
 Optimization completed.
    -- Stationary point found.

                         Standard orientation:
 ---------------------------------------------------------------------
 Center     Atomic      Atomic             Coordinates (Angstroms)
 Number     Number       Type             X           Y           Z
 ---------------------------------------------------------------------
      1          7           0       -5.668668   -0.462927    0.357420
      2          6           0       -4.612176   -0.492393   -0.376563
      3          7           0       -4.499337   -0.888487   -1.687164
      4          6           0       -3.322165   -0.005096    0.219362
      5          6           0       -3.296034    0.564436    1.493318
      6          6           0       -2.063713    0.983010    1.990336
      7          6           0       -0.912463    0.830984    1.220946
      8          6           0       -1.058421    0.250124   -0.045514
      9          8           0       -0.007037    0.013721   -0.896662
     10          6           0        1.240543    0.567116   -0.639059
     11          6           0        1.463371    1.908997   -0.849812
     12          6           0        2.757321    2.445571   -0.652612
     13          6           0        3.797864    1.634571   -0.259798
     14          6           0        3.594060    0.244734   -0.047111
     15          6           0        4.646796   -0.621469    0.354155
     16          6           0        4.420894   -1.964398    0.553393
     17          6           0        3.127746   -2.508359    0.357958
     18          6           0        2.081974   -1.701801   -0.030886
     19          6           0        2.286433   -0.311987   -0.238949
     20          7           0       -2.221641   -0.158980   -0.534642
     21          1           0       -6.483529   -0.810129   -0.157822
     22          1           0       -3.555364   -1.021982   -2.029647
     23          1           0       -5.223161   -1.473436   -2.078237
     24          1           0       -4.219031    0.659557    2.050949
     25          1           0       -1.993465    1.426428    2.979960
     26          1           0        0.058407    1.143850    1.584753
     27          1           0        0.642587    2.542130   -1.172054
     28          1           0        2.922314    3.506015   -0.820532
     29          1           0        4.792508    2.047083   -0.111132
     30          1           0        5.639165   -0.201658    0.500270
     31          1           0        5.236359   -2.613937    0.859738
     32          1           0        2.962978   -3.570826    0.514741
     33          1           0        1.091881   -2.114345   -0.191971
 ---------------------------------------------------------------------

 The electronic state is 1-A.
 Alpha  occ. eigenvalues --  -19.19358 -14.33892 -14.33436 -14.28940 -10.28823
 Alpha  occ. eigenvalues --  -10.25544 -10.25386 -10.23292 -10.21048 -10.20634
 Alpha  occ. eigenvalues --  -10.20566 -10.20165 -10.20067 -10.19892 -10.19702
 Alpha  occ. eigenvalues --  -10.19677 -10.19631 -10.19581 -10.19466 -10.19003
 Alpha  occ. eigenvalues --   -1.08901  -0.95956  -0.92579  -0.87730  -0.84095
 Alpha  occ. eigenvalues --   -0.82664  -0.80579  -0.78408  -0.75793  -0.74833
 Alpha  occ. eigenvalues --   -0.72303  -0.66409  -0.64897  -0.62500  -0.62276
 Alpha  occ. eigenvalues --   -0.60545  -0.57200  -0.54134  -0.52474  -0.51914
 Alpha  occ. eigenvalues --   -0.51526  -0.50537  -0.49938  -0.48221  -0.47889
 Alpha  occ. eigenvalues --   -0.46004  -0.43640  -0.43332  -0.42776  -0.42224
 Alpha  occ. eigenvalues --   -0.41990  -0.40889  -0.39689  -0.38871  -0.37924
 Alpha  occ. eigenvalues --   -0.37587  -0.37221  -0.35140  -0.34274  -0.33131
 Alpha  occ. eigenvalues --   -0.32629  -0.28749  -0.28456  -0.27887  -0.25495
 Alpha  occ. eigenvalues --   -0.25157  -0.24516  -0.22598  -0.21551
 Alpha virt. eigenvalues --   -0.04455  -0.03969  -0.01607  -0.00611   0.02927
 Alpha virt. eigenvalues --    0.07238   0.08888   0.09254   0.09284   0.10310
 Alpha virt. eigenvalues --    0.11121   0.12887   0.14134   0.15054   0.15980

 Mulliken charges:
               1
     1  N   -0.647817
     2  C    0.431889
     3  N   -0.767344
     4  C    0.311186
     5  C   -0.157600
     6  C   -0.109224
     7  C   -0.186608
     8  C    0.504413
     9  O   -0.544356
    10  C    0.254434
    11  C   -0.159408
    12  C   -0.148068
    13  C   -0.181478
    14  C    0.124612
    15  C   -0.196094
    16  C   -0.129546
    17  C   -0.136497
    18  C   -0.183653
    19  C    0.098873
    20  N   -0.578803
    21  H    0.266177
    22  H    0.357224
    23  H    0.320626
    24  H    0.177398
    25  H    0.147910
    26  H    0.158965
    27  H    0.147032
    28  H    0.138106
    29  H    0.132629
    30  H    0.133103
    31  H    0.133677
    32  H    0.134781
    33  H    0.153462
 Sum of Mulliken charges =  -0.00000

 Dipole moment (field-independent basis, Debye):
    X=              2.3644    Y=             -0.1517    Z=             -0.0181  Tot=              2.3694
 Quadrupole moment (field-independent basis, Debye-Ang):
   XX=           -108.7767   YY=           -103.2460   ZZ=           -112.5004
   XY=              6.7071   XZ=             10.9947   YZ=              3.6647

 Normal termination of Gaussian 16 at Fri Nov  4 19:51:17 2022.
