 Gaussian 16, Revision B.01,
 Gaussian 16:  ES64L-G16RevB.01 20-Dec-2017

 -------------------------------------------------------------------
 #p b3lyp/6-31g(d) 6D 10F nosymm GFInput td=(50-50,nstate=2) SCF=XQC
 -------------------------------------------------------------------

 ------------------------------
 Gaussian input prepared by ASE
 ------------------------------
 Symbolic Z-matrix:
 Charge =  0 Multiplicity = 1

                          Input orientation:
 ---------------------------------------------------------------------
 Center     Atomic      Atomic             Coordinates (Angstroms)
 Number     Number       Type             X           Y           Z
 ---------------------------------------------------------------------
      1          6           0        5.401226    2.253100    4.127686
      2          6           0        5.465222    1.025041    3.286947
      3          6           0        4.650203    0.515540    2.319652
      4          6           0        5.309009   -0.691902    1.928519
      5          7           0        4.985566   -1.659900    0.983292
      6          6           0        3.915716   -1.816828    0.115365
      7          8           0        3.887486   -2.790043   -0.622861
      8          6           0        2.825952   -0.760358    0.129906
      9          6           0        1.718756   -1.077300   -0.871927
     10          6           0        0.634873   -0.006433   -0.839824
     11          8           0        0.726204    0.976108   -0.095776
     12          7           0       -0.451374   -0.177859   -1.669498
     13          6           0       -0.634864   -1.353675   -2.479567
     14          6           0       -1.464839   -2.391315   -2.041321
     15          6           0       -1.632931   -3.522828   -2.841761
     16          6           0       -0.980626   -3.633396   -4.069812
     17          6           0       -0.167856   -2.584155   -4.483570
     18          9           0        0.461131   -2.671046   -5.671721
     19          6           0        0.014031   -1.440980   -3.715326
     20          6           0       -1.509347    0.875858   -1.619170
     21          6           0       -2.488160    0.550268   -0.462191
     22          8           0       -3.465771   -0.185096   -0.587000
     23          7           0       -2.128053    1.137864    0.710443
     24          6           0       -2.808317    0.865418    1.967695
     25          6           0       -2.132100   -0.194931    2.859103
     26          6           0       -2.815772    0.004436    4.223225
     27          6           0       -3.137456    1.528596    4.307776
     28          6           0       -2.890053    2.099955    2.887229
     29          6           0       -2.140521    1.125171   -2.978029
     30          6           0       -1.527426    2.051996   -3.830875
     31          6           0       -2.074263    2.289603   -5.090662
     32          7           0       -3.175438    1.680998   -5.548360
     33          6           0       -3.758683    0.800664   -4.726054
     34          6           0       -3.291096    0.484312   -3.448714
     35          7           0        6.425404   -0.885353    2.608710
     36          8           0        6.521836    0.211204    3.473241
     37          1           0        4.505693    2.830457    3.885918
     38          1           0        5.375136    1.996145    5.192672
     39          1           0        6.280441    2.885715    3.961539
     40          1           0        3.733107    0.946597    1.955579
     41          1           0        5.663226   -2.412791    0.912338
     42          1           0        3.262002    0.219750   -0.092215
     43          1           0        2.409025   -0.677509    1.139752
     44          1           0        2.133948   -1.168459   -1.880438
     45          1           0        1.277964   -2.057695   -0.662075
     46          1           0       -1.991593   -2.295349   -1.099012
     47          1           0       -2.278366   -4.328053   -2.503922
     48          1           0       -1.094371   -4.505769   -4.704435
     49          1           0        0.639722   -0.634713   -4.081012
     50          1           0       -0.964736    1.780712   -1.343898
     51          1           0       -1.188099    1.523001    0.750257
     52          1           0       -3.811934    0.522023    1.700847
     53          1           0       -1.057073    0.024719    2.925427
     54          1           0       -2.239883   -1.208670    2.459773
     55          1           0       -3.744419   -0.577275    4.258123
     56          1           0       -2.195457   -0.340801    5.056417
     57          1           0       -4.173198    1.688400    4.624578
     58          1           0       -2.505010    2.032357    5.045918
     59          1           0       -3.659816    2.807323    2.563405
     60          1           0       -1.930403    2.633532    2.852146
     61          1           0       -0.633592    2.586412   -3.517899
     62          1           0       -1.608008    3.008152   -5.763181
     63          1           0       -4.655888    0.315674   -5.107499
     64          1           0       -3.816092   -0.226622   -2.824542
 ---------------------------------------------------------------------

 SCF Done:  E(RB3LYP) =  -1682.11594325     A.U. after   15 cycles

 Excitation energies and oscillator strengths:

 Excited state symmetry could not be determined.
 Excited State   1:      Triplet-?Sym    3.7317 eV  332.25 nm  f=0.0000  <S**2>=2.000
     119 ->132        -0.13060
     121 ->132         0.16275
     122 ->131         0.14045
     122 ->132        -0.28087
     124 ->131        -0.10478
     124 ->132         0.20070
     125 ->134         0.18469
     127 ->132         0.10257
     127 ->134        -0.19453
     127 ->135         0.11882
     128 ->132        -0.16175
     128 ->134         0.26640
     128 ->135        -0.14296
 This state for optimization and/or second-order correction.
 Total Energy, E(TD-HF/TD-DFT) =  -1681.97880748
 Copying the excited state density for this state as the 1-particle RhoCI density.

 Excited state symmetry could not be determined.
 Excited State   2:      Triplet-?Sym    3.7498 eV  330.64 nm  f=0.0000  <S**2>=2.000
     123 ->133        -0.23364
     123 ->137         0.14642
     129 ->133         0.62840
     129 ->141        -0.10555

 Excited state symmetry could not be determined.
 Excited State   3:      Singlet-?Sym    4.6041 eV  269.29 nm  f=0.0070  <S**2>=0.000
     126 ->131         0.18059
     126 ->132         0.10447
     127 ->131        -0.14203
     128 ->131        -0.18037
     130 ->131         0.59162
     130 ->132         0.17188

 Excited state symmetry could not be determined.
 Excited State   4:      Singlet-?Sym    4.9359 eV  251.19 nm  f=0.0069  <S**2>=0.000
     126 ->131         0.38181
     127 ->131        -0.16199
     130 ->131        -0.30541
     130 ->132         0.38614
     130 ->138        -0.13824

 Alpha  occ. eigenvalues --  -24.71285 -19.23919 -19.13965 -19.13195 -19.12251
 Alpha  occ. eigenvalues --  -14.39081 -14.38771 -14.37700 -14.36202 -14.32880
 Alpha  occ. eigenvalues --  -10.31033 -10.30918 -10.29525 -10.28498 -10.27668
 Alpha  occ. eigenvalues --  -10.27261 -10.25167 -10.25007 -10.22521 -10.22245
 Alpha  occ. eigenvalues --  -10.21982 -10.21960 -10.21547 -10.21276 -10.21267
 Alpha  occ. eigenvalues --  -10.21073 -10.21033 -10.20916 -10.20676 -10.20541
 Alpha  occ. eigenvalues --  -10.20176 -10.19282 -10.18969 -10.18852 -10.18806
 Alpha  occ. eigenvalues --  -10.18758  -1.22510  -1.14602  -1.05830  -1.05341
 Alpha  occ. eigenvalues --   -1.03889  -0.96121  -0.96063  -0.93820  -0.92927
 Alpha  occ. eigenvalues --   -0.86981  -0.85832  -0.83474  -0.82409  -0.81590
 Alpha  occ. eigenvalues --   -0.80540  -0.77113  -0.76184  -0.75890  -0.74370
 Alpha  occ. eigenvalues --   -0.73553  -0.71735  -0.71139  -0.69042  -0.65331
 Alpha  occ. eigenvalues --   -0.64317  -0.63313  -0.62924  -0.61790  -0.60718
 Alpha  occ. eigenvalues --   -0.59632  -0.58982  -0.58053  -0.57455  -0.57356
 Alpha  occ. eigenvalues --   -0.54080  -0.53127  -0.52751  -0.51986  -0.51055
 Alpha  occ. eigenvalues --   -0.50495  -0.49879  -0.49715  -0.49473  -0.49307
 Alpha  occ. eigenvalues --   -0.48533  -0.48470  -0.48111  -0.47132  -0.46866
 Alpha  occ. eigenvalues --   -0.46610  -0.45948  -0.45171  -0.44195  -0.43577
 Alpha  occ. eigenvalues --   -0.43357  -0.43254  -0.42805  -0.42630  -0.42324
 Alpha  occ. eigenvalues --   -0.42243  -0.41612  -0.41075  -0.40789  -0.40239
 Alpha  occ. eigenvalues --   -0.39527  -0.39446  -0.39078  -0.38964  -0.38490
 Alpha  occ. eigenvalues --   -0.38380  -0.37621  -0.36985  -0.36468  -0.36299
 Alpha  occ. eigenvalues --   -0.35947  -0.35167  -0.34658  -0.34388  -0.34208
 Alpha  occ. eigenvalues --   -0.33632  -0.32570  -0.31350  -0.29573  -0.28619
 Alpha  occ. eigenvalues --   -0.27708  -0.27102  -0.26934  -0.26502  -0.26282
 Alpha  occ. eigenvalues --   -0.25845  -0.25539  -0.25250  -0.24559  -0.24126
 Alpha virt. eigenvalues --   -0.03380  -0.02951  -0.02385  -0.01546  -0.00835
 Alpha virt. eigenvalues --    0.00124   0.01141   0.02055   0.06861   0.07358
 Alpha virt. eigenvalues --    0.07445   0.07823   0.08440   0.09169   0.09675

 Mulliken charges:
               1
     1  C   -0.529556
     2  C    0.426934
     3  C   -0.299042
     4  C    0.539631
     5  N   -0.721399
     6  C    0.612963
     7  O   -0.492678
     8  C   -0.377523
     9  C   -0.369501
    10  C    0.612973
    11  O   -0.548366
    12  N   -0.531500
    13  C    0.237560
    14  C   -0.133117
    15  C   -0.145906
    16  C   -0.182831
    17  C    0.384559
    18  F   -0.292434
    19  C   -0.204938
    20  C   -0.170102
    21  C    0.630420
    22  O   -0.533161
    23  N   -0.612609
    24  C    0.038228
    25  C   -0.271573
    26  C   -0.274731
    27  C   -0.277681
    28  C   -0.278512
    29  C    0.149604
    30  C   -0.185647
    31  C    0.037372
    32  N   -0.403959
    33  C    0.031646
    34  C   -0.165379
    35  N   -0.252323
    36  O   -0.364046
    37  H    0.176215
    38  H    0.188177
    39  H    0.189038
    40  H    0.170251
    41  H    0.353471
    42  H    0.187247
    43  H    0.183419
    44  H    0.193494
    45  H    0.194640
    46  H    0.166249
    47  H    0.151232
    48  H    0.155573
    49  H    0.155897
    50  H    0.183233
    51  H    0.357888
    52  H    0.172870
    53  H    0.130621
    54  H    0.147209
    55  H    0.144805
    56  H    0.140236
    57  H    0.144902
    58  H    0.141132
    59  H    0.149757
    60  H    0.131622
    61  H    0.135631
    62  H    0.141237
    63  H    0.144274
    64  H    0.186307
 Sum of Mulliken charges =  -0.00000

 Dipole moment (field-independent basis, Debye):
    X=             -0.4195    Y=              2.2922    Z=              4.0522  Tot=              4.6744
 Quadrupole moment (field-independent basis, Debye-Ang):
   XX=           -234.8105   YY=           -200.8100   ZZ=           -216.9691
   XY=             24.0999   XZ=            -11.6596   YZ=             11.9809

 Normal termination of Gaussian 16 at Sat Nov  5 12:22:06 2022.
