 Gaussian 16, Revision B.01,
 Gaussian 16:  ES64L-G16RevB.01 20-Dec-2017

 -----------------------------
 #p b3lyp/6-31g(d) opt SCF=XQC
 -----------------------------

 ------------------------------
 Gaussian input prepared by ASE
 ------------------------------
 Symbolic Z-matrix:
 Charge =  0 Multiplicity = 1

 SCF Done:  E(RB3LYP) =  -2520.06836387     A.U. after   15 cycles
 SCF Done:  E(RB3LYP) =  -2520.08105459     A.U. after   12 cycles
 SCF Done:  E(RB3LYP) =  -2520.08248887     A.U. after   13 cycles
 SCF Done:  E(RB3LYP) =  -2520.08379389     A.U. after   12 cycles
 SCF Done:  E(RB3LYP) =  -2520.08459881     A.U. after   12 cycles
 SCF Done:  E(RB3LYP) =  -2520.08588378     A.U. after   12 cycles
 SCF Done:  E(RB3LYP) =  -2520.08700627     A.U. after   13 cycles
 SCF Done:  E(RB3LYP) =  -2520.08838054     A.U. after   12 cycles
 SCF Done:  E(RB3LYP) =  -2520.08922582     A.U. after   12 cycles
 SCF Done:  E(RB3LYP) =  -2520.09020957     A.U. after   14 cycles
 SCF Done:  E(RB3LYP) =  -2520.09149218     A.U. after    9 cycles
 SCF Done:  E(RB3LYP) =  -2520.09149251     A.U. after   10 cycles
 SCF Done:  E(RB3LYP) =  -2520.09149262     A.U. after   10 cycles
 SCF Done:  E(RB3LYP) =  -2520.09149266     A.U. after   10 cycles
 SCF Done:  E(RB3LYP) =  -2520.09149272     A.U. after    9 cycles
 SCF Done:  E(RB3LYP) =  -2520.09149267     A.U. after    9 cycles
 SCF Done:  E(RB3LYP) =  -2520.09149269     A.U. after    7 cycles
 SCF Done:  E(RB3LYP) =  -2520.09149268     A.U. after    7 cycles
 SCF Done:  E(RB3LYP) =  -2520.09149268     A.U. after    6 cycles
 SCF Done:  E(RB3LYP) =  -2520.09149269     A.U. after    6 cycles
 Optimization completed.
    -- Stationary point found.

                         Standard orientation:
 ---------------------------------------------------------------------
 Center     Atomic      Atomic             Coordinates (Angstroms)
 Number     Number       Type             X           Y           Z
 ---------------------------------------------------------------------
      1          6           0       -9.738912   -3.305633    0.416294
      2         16           0       -8.662015   -2.949810   -0.996650
      3          8           0       -9.373698   -1.992374   -1.859096
      4          8           0       -8.189378   -4.240856   -1.522001
      5          6           0       -7.258332   -2.098990   -0.261600
      6          6           0       -7.271247   -0.706360   -0.174601
      7          6           0       -6.177806   -0.055009    0.394703
      8          6           0       -5.080580   -0.777614    0.879768
      9          6           0       -3.916364   -0.057627    1.544980
     10          7           0       -2.636002   -0.703968    1.305418
     11          6           0       -1.597366   -0.412158    2.298076
     12          6           0       -0.919402    0.961437    2.141830
     13          6           0       -0.584954    1.245655    0.638576
     14          6           0        0.750529    1.922575    0.464259
     15          6           0        2.065042    1.476227    0.668023
     16          6           0        2.471384    0.133205    1.139501
     17          8           0        1.728252   -0.581530    1.822296
     18          7           0        3.727958   -0.318824    0.818909
     19          6           0        4.637249    0.175112   -0.228572
     20          6           0        5.376267   -1.092602   -0.697373
     21          6           0        6.655181   -0.849058   -1.547362
     22          6           0        7.031208   -2.115676   -2.295459
     23          6           0        8.097165   -2.854446   -1.956788
     24          6           0        8.958552   -2.435378   -0.858016
     25          9           0        9.868789   -3.353197   -0.457143
     26          6           0        8.864977   -1.239347   -0.274375
     27          6           0        7.880504   -0.229251   -0.815394
     28          6           0        5.461117   -1.884914    0.610643
     29          9           0        5.713158   -3.210873    0.429959
     30          9           0        6.464341   -1.390779    1.416312
     31          6           0        4.118820   -1.647671    1.300058
     32          6           0        2.872627    2.619075    0.431126
     33          7           0        2.160134    3.681304    0.097074
     34          7           0        0.867383    3.238130    0.099927
     35          6           0       -0.151666    4.175363   -0.254052
     36          6           0       -1.013463    3.923274   -1.325544
     37          6           0       -1.990062    4.857027   -1.669689
     38          6           0       -2.067909    6.041043   -0.945201
     39          9           0       -3.005465    6.948732   -1.278275
     40          6           0       -1.203450    6.320576    0.108568
     41          6           0       -0.240837    5.376233    0.456123
     42          6           0       -0.733971   -0.038003   -0.207697
     43          6           0       -2.165920   -0.585683   -0.092537
     44          6           0       -5.085744   -2.174859    0.770219
     45          6           0       -6.167680   -2.840701    0.198945
     46          1           0      -10.040554   -2.366828    0.884777
     47          1           0      -10.610986   -3.827303    0.013897
     48          1           0       -9.206629   -3.945225    1.122993
     49          1           0       -8.112355   -0.148094   -0.572970
     50          1           0       -6.173160    1.031132    0.453381
     51          1           0       -4.089154   -0.057680    2.630135
     52          1           0       -3.938945    1.005230    1.230927
     53          1           0       -2.042058   -0.504613    3.295224
     54          1           0       -0.826827   -1.186013    2.228342
     55          1           0       -1.567583    1.762130    2.519174
     56          1           0       -0.007653    0.962885    2.743065
     57          1           0       -1.343132    1.942862    0.267220
     58          1           0        5.347252    0.908137    0.176130
     59          1           0        4.079929    0.652419   -1.038102
     60          1           0        4.676459   -1.662358   -1.324156
     61          1           0        6.334330   -0.113037   -2.298169
     62          1           0        6.368618   -2.441369   -3.094725
     63          1           0        8.341693   -3.781966   -2.466345
     64          1           0        9.521860   -0.969638    0.545830
     65          1           0        7.549366    0.432017   -0.009184
     66          1           0        8.408361    0.416593   -1.534495
     67          1           0        3.388974   -2.408386    1.003152
     68          1           0        4.219791   -1.675778    2.388425
     69          1           0        3.945989    2.715406    0.520084
     70          1           0       -0.909303    3.008249   -1.899711
     71          1           0       -2.671742    4.685945   -2.495846
     72          1           0       -1.293829    7.260755    0.641961
     73          1           0        0.452102    5.564212    1.268687
     74          1           0       -0.526031    0.176024   -1.263750
     75          1           0       -0.004186   -0.782967    0.118380
     76          1           0       -2.229450   -1.558388   -0.600569
     77          1           0       -2.839841    0.090950   -0.639887
     78          1           0       -4.219729   -2.726107    1.123353
     79          1           0       -6.164192   -3.920505    0.087987
 ---------------------------------------------------------------------

 The electronic state is 1-A.
 Alpha  occ. eigenvalues --  -89.08822 -24.72069 -24.70901 -24.70656 -24.69564
 Alpha  occ. eigenvalues --  -19.13120 -19.13101 -19.11980 -14.43152 -14.37772
 Alpha  occ. eigenvalues --  -14.36121 -14.32683 -10.35679 -10.29971 -10.29245
 Alpha  occ. eigenvalues --  -10.26303 -10.25468 -10.24859 -10.24767 -10.23496
 Alpha  occ. eigenvalues --  -10.22521 -10.22431 -10.22389 -10.22328 -10.22298
 Alpha  occ. eigenvalues --  -10.22290 -10.22180 -10.22138 -10.21869 -10.21752
 Alpha  occ. eigenvalues --  -10.21340 -10.21242 -10.21199 -10.21152 -10.21040
 Alpha  occ. eigenvalues --  -10.20517 -10.20508 -10.20495 -10.20465 -10.20259
 Alpha  occ. eigenvalues --  -10.20119 -10.19988 -10.19173 -10.18784 -10.18273
 Alpha  occ. eigenvalues --   -8.11705  -6.08125  -6.08074  -6.08037  -1.25006
 Alpha  occ. eigenvalues --   -1.23301  -1.20622  -1.19233  -1.08907  -1.06350
 Alpha  occ. eigenvalues --   -1.04104  -0.98638  -0.95668  -0.92835  -0.89728
 Alpha  occ. eigenvalues --   -0.87342  -0.86073  -0.85113  -0.83097  -0.81409
 Alpha  occ. eigenvalues --   -0.79789  -0.78145  -0.78000  -0.77098  -0.76163
 Alpha  occ. eigenvalues --   -0.75963  -0.75903  -0.75310  -0.74929  -0.74094
 Alpha  occ. eigenvalues --   -0.70625  -0.68113  -0.65983  -0.65151  -0.64933
 Alpha  occ. eigenvalues --   -0.64103  -0.63795  -0.62751  -0.62403  -0.61839
 Alpha  occ. eigenvalues --   -0.61434  -0.60731  -0.59139  -0.57935  -0.57137
 Alpha  occ. eigenvalues --   -0.55809  -0.55197  -0.55016  -0.53555  -0.53024
 Alpha  occ. eigenvalues --   -0.52991  -0.52573  -0.51605  -0.51563  -0.50303
 Alpha  occ. eigenvalues --   -0.50183  -0.49166  -0.48572  -0.48039  -0.47963
 Alpha  occ. eigenvalues --   -0.47627  -0.47498  -0.47443  -0.47178  -0.46659
 Alpha  occ. eigenvalues --   -0.46552  -0.46482  -0.45833  -0.45689  -0.45659
 Alpha  occ. eigenvalues --   -0.45528  -0.45155  -0.44581  -0.44436  -0.44125
 Alpha  occ. eigenvalues --   -0.43592  -0.42858  -0.42553  -0.42411  -0.42030
 Alpha  occ. eigenvalues --   -0.41825  -0.41743  -0.41564  -0.41369  -0.41123
 Alpha  occ. eigenvalues --   -0.40938  -0.40407  -0.39998  -0.39730  -0.39528
 Alpha  occ. eigenvalues --   -0.39188  -0.38480  -0.38019  -0.37766  -0.37338
 Alpha  occ. eigenvalues --   -0.37274  -0.36909  -0.36689  -0.36443  -0.36216
 Alpha  occ. eigenvalues --   -0.36116  -0.35672  -0.34777  -0.33317  -0.33253
 Alpha  occ. eigenvalues --   -0.32437  -0.32185  -0.31877  -0.30613  -0.30602
 Alpha  occ. eigenvalues --   -0.30135  -0.29005  -0.28788  -0.28261  -0.28116
 Alpha  occ. eigenvalues --   -0.26657  -0.26319  -0.26282  -0.25380  -0.25160
 Alpha  occ. eigenvalues --   -0.24756  -0.21786  -0.20795
 Alpha virt. eigenvalues --   -0.03547  -0.03400  -0.03224  -0.03206  -0.01785
 Alpha virt. eigenvalues --   -0.01405   0.01239   0.05518   0.05792   0.07093
 Alpha virt. eigenvalues --    0.07569   0.07763   0.08246   0.08555   0.08793

 Mulliken charges:
               1
     1  C   -0.620581
     2  S    1.095586
     3  O   -0.542504
     4  O   -0.541327
     5  C   -0.160634
     6  C   -0.143765
     7  C   -0.182670
     8  C    0.152710
     9  C   -0.199439
    10  N   -0.392053
    11  C   -0.161468
    12  C   -0.273735
    13  C   -0.149674
    14  C    0.381051
    15  C   -0.118194
    16  C    0.554204
    17  O   -0.548123
    18  N   -0.482469
    19  C   -0.138832
    20  C   -0.202923
    21  C   -0.141680
    22  C   -0.127072
    23  C   -0.162875
    24  C    0.391775
    25  F   -0.302981
    26  C   -0.198109
    27  C   -0.317511
    28  C    0.612557
    29  F   -0.292491
    30  F   -0.298025
    31  C   -0.157680
    32  C    0.034405
    33  N   -0.298895
    34  N   -0.447491
    35  C    0.278582
    36  C   -0.140919
    37  C   -0.213468
    38  C    0.393339
    39  F   -0.290587
    40  C   -0.211432
    41  C   -0.121563
    42  C   -0.309762
    43  C   -0.119857
    44  C   -0.160568
    45  C   -0.146279
    46  H    0.198566
    47  H    0.216496
    48  H    0.199188
    49  H    0.176364
    50  H    0.133983
    51  H    0.158303
    52  H    0.121748
    53  H    0.136399
    54  H    0.178034
    55  H    0.130194
    56  H    0.170690
    57  H    0.139005
    58  H    0.166127
    59  H    0.173469
    60  H    0.158486
    61  H    0.143098
    62  H    0.137656
    63  H    0.149082
    64  H    0.144447
    65  H    0.154302
    66  H    0.155884
    67  H    0.179465
    68  H    0.186782
    69  H    0.151662
    70  H    0.159108
    71  H    0.160053
    72  H    0.159943
    73  H    0.167537
    74  H    0.132553
    75  H    0.178646
    76  H    0.143648
    77  H    0.128701
    78  H    0.158158
    79  H    0.175650
 Sum of Mulliken charges =  -0.00000

 Dipole moment (field-independent basis, Debye):
    X=              1.5285    Y=              4.0760    Z=              1.9586  Tot=              4.7735
 Quadrupole moment (field-independent basis, Debye-Ang):
   XX=           -304.2722   YY=           -278.9470   ZZ=           -267.2934
   XY=             -1.8105   XZ=            -48.9015   YZ=             -4.0347

 Normal termination of Gaussian 16 at Fri Nov  4 21:36:52 2022.
