 Gaussian 16, Revision B.01,
 Gaussian 16:  ES64L-G16RevB.01 20-Dec-2017

 -------------------------------------------------------------------
 #p b3lyp/6-31g(d) 6D 10F nosymm GFInput td=(50-50,nstate=2) SCF=XQC
 -------------------------------------------------------------------

 ------------------------------
 Gaussian input prepared by ASE
 ------------------------------
 Symbolic Z-matrix:
 Charge =  0 Multiplicity = 1

                          Input orientation:
 ---------------------------------------------------------------------
 Center     Atomic      Atomic             Coordinates (Angstroms)
 Number     Number       Type             X           Y           Z
 ---------------------------------------------------------------------
      1          6           0       10.015975    1.570954   -2.145806
      2         16           0        8.797529    0.485130   -2.932638
      3          8           0        9.356975   -0.876481   -2.927609
      4          8           0        8.381821    1.131788   -4.187708
      5          6           0        7.401160    0.516576   -1.799640
      6          6           0        7.314742   -0.446107   -0.793197
      7          6           0        6.227591   -0.415455    0.079238
      8          6           0        5.234734    0.565013   -0.040205
      9          6           0        4.080262    0.617918    0.950090
     10          7           0        2.837359    1.076994    0.350994
     11          6           0        1.868591    1.648858    1.291071
     12          6           0        1.076441    0.615952    2.113516
     13          6           0        0.593230   -0.563154    1.203228
     14          6           0       -0.800227   -1.022783    1.548395
     15          6           0       -2.054276   -0.408554    1.411364
     16          6           0       -2.314467    0.937868    0.854084
     17          8           0       -1.462817    1.834465    0.864392
     18          7           0       -3.555596    1.197546    0.326586
     19          6           0       -4.586724    0.236783   -0.099688
     20          6           0       -5.263968    0.934851   -1.294285
     21          6           0       -6.626096    0.332368   -1.740420
     22          6           0       -6.966855    0.800512   -3.144021
     23          6           0       -7.939995    1.690938   -3.382518
     24          6           0       -8.733326    2.220570   -2.280238
     25          9           0       -9.532714    3.266010   -2.595921
     26          6           0       -8.681866    1.726049   -1.042221
     27          6           0       -7.827853    0.510444   -0.768091
     28          6           0       -5.175109    2.402913   -0.866780
     29          9           0       -5.339388    3.281278   -1.894314
     30          9           0       -6.140278    2.697037    0.072193
     31          6           0       -3.800666    2.538310   -0.214160
     32          6           0       -2.964433   -1.311818    2.019758
     33          7           0       -2.366796   -2.395465    2.484635
     34          7           0       -1.048438   -2.217204    2.171954
     35          6           0       -0.138418   -3.257839    2.534045
     36          6           0        0.644868   -3.891455    1.564854
     37          6           0        1.513833   -4.918076    1.932316
     38          6           0        1.562695   -5.307428    3.266053
     39          9           0        2.395825   -6.303060    3.624470
     40          6           0        0.773139   -4.705501    4.240804
     41          6           0       -0.080828   -3.670440    3.868523
     42          6           0        0.766891   -0.208613   -0.290192
     43          6           0        2.241183    0.105618   -0.592537
     44          6           0        5.337526    1.513861   -1.066577
     45          6           0        6.414189    1.493816   -1.950138
     46          1           0       10.283932    1.163598   -1.169036
     47          1           0       10.887640    1.582787   -2.805076
     48          1           0        9.596991    2.574724   -2.052411
     49          1           0        8.073231   -1.218697   -0.718228
     50          1           0        6.144783   -1.170745    0.857601
     51          1           0        4.345178    1.326769    1.746813
     52          1           0        3.994247   -0.373708    1.438027
     53          1           0        2.403117    2.335116    1.957356
     54          1           0        1.156489    2.256906    0.724826
     55          1           0        1.691383    0.208815    2.925750
     56          1           0        0.222324    1.123052    2.567504
     57          1           0        1.261015   -1.409830    1.393069
     58          1           0       -5.313395    0.053182    0.702469
     59          1           0       -4.139271   -0.720084   -0.378897
     60          1           0       -4.579026    0.850969   -2.149286
     61          1           0       -6.428318   -0.747393   -1.798591
     62          1           0       -6.352412    0.426392   -3.960367
     63          1           0       -8.155613    2.055908   -4.382539
     64          1           0       -9.284551    2.154563   -0.248419
     65          1           0       -7.480299    0.529670    0.269086
     66          1           0       -8.463501   -0.384759   -0.854220
     67          1           0       -3.042898    2.812288   -0.955940
     68          1           0       -3.805264    3.301225    0.569082
     69          1           0       -4.030391   -1.199630    2.162752
     70          1           0        0.562174   -3.595100    0.524123
     71          1           0        2.133079   -5.425637    1.200601
     72          1           0        0.836711   -5.046072    5.268706
     73          1           0       -0.713722   -3.183087    4.601800
     74          1           0        0.453163   -1.050558   -0.920270
     75          1           0        0.127077    0.639373   -0.546010
     76          1           0        2.335168    0.469396   -1.625552
     77          1           0        2.811721   -0.834509   -0.545197
     78          1           0        4.549869    2.253795   -1.169807
     79          1           0        6.483939    2.210294   -2.762600
 ---------------------------------------------------------------------

 SCF Done:  E(RB3LYP) =  -2520.09148715     A.U. after   15 cycles

 Excitation energies and oscillator strengths:

 Excited state symmetry could not be determined.
 Excited State   1:      Triplet-?Sym    2.5104 eV  493.88 nm  f=0.0000  <S**2>=2.000
     167 ->170        -0.29758
     167 ->171         0.61394
     167 ->172         0.16633
     167 <-171         0.12155
 This state for optimization and/or second-order correction.
 Total Energy, E(TD-HF/TD-DFT) =  -2519.99923138
 Copying the excited state density for this state as the 1-particle RhoCI density.

 Excited state symmetry could not be determined.
 Excited State   2:      Triplet-?Sym    3.6325 eV  341.32 nm  f=0.0000  <S**2>=2.000
     161 ->173        -0.35511
     162 ->169        -0.16825
     163 ->169        -0.45335
     168 ->169         0.33887

 Excited state symmetry could not be determined.
 Excited State   3:      Singlet-?Sym    3.9431 eV  314.43 nm  f=0.0083  <S**2>=0.000
     168 ->169         0.70470

 Excited state symmetry could not be determined.
 Excited State   4:      Singlet-?Sym    4.1903 eV  295.88 nm  f=0.0002  <S**2>=0.000
     168 ->170         0.65530
     168 ->171         0.23741

 Alpha  occ. eigenvalues --  -89.08822 -24.72069 -24.70901 -24.70656 -24.69564
 Alpha  occ. eigenvalues --  -19.13120 -19.13101 -19.11980 -14.43152 -14.37773
 Alpha  occ. eigenvalues --  -14.36121 -14.32683 -10.35679 -10.29971 -10.29245
 Alpha  occ. eigenvalues --  -10.26303 -10.25468 -10.24859 -10.24767 -10.23496
 Alpha  occ. eigenvalues --  -10.22521 -10.22431 -10.22389 -10.22328 -10.22298
 Alpha  occ. eigenvalues --  -10.22290 -10.22180 -10.22138 -10.21869 -10.21752
 Alpha  occ. eigenvalues --  -10.21340 -10.21242 -10.21199 -10.21152 -10.21040
 Alpha  occ. eigenvalues --  -10.20517 -10.20508 -10.20496 -10.20465 -10.20259
 Alpha  occ. eigenvalues --  -10.20119 -10.19988 -10.19173 -10.18784 -10.18273
 Alpha  occ. eigenvalues --   -8.11705  -6.08125  -6.08074  -6.08037  -1.25006
 Alpha  occ. eigenvalues --   -1.23301  -1.20622  -1.19234  -1.08907  -1.06349
 Alpha  occ. eigenvalues --   -1.04104  -0.98638  -0.95669  -0.92835  -0.89728
 Alpha  occ. eigenvalues --   -0.87342  -0.86073  -0.85113  -0.83097  -0.81409
 Alpha  occ. eigenvalues --   -0.79789  -0.78145  -0.78000  -0.77098  -0.76163
 Alpha  occ. eigenvalues --   -0.75963  -0.75903  -0.75310  -0.74929  -0.74094
 Alpha  occ. eigenvalues --   -0.70625  -0.68113  -0.65983  -0.65151  -0.64933
 Alpha  occ. eigenvalues --   -0.64103  -0.63795  -0.62751  -0.62403  -0.61839
 Alpha  occ. eigenvalues --   -0.61434  -0.60731  -0.59139  -0.57935  -0.57137
 Alpha  occ. eigenvalues --   -0.55809  -0.55197  -0.55016  -0.53555  -0.53024
 Alpha  occ. eigenvalues --   -0.52991  -0.52573  -0.51605  -0.51562  -0.50303
 Alpha  occ. eigenvalues --   -0.50183  -0.49166  -0.48572  -0.48039  -0.47963
 Alpha  occ. eigenvalues --   -0.47627  -0.47498  -0.47443  -0.47178  -0.46659
 Alpha  occ. eigenvalues --   -0.46552  -0.46482  -0.45833  -0.45689  -0.45659
 Alpha  occ. eigenvalues --   -0.45528  -0.45155  -0.44581  -0.44436  -0.44125
 Alpha  occ. eigenvalues --   -0.43592  -0.42858  -0.42553  -0.42411  -0.42030
 Alpha  occ. eigenvalues --   -0.41825  -0.41743  -0.41564  -0.41369  -0.41123
 Alpha  occ. eigenvalues --   -0.40938  -0.40407  -0.39998  -0.39730  -0.39528
 Alpha  occ. eigenvalues --   -0.39188  -0.38480  -0.38019  -0.37766  -0.37338
 Alpha  occ. eigenvalues --   -0.37275  -0.36909  -0.36689  -0.36443  -0.36216
 Alpha  occ. eigenvalues --   -0.36116  -0.35672  -0.34777  -0.33317  -0.33253
 Alpha  occ. eigenvalues --   -0.32438  -0.32185  -0.31877  -0.30613  -0.30602
 Alpha  occ. eigenvalues --   -0.30135  -0.29005  -0.28788  -0.28260  -0.28116
 Alpha  occ. eigenvalues --   -0.26657  -0.26319  -0.26282  -0.25380  -0.25160
 Alpha  occ. eigenvalues --   -0.24756  -0.21786  -0.20795
 Alpha virt. eigenvalues --   -0.03547  -0.03400  -0.03224  -0.03206  -0.01785
 Alpha virt. eigenvalues --   -0.01405   0.01239   0.05518   0.05792   0.07093
 Alpha virt. eigenvalues --    0.07569   0.07763   0.08246   0.08555   0.08794

 Mulliken charges:
               1
     1  C   -0.620585
     2  S    1.095605
     3  O   -0.542504
     4  O   -0.541331
     5  C   -0.160650
     6  C   -0.143763
     7  C   -0.182658
     8  C    0.152685
     9  C   -0.199437
    10  N   -0.392047
    11  C   -0.161490
    12  C   -0.273742
    13  C   -0.149637
    14  C    0.381074
    15  C   -0.118215
    16  C    0.554192
    17  O   -0.548130
    18  N   -0.482483
    19  C   -0.138857
    20  C   -0.202841
    21  C   -0.141737
    22  C   -0.127095
    23  C   -0.162856
    24  C    0.391751
    25  F   -0.302982
    26  C   -0.198064
    27  C   -0.317516
    28  C    0.612584
    29  F   -0.292492
    30  F   -0.298038
    31  C   -0.157678
    32  C    0.034422
    33  N   -0.298901
    34  N   -0.447497
    35  C    0.278586
    36  C   -0.140919
    37  C   -0.213480
    38  C    0.393341
    39  F   -0.290588
    40  C   -0.211420
    41  C   -0.121569
    42  C   -0.309777
    43  C   -0.119840
    44  C   -0.160556
    45  C   -0.146283
    46  H    0.198566
    47  H    0.216496
    48  H    0.199187
    49  H    0.176367
    50  H    0.133982
    51  H    0.158302
    52  H    0.121752
    53  H    0.136402
    54  H    0.178033
    55  H    0.130193
    56  H    0.170693
    57  H    0.139001
    58  H    0.166130
    59  H    0.173469
    60  H    0.158474
    61  H    0.143101
    62  H    0.137656
    63  H    0.149083
    64  H    0.144445
    65  H    0.154300
    66  H    0.155885
    67  H    0.179465
    68  H    0.186782
    69  H    0.151661
    70  H    0.159109
    71  H    0.160053
    72  H    0.159941
    73  H    0.167536
    74  H    0.132553
    75  H    0.178647
    76  H    0.143645
    77  H    0.128696
    78  H    0.158162
    79  H    0.175650
 Sum of Mulliken charges =  -0.00000

 Dipole moment (field-independent basis, Debye):
    X=             -1.6626    Y=             -1.4939    Z=              4.2179  Tot=              4.7735
 Quadrupole moment (field-independent basis, Debye-Ang):
   XX=           -295.8974   YY=           -277.2411   ZZ=           -278.3813
   XY=             34.7924   XZ=             38.3383   YZ=              1.5406

 Normal termination of Gaussian 16 at Sat Nov  5 12:08:42 2022.
