 Gaussian 16, Revision B.01,
 Gaussian 16:  ES64L-G16RevB.01 20-Dec-2017

 -----------------------------
 #p b3lyp/6-31g(d) opt SCF=XQC
 -----------------------------

 ------------------------------
 Gaussian input prepared by ASE
 ------------------------------
 Symbolic Z-matrix:
 Charge =  0 Multiplicity = 1

 SCF Done:  E(RB3LYP) =  -1059.94315812     A.U. after   17 cycles
 SCF Done:  E(RB3LYP) =  -1059.94829533     A.U. after   14 cycles
 SCF Done:  E(RB3LYP) =  -1059.94987084     A.U. after   14 cycles
 SCF Done:  E(RB3LYP) =  -1059.95026085     A.U. after   12 cycles
 SCF Done:  E(RB3LYP) =  -1059.95035354     A.U. after   12 cycles
 SCF Done:  E(RB3LYP) =  -1059.95039482     A.U. after   10 cycles
 SCF Done:  E(RB3LYP) =  -1059.95041008     A.U. after   10 cycles
 SCF Done:  E(RB3LYP) =  -1059.95042282     A.U. after   11 cycles
 SCF Done:  E(RB3LYP) =  -1059.95043153     A.U. after   11 cycles
 SCF Done:  E(RB3LYP) =  -1059.95044142     A.U. after   11 cycles
 SCF Done:  E(RB3LYP) =  -1059.95046885     A.U. after    8 cycles
 SCF Done:  E(RB3LYP) =  -1059.95046936     A.U. after    8 cycles
 SCF Done:  E(RB3LYP) =  -1059.95047039     A.U. after    8 cycles
 SCF Done:  E(RB3LYP) =  -1059.95047133     A.U. after    9 cycles
 SCF Done:  E(RB3LYP) =  -1059.95047292     A.U. after    9 cycles
 SCF Done:  E(RB3LYP) =  -1059.95047663     A.U. after   10 cycles
 SCF Done:  E(RB3LYP) =  -1059.95047833     A.U. after    9 cycles
 SCF Done:  E(RB3LYP) =  -1059.95047903     A.U. after    8 cycles
 SCF Done:  E(RB3LYP) =  -1059.95047931     A.U. after    9 cycles
 SCF Done:  E(RB3LYP) =  -1059.95047933     A.U. after    7 cycles
 Optimization completed.
    -- Stationary point found.

                         Standard orientation:
 ---------------------------------------------------------------------
 Center     Atomic      Atomic             Coordinates (Angstroms)
 Number     Number       Type             X           Y           Z
 ---------------------------------------------------------------------
      1          6           0        4.364594   -3.241956   -0.378395
      2          7           0        3.442605   -2.128251   -0.292690
      3          6           0        3.726335   -0.811176   -0.169508
      4          6           0        2.523227   -0.135226   -0.019028
      5          6           0        2.335080    1.314655    0.144827
      6          6           0        1.358782    1.836464    1.013038
      7          6           0        1.205350    3.213416    1.172833
      8          6           0        2.028564    4.101845    0.479146
      9          6           0        3.006286    3.598818   -0.382189
     10          6           0        3.152283    2.223692   -0.552449
     11          6           0        1.553262   -1.185851   -0.074896
     12          7           0        0.168737   -0.995655   -0.032752
     13          6           0       -0.793079   -1.940557    0.279655
     14          8           0       -0.561826   -3.095257    0.605548
     15          6           0       -2.182014   -1.428137    0.192875
     16          6           0       -3.345125   -2.182591    0.443215
     17          7           0       -4.482888   -1.493971    0.297548
     18          7           0       -4.063558   -0.254482   -0.056502
     19          6           0       -4.854841    0.816024   -0.317606
     20          6           0       -4.244824    1.995763   -0.659647
     21          6           0       -2.824902    2.037242   -0.722507
     22          7           0       -2.053186    0.997360   -0.470039
     23          6           0       -2.664547   -0.157877   -0.135454
     24          7           0        2.112259   -2.381997   -0.244495
     25          1           0        4.068147   -3.896956   -1.201545
     26          1           0        4.360110   -3.818993    0.552166
     27          1           0        5.369599   -2.855699   -0.562628
     28          1           0        4.743442   -0.444988   -0.162827
     29          1           0        0.732980    1.157075    1.583707
     30          1           0        0.447551    3.591498    1.854516
     31          1           0        1.911018    5.174448    0.608403
     32          1           0        3.651085    4.279885   -0.931911
     33          1           0        3.896554    1.841386   -1.246154
     34          1           0       -0.160536   -0.060087   -0.258554
     35          1           0       -3.380519   -3.225040    0.728910
     36          1           0       -5.922705    0.652603   -0.233766
     37          1           0       -4.837373    2.876208   -0.876411
     38          1           0       -2.319104    2.962405   -0.989224
 ---------------------------------------------------------------------

 The electronic state is 1-A.
 Alpha  occ. eigenvalues --  -19.09880 -14.45537 -14.40559 -14.36762 -14.36647
 Alpha  occ. eigenvalues --  -14.35536 -14.33065 -10.28303 -10.27733 -10.27720
 Alpha  occ. eigenvalues --  -10.26111 -10.23720 -10.22907 -10.22689 -10.22585
 Alpha  occ. eigenvalues --  -10.21691 -10.20044 -10.19609 -10.18882 -10.18861
 Alpha  occ. eigenvalues --  -10.18728 -10.18675 -10.18589 -10.18334  -1.08651
 Alpha  occ. eigenvalues --   -1.04256  -1.01760  -0.97005  -0.92240  -0.88861
 Alpha  occ. eigenvalues --   -0.85343  -0.82809  -0.80846  -0.79195  -0.77980
 Alpha  occ. eigenvalues --   -0.74255  -0.74036  -0.70214  -0.68800  -0.66432
 Alpha  occ. eigenvalues --   -0.64205  -0.61765  -0.61121  -0.59657  -0.58021
 Alpha  occ. eigenvalues --   -0.56134  -0.54325  -0.53221  -0.52786  -0.50716
 Alpha  occ. eigenvalues --   -0.50325  -0.49456  -0.48505  -0.47216  -0.46412
 Alpha  occ. eigenvalues --   -0.46041  -0.44939  -0.44708  -0.43145  -0.42307
 Alpha  occ. eigenvalues --   -0.41996  -0.41830  -0.41409  -0.40512  -0.40257
 Alpha  occ. eigenvalues --   -0.38966  -0.38938  -0.38397  -0.36082  -0.34853
 Alpha  occ. eigenvalues --   -0.34190  -0.33889  -0.32665  -0.29782  -0.28730
 Alpha  occ. eigenvalues --   -0.28494  -0.27422  -0.26762  -0.24826  -0.23732
 Alpha  occ. eigenvalues --   -0.23521  -0.22100  -0.19962
 Alpha virt. eigenvalues --   -0.07038  -0.02992  -0.01002   0.00070   0.00404
 Alpha virt. eigenvalues --    0.03802   0.07630   0.08518   0.09591   0.09986
 Alpha virt. eigenvalues --    0.10509   0.12341   0.12779   0.13835   0.14335

 Mulliken charges:
               1
     1  C   -0.302581
     2  N   -0.231569
     3  C    0.047795
     4  C   -0.083904
     5  C    0.098121
     6  C   -0.181530
     7  C   -0.137477
     8  C   -0.130574
     9  C   -0.134014
    10  C   -0.171530
    11  C    0.523633
    12  N   -0.780030
    13  C    0.604452
    14  O   -0.504784
    15  C   -0.093794
    16  C    0.050060
    17  N   -0.312707
    18  N   -0.340097
    19  C    0.133961
    20  C   -0.215706
    21  C    0.062997
    22  N   -0.511485
    23  C    0.544519
    24  N   -0.361881
    25  H    0.187406
    26  H    0.183535
    27  H    0.159904
    28  H    0.158250
    29  H    0.141468
    30  H    0.126747
    31  H    0.125627
    32  H    0.127790
    33  H    0.125031
    34  H    0.377665
    35  H    0.184440
    36  H    0.198989
    37  H    0.164294
    38  H    0.166980
 Sum of Mulliken charges =  -0.00000

 Dipole moment (field-independent basis, Debye):
    X=             -0.1720    Y=              5.2997    Z=             -1.4600  Tot=              5.4998
 Quadrupole moment (field-independent basis, Debye-Ang):
   XX=           -100.8981   YY=           -135.2004   ZZ=           -137.1622
   XY=            -19.8940   XZ=             -0.6892   YZ=              0.5794

 Normal termination of Gaussian 16 at Fri Nov  4 19:49:18 2022.
