 Gaussian 16, Revision B.01,
 Gaussian 16:  ES64L-G16RevB.01 20-Dec-2017

 -------------------------------------------------------------------
 #p b3lyp/6-31g(d) 6D 10F nosymm GFInput td=(50-50,nstate=2) SCF=XQC
 -------------------------------------------------------------------

 ------------------------------
 Gaussian input prepared by ASE
 ------------------------------
 Symbolic Z-matrix:
 Charge =  0 Multiplicity = 1

                          Input orientation:
 ---------------------------------------------------------------------
 Center     Atomic      Atomic             Coordinates (Angstroms)
 Number     Number       Type             X           Y           Z
 ---------------------------------------------------------------------
      1          6           0       -3.869811   -3.654116    0.879178
      2          7           0       -3.008729   -2.501633    0.711647
      3          6           0       -3.362767   -1.210837    0.514496
      4          6           0       -2.198891   -0.484162    0.303885
      5          6           0       -2.089253    0.960868    0.050368
      6          6           0       -1.153405    1.478643   -0.863596
      7          6           0       -1.074553    2.849433   -1.108117
      8          6           0       -1.933840    3.734716   -0.455363
      9          6           0       -2.872188    3.235173    0.450637
     10          6           0       -2.943571    1.867221    0.705369
     11          6           0       -1.174501   -1.478072    0.406523
     12          7           0        0.197454   -1.219684    0.330135
     13          6           0        1.203219   -2.130978    0.059010
     14          8           0        1.028486   -3.313708   -0.193244
     15          6           0        2.564410   -1.543337    0.091919
     16          6           0        3.762020   -2.250647   -0.132001
     17          7           0        4.863958   -1.496736   -0.046715
     18          7           0        4.384994   -0.261305    0.239338
     19          6           0        5.122481    0.862429    0.422697
     20          6           0        4.456082    2.027743    0.703501
     21          6           0        3.036910    1.999728    0.787272
     22          7           0        2.317471    0.908053    0.610373
     23          6           0        2.984028   -0.232316    0.335520
     24          7           0       -1.667674   -2.688936    0.656713
     25          1           0       -3.528400   -4.241801    1.735069
     26          1           0       -3.847563   -4.285566   -0.015087
     27          1           0       -4.891126   -3.309698    1.056560
     28          1           0       -4.397676   -0.898635    0.502735
     29          1           0       -0.500552    0.799029   -1.402824
     30          1           0       -0.346842    3.223996   -1.823684
     31          1           0       -1.874451    4.802127   -0.650577
     32          1           0       -3.544379    3.914211    0.969172
     33          1           0       -3.657391    1.489874    1.432963
     34          1           0        0.480212   -0.256412    0.493996
     35          1           0        3.848196   -3.305301   -0.355277
     36          1           0        6.196224    0.749472    0.331123
     37          1           0        5.004499    2.949087    0.857285
     38          1           0        2.486917    2.912074    1.006424
 ---------------------------------------------------------------------

 SCF Done:  E(RB3LYP) =  -1059.95047822     A.U. after   17 cycles

 Excitation energies and oscillator strengths:

 Excited state symmetry could not be determined.
 Excited State   1:      Triplet-?Sym    2.7214 eV  455.59 nm  f=0.0000  <S**2>=2.000
      80 -> 84        -0.28895
      81 -> 84         0.44105
      82 -> 84         0.14611
      83 -> 84        -0.41888
 This state for optimization and/or second-order correction.
 Total Energy, E(TD-HF/TD-DFT) =  -1059.85046968
 Copying the excited state density for this state as the 1-particle RhoCI density.

 Excited state symmetry could not be determined.
 Excited State   2:      Singlet-?Sym    2.9951 eV  413.95 nm  f=0.0115  <S**2>=0.000
      83 -> 84         0.70395

 Excited state symmetry could not be determined.
 Excited State   3:      Triplet-?Sym    3.0651 eV  404.50 nm  f=0.0000  <S**2>=2.000
      80 -> 84        -0.22296
      81 -> 84         0.33829
      83 -> 84         0.55672

 Excited state symmetry could not be determined.
 Excited State   4:      Singlet-?Sym    3.6029 eV  344.13 nm  f=0.0054  <S**2>=0.000
      80 -> 84        -0.13176
      82 -> 84         0.68849

 Alpha  occ. eigenvalues --  -19.09880 -14.45537 -14.40559 -14.36762 -14.36647
 Alpha  occ. eigenvalues --  -14.35536 -14.33065 -10.28303 -10.27732 -10.27720
 Alpha  occ. eigenvalues --  -10.26111 -10.23720 -10.22907 -10.22689 -10.22585
 Alpha  occ. eigenvalues --  -10.21691 -10.20044 -10.19609 -10.18882 -10.18861
 Alpha  occ. eigenvalues --  -10.18728 -10.18675 -10.18589 -10.18334  -1.08651
 Alpha  occ. eigenvalues --   -1.04256  -1.01760  -0.97005  -0.92240  -0.88861
 Alpha  occ. eigenvalues --   -0.85343  -0.82809  -0.80846  -0.79195  -0.77980
 Alpha  occ. eigenvalues --   -0.74255  -0.74036  -0.70214  -0.68800  -0.66432
 Alpha  occ. eigenvalues --   -0.64205  -0.61765  -0.61121  -0.59657  -0.58021
 Alpha  occ. eigenvalues --   -0.56134  -0.54325  -0.53221  -0.52786  -0.50716
 Alpha  occ. eigenvalues --   -0.50325  -0.49456  -0.48505  -0.47216  -0.46412
 Alpha  occ. eigenvalues --   -0.46041  -0.44939  -0.44708  -0.43145  -0.42307
 Alpha  occ. eigenvalues --   -0.41996  -0.41830  -0.41409  -0.40512  -0.40257
 Alpha  occ. eigenvalues --   -0.38966  -0.38938  -0.38397  -0.36082  -0.34853
 Alpha  occ. eigenvalues --   -0.34190  -0.33889  -0.32665  -0.29782  -0.28730
 Alpha  occ. eigenvalues --   -0.28494  -0.27422  -0.26762  -0.24826  -0.23732
 Alpha  occ. eigenvalues --   -0.23521  -0.22100  -0.19962
 Alpha virt. eigenvalues --   -0.07038  -0.02992  -0.01002   0.00070   0.00404
 Alpha virt. eigenvalues --    0.03802   0.07630   0.08518   0.09591   0.09986
 Alpha virt. eigenvalues --    0.10509   0.12341   0.12779   0.13835   0.14335

 Mulliken charges:
               1
     1  C   -0.302581
     2  N   -0.231571
     3  C    0.047806
     4  C   -0.083935
     5  C    0.098139
     6  C   -0.181536
     7  C   -0.137476
     8  C   -0.130577
     9  C   -0.134013
    10  C   -0.171528
    11  C    0.523641
    12  N   -0.780026
    13  C    0.604446
    14  O   -0.504784
    15  C   -0.093790
    16  C    0.050052
    17  N   -0.312706
    18  N   -0.340085
    19  C    0.133958
    20  C   -0.215695
    21  C    0.062990
    22  N   -0.511470
    23  C    0.544499
    24  N   -0.361879
    25  H    0.187406
    26  H    0.183535
    27  H    0.159904
    28  H    0.158249
    29  H    0.141468
    30  H    0.126747
    31  H    0.125627
    32  H    0.127790
    33  H    0.125031
    34  H    0.377664
    35  H    0.184441
    36  H    0.198988
    37  H    0.164293
    38  H    0.166980
 Sum of Mulliken charges =  -0.00000

 Dipole moment (field-independent basis, Debye):
    X=             -0.0867    Y=              5.3803    Z=              1.1368  Tot=              5.4998
 Quadrupole moment (field-independent basis, Debye-Ang):
   XX=           -103.1544   YY=           -135.5195   ZZ=           -136.4793
   XY=             23.1682   XZ=             -2.0866   YZ=             -0.1333

 Normal termination of Gaussian 16 at Sat Nov  5 11:53:57 2022.
