 Gaussian 16, Revision B.01,
 Gaussian 16:  ES64L-G16RevB.01 20-Dec-2017

 -----------------------------
 #p b3lyp/6-31g(d) opt SCF=XQC
 -----------------------------

 ------------------------------
 Gaussian input prepared by ASE
 ------------------------------
 Symbolic Z-matrix:
 Charge =  0 Multiplicity = 1

 SCF Done:  E(RB3LYP) =  -2297.19812014     A.U. after   15 cycles
 SCF Done:  E(RB3LYP) =  -2297.21102322     A.U. after   13 cycles
 SCF Done:  E(RB3LYP) =  -2297.21325765     A.U. after   13 cycles
 SCF Done:  E(RB3LYP) =  -2297.21378799     A.U. after   13 cycles
 SCF Done:  E(RB3LYP) =  -2297.21444506     A.U. after   12 cycles
 SCF Done:  E(RB3LYP) =  -2297.21476471     A.U. after   12 cycles
 SCF Done:  E(RB3LYP) =  -2297.21486538     A.U. after   12 cycles
 SCF Done:  E(RB3LYP) =  -2297.21489851     A.U. after   11 cycles
 SCF Done:  E(RB3LYP) =  -2297.21490433     A.U. after   10 cycles
 SCF Done:  E(RB3LYP) =  -2297.21490637     A.U. after    9 cycles
 SCF Done:  E(RB3LYP) =  -2297.21490758     A.U. after    8 cycles
 SCF Done:  E(RB3LYP) =  -2297.21490771     A.U. after    8 cycles
 SCF Done:  E(RB3LYP) =  -2297.21490779     A.U. after    7 cycles
 SCF Done:  E(RB3LYP) =  -2297.21490782     A.U. after    7 cycles
 SCF Done:  E(RB3LYP) =  -2297.21490784     A.U. after    7 cycles
 SCF Done:  E(RB3LYP) =  -2297.21490785     A.U. after    7 cycles
 SCF Done:  E(RB3LYP) =  -2297.21490786     A.U. after    7 cycles
 SCF Done:  E(RB3LYP) =  -2297.21490788     A.U. after    6 cycles
 SCF Done:  E(RB3LYP) =  -2297.21490788     A.U. after    6 cycles
 SCF Done:  E(RB3LYP) =  -2297.21490789     A.U. after    6 cycles
 Optimization completed.
    -- Stationary point found.

                         Standard orientation:
 ---------------------------------------------------------------------
 Center     Atomic      Atomic             Coordinates (Angstroms)
 Number     Number       Type             X           Y           Z
 ---------------------------------------------------------------------
      1          8           0       -1.238214    1.204163    1.666664
      2          6           0       -1.850673    1.311760    0.617314
      3          7           0       -1.410624    2.140461   -0.409869
      4         16           0       -0.134037    3.290373   -0.261802
      5          8           0       -0.163624    3.937062   -1.574455
      6          8           0       -0.287340    4.044554    0.973963
      7          6           0        1.337381    2.272894   -0.141444
      8          6           0        2.049559    1.995462   -1.310133
      9          6           0        3.208317    1.225749   -1.224421
     10          6           0        3.621505    0.756436    0.023473
     11         16           0        5.130124   -0.240240    0.132228
     12          8           0        5.931053    0.067856   -1.062725
     13          8           0        5.659160   -0.067767    1.493643
     14          6           0        4.557239   -1.940960   -0.019321
     15          6           0        4.485525   -2.524883   -1.285696
     16          6           0        4.044690   -3.843557   -1.396057
     17          6           0        3.685025   -4.560128   -0.251955
     18          6           0        3.772440   -3.966553    1.009706
     19          6           0        4.212218   -2.648779    1.133853
     20          6           0        2.918737    1.056923    1.191633
     21          6           0        1.759565    1.827037    1.112764
     22          6           0       -3.111630    0.545136    0.341054
     23          6           0       -3.608858    0.301743   -0.946634
     24          6           0       -4.781996   -0.428520   -1.120648
     25          6           0       -5.468569   -0.916307   -0.006754
     26          6           0       -6.709995   -1.750562   -0.195770
     27          9           0       -6.409669   -3.066491   -0.279449
     28          9           0       -7.366626   -1.421231   -1.328741
     29          9           0       -7.570219   -1.605439    0.834066
     30          6           0       -4.975605   -0.683924    1.280815
     31          6           0       -3.799028    0.037030    1.451710
     32          1           0       -2.010282    2.358391   -1.198602
     33          1           0        1.710815    2.393373   -2.260380
     34          1           0        3.801779    1.012446   -2.106827
     35          1           0        4.792778   -1.960250   -2.159620
     36          1           0        3.989917   -4.313310   -2.373889
     37          1           0        3.343595   -5.587505   -0.343060
     38          1           0        3.505712   -4.531319    1.898298
     39          1           0        4.310357   -2.179287    2.106913
     40          1           0        3.289247    0.712280    2.150916
     41          1           0        1.188050    2.074930    1.998627
     42          1           0       -3.074295    0.647024   -1.826945
     43          1           0       -5.164122   -0.617140   -2.118041
     44          1           0       -5.515164   -1.061497    2.142890
     45          1           0       -3.396148    0.222041    2.441445
 ---------------------------------------------------------------------

 The electronic state is 1-A.
 Alpha  occ. eigenvalues --  -89.14113 -89.10442 -24.73942 -24.73888 -24.73338
 Alpha  occ. eigenvalues --  -19.16796 -19.16777 -19.15686 -19.14898 -19.14875
 Alpha  occ. eigenvalues --  -14.40717 -10.44838 -10.33392 -10.25525 -10.24859
 Alpha  occ. eigenvalues --  -10.24236 -10.24078 -10.23775 -10.23746 -10.23663
 Alpha  occ. eigenvalues --  -10.23361 -10.23359 -10.23333 -10.23234 -10.23094
 Alpha  occ. eigenvalues --  -10.22821 -10.22338 -10.22320 -10.22022 -10.21830
 Alpha  occ. eigenvalues --  -10.21806  -8.16591  -8.13290  -6.13149  -6.12977
 Alpha  occ. eigenvalues --   -6.12873  -6.09716  -6.09673  -6.09613  -1.31519
 Alpha  occ. eigenvalues --   -1.22982  -1.22499  -1.13778  -1.10641  -1.07353
 Alpha  occ. eigenvalues --   -1.02767  -1.00503  -0.94835  -0.90239  -0.90010
 Alpha  occ. eigenvalues --   -0.88468  -0.81992  -0.81289  -0.78845  -0.78747
 Alpha  occ. eigenvalues --   -0.78606  -0.77434  -0.73661  -0.71594  -0.68663
 Alpha  occ. eigenvalues --   -0.66167  -0.65266  -0.65019  -0.63458  -0.63366
 Alpha  occ. eigenvalues --   -0.61801  -0.59775  -0.59331  -0.59172  -0.58753
 Alpha  occ. eigenvalues --   -0.57344  -0.56260  -0.54971  -0.52610  -0.51041
 Alpha  occ. eigenvalues --   -0.50395  -0.49525  -0.48894  -0.48634  -0.48209
 Alpha  occ. eigenvalues --   -0.48111  -0.47156  -0.46786  -0.46772  -0.46721
 Alpha  occ. eigenvalues --   -0.46352  -0.46272  -0.45734  -0.45170  -0.44998
 Alpha  occ. eigenvalues --   -0.44442  -0.43580  -0.43455  -0.43269  -0.42710
 Alpha  occ. eigenvalues --   -0.41151  -0.41079  -0.39592  -0.39245  -0.38917
 Alpha  occ. eigenvalues --   -0.38660  -0.38454  -0.38198  -0.37347  -0.36528
 Alpha  occ. eigenvalues --   -0.34397  -0.33838  -0.33510  -0.33048  -0.32391
 Alpha  occ. eigenvalues --   -0.31530  -0.30931  -0.30254  -0.29842  -0.29573
 Alpha  occ. eigenvalues --   -0.29228  -0.28915  -0.28511  -0.27801  -0.27580
 Alpha virt. eigenvalues --   -0.08194  -0.07435  -0.04143  -0.04080  -0.03804
 Alpha virt. eigenvalues --   -0.02616   0.00800   0.02914   0.04335   0.05674
 Alpha virt. eigenvalues --    0.06126   0.07549   0.08223   0.08568   0.08881

 Mulliken charges:
               1
     1  O   -0.484069
     2  C    0.593314
     3  N   -0.777081
     4  S    1.252039
     5  O   -0.536810
     6  O   -0.490726
     7  C   -0.163347
     8  C   -0.135152
     9  C   -0.141439
    10  C   -0.134215
    11  S    1.144723
    12  O   -0.551441
    13  O   -0.549915
    14  C   -0.145819
    15  C   -0.139128
    16  C   -0.127307
    17  C   -0.118021
    18  C   -0.126756
    19  C   -0.137937
    20  C   -0.143771
    21  C   -0.110227
    22  C    0.075522
    23  C   -0.187762
    24  C   -0.163030
    25  C   -0.000336
    26  C    0.790126
    27  F   -0.256756
    28  F   -0.266576
    29  F   -0.265074
    30  C   -0.163904
    31  C   -0.155389
    32  H    0.372109
    33  H    0.191699
    34  H    0.188575
    35  H    0.177216
    36  H    0.148414
    37  H    0.147694
    38  H    0.149716
    39  H    0.178596
    40  H    0.189629
    41  H    0.210044
    42  H    0.146888
    43  H    0.166458
    44  H    0.168535
    45  H    0.180691
 Sum of Mulliken charges =  -0.00000

 Dipole moment (field-independent basis, Debye):
    X=             -3.6103    Y=             -5.2407    Z=             -2.1588  Tot=              6.7201
 Quadrupole moment (field-independent basis, Debye-Ang):
   XX=           -227.1832   YY=           -194.2540   ZZ=           -178.2304
   XY=            -16.1515   XZ=             -2.9182   YZ=             -2.9374

 Normal termination of Gaussian 16 at Fri Nov  4 19:54:23 2022.
