 Gaussian 16, Revision B.01,
 Gaussian 16:  ES64L-G16RevB.01 20-Dec-2017

 -------------------------------------------------------------------
 #p b3lyp/6-31g(d) 6D 10F nosymm GFInput td=(50-50,nstate=2) SCF=XQC
 -------------------------------------------------------------------

 ------------------------------
 Gaussian input prepared by ASE
 ------------------------------
 Symbolic Z-matrix:
 Charge =  0 Multiplicity = 1

                          Input orientation:
 ---------------------------------------------------------------------
 Center     Atomic      Atomic             Coordinates (Angstroms)
 Number     Number       Type             X           Y           Z
 ---------------------------------------------------------------------
      1          8           0       -1.905662   -1.683386   -0.840112
      2          6           0       -2.399569   -1.201650    0.165774
      3          7           0       -2.031141   -1.621383    1.439971
      4         16           0       -1.058749   -3.006347    1.771970
      5          8           0       -1.072911   -3.034850    3.235228
      6          8           0       -1.514780   -4.134950    0.973409
      7          6           0        0.572868   -2.519879    1.209838
      8          6           0        1.460084   -1.975038    2.140427
      9          6           0        2.739262   -1.616036    1.719304
     10          6           0        3.094667   -1.811271    0.383718
     11         16           0        4.759225   -1.347507   -0.159686
     12          8           0        5.609370   -1.329140    1.040830
     13          8           0        5.075314   -2.182186   -1.328650
     14          6           0        4.588143    0.351435   -0.732350
     15          6           0        4.792930    1.397699    0.169430
     16          6           0        4.662699    2.711268   -0.281117
     17          6           0        4.334325    2.965095   -1.615114
     18          6           0        4.143232    1.908405   -2.508786
     19          6           0        4.271016    0.590284   -2.071095
     20          6           0        2.211666   -2.378495   -0.536793
     21          6           0        0.931198   -2.740531   -0.121694
     22          6           0       -3.424383   -0.105805    0.111714
     23          6           0       -3.702996    0.753550    1.183394
     24          6           0       -4.662499    1.754330    1.050687
     25          6           0       -5.353553    1.899085   -0.154124
     26          6           0       -6.355085    3.014222   -0.316132
     27          9           0       -5.770528    4.133065   -0.801263
     28          9           0       -6.929798    3.345576    0.859946
     29          9           0       -7.341030    2.678531   -1.174522
     30          6           0       -5.076687    1.050514   -1.230285
     31          6           0       -4.111479    0.058354   -1.098739
     32          1           0       -2.566970   -1.345828    2.256144
     33          1           0        1.157342   -1.856151    3.174962
     34          1           0        3.464007   -1.214935    2.419446
     35          1           0        5.071563    1.180640    1.195201
     36          1           0        4.825475    3.535611    0.407203
     37          1           0        4.235424    3.990080   -1.961523
     38          1           0        3.902194    2.109698   -3.548537
     39          1           0        4.150897   -0.242508   -2.755879
     40          1           0        2.532665   -2.555722   -1.557494
     41          1           0        0.219870   -3.178859   -0.810690
     42          1           0       -3.155978    0.676519    2.118682
     43          1           0       -4.875365    2.419302    1.880681
     44          1           0       -5.619451    1.164605   -2.162620
     45          1           0       -3.876818   -0.605410   -1.923645
 ---------------------------------------------------------------------

 SCF Done:  E(RB3LYP) =  -2297.21490508     A.U. after   15 cycles

 Excitation energies and oscillator strengths:

 Excited state symmetry could not be determined.
 Excited State   1:      Triplet-?Sym    3.4757 eV  356.72 nm  f=0.0000  <S**2>=2.000
     113 ->121         0.12777
     115 ->121        -0.13642
     116 ->121        -0.27014
     116 ->122         0.20074
     116 ->123        -0.12758
     116 ->124        -0.18618
     117 ->121        -0.22829
     117 ->122         0.14267
     117 ->124         0.12969
     118 ->121         0.30600
     118 ->122        -0.18993
     118 ->124        -0.10617
 This state for optimization and/or second-order correction.
 Total Energy, E(TD-HF/TD-DFT) =  -2297.08717630
 Copying the excited state density for this state as the 1-particle RhoCI density.

 Excited state symmetry could not be determined.
 Excited State   2:      Triplet-?Sym    3.5319 eV  351.04 nm  f=0.0000  <S**2>=2.000
     111 ->122         0.11268
     113 ->121        -0.12122
     113 ->122        -0.13869
     113 ->125        -0.10009
     115 ->123         0.11170
     117 ->123        -0.17662
     117 ->124         0.12526
     119 ->123        -0.10545
     119 ->126        -0.14760
     120 ->121         0.31070
     120 ->122         0.36958

 Excited state symmetry could not be determined.
 Excited State   3:      Singlet-?Sym    4.4389 eV  279.31 nm  f=0.0021  <S**2>=0.000
     113 ->121        -0.18433
     115 ->121         0.27252
     115 ->122        -0.14719
     118 ->121         0.49316
     118 ->122        -0.23753
     120 ->121        -0.13717

 Excited state symmetry could not be determined.
 Excited State   4:      Singlet-?Sym    4.7939 eV  258.63 nm  f=0.1855  <S**2>=0.000
     118 ->121         0.10240
     120 ->121         0.62827
     120 ->122         0.24626

 Alpha  occ. eigenvalues --  -89.14113 -89.10442 -24.73942 -24.73888 -24.73338
 Alpha  occ. eigenvalues --  -19.16796 -19.16777 -19.15686 -19.14898 -19.14875
 Alpha  occ. eigenvalues --  -14.40717 -10.44838 -10.33392 -10.25525 -10.24859
 Alpha  occ. eigenvalues --  -10.24236 -10.24078 -10.23775 -10.23746 -10.23663
 Alpha  occ. eigenvalues --  -10.23361 -10.23359 -10.23333 -10.23234 -10.23094
 Alpha  occ. eigenvalues --  -10.22821 -10.22338 -10.22320 -10.22022 -10.21830
 Alpha  occ. eigenvalues --  -10.21806  -8.16591  -8.13290  -6.13149  -6.12977
 Alpha  occ. eigenvalues --   -6.12873  -6.09716  -6.09673  -6.09613  -1.31519
 Alpha  occ. eigenvalues --   -1.22982  -1.22499  -1.13778  -1.10641  -1.07353
 Alpha  occ. eigenvalues --   -1.02767  -1.00503  -0.94835  -0.90239  -0.90010
 Alpha  occ. eigenvalues --   -0.88468  -0.81992  -0.81289  -0.78845  -0.78747
 Alpha  occ. eigenvalues --   -0.78606  -0.77434  -0.73661  -0.71594  -0.68663
 Alpha  occ. eigenvalues --   -0.66167  -0.65266  -0.65019  -0.63458  -0.63366
 Alpha  occ. eigenvalues --   -0.61801  -0.59775  -0.59331  -0.59172  -0.58753
 Alpha  occ. eigenvalues --   -0.57344  -0.56260  -0.54971  -0.52610  -0.51041
 Alpha  occ. eigenvalues --   -0.50395  -0.49525  -0.48894  -0.48634  -0.48209
 Alpha  occ. eigenvalues --   -0.48111  -0.47156  -0.46786  -0.46772  -0.46721
 Alpha  occ. eigenvalues --   -0.46352  -0.46272  -0.45734  -0.45170  -0.44998
 Alpha  occ. eigenvalues --   -0.44442  -0.43580  -0.43455  -0.43269  -0.42710
 Alpha  occ. eigenvalues --   -0.41151  -0.41079  -0.39592  -0.39245  -0.38917
 Alpha  occ. eigenvalues --   -0.38660  -0.38454  -0.38198  -0.37347  -0.36528
 Alpha  occ. eigenvalues --   -0.34397  -0.33838  -0.33510  -0.33048  -0.32391
 Alpha  occ. eigenvalues --   -0.31530  -0.30931  -0.30254  -0.29842  -0.29573
 Alpha  occ. eigenvalues --   -0.29228  -0.28915  -0.28511  -0.27801  -0.27580
 Alpha virt. eigenvalues --   -0.08194  -0.07435  -0.04143  -0.04080  -0.03804
 Alpha virt. eigenvalues --   -0.02616   0.00800   0.02914   0.04335   0.05674
 Alpha virt. eigenvalues --    0.06126   0.07549   0.08223   0.08568   0.08881

 Mulliken charges:
               1
     1  O   -0.484058
     2  C    0.593303
     3  N   -0.777062
     4  S    1.251983
     5  O   -0.536806
     6  O   -0.490714
     7  C   -0.163315
     8  C   -0.135163
     9  C   -0.141431
    10  C   -0.134196
    11  S    1.144677
    12  O   -0.551436
    13  O   -0.549911
    14  C   -0.145796
    15  C   -0.139131
    16  C   -0.127306
    17  C   -0.118024
    18  C   -0.126756
    19  C   -0.137941
    20  C   -0.143778
    21  C   -0.110233
    22  C    0.075520
    23  C   -0.187769
    24  C   -0.163029
    25  C   -0.000328
    26  C    0.790114
    27  F   -0.256753
    28  F   -0.266570
    29  F   -0.265075
    30  C   -0.163913
    31  C   -0.155380
    32  H    0.372108
    33  H    0.191701
    34  H    0.188576
    35  H    0.177216
    36  H    0.148415
    37  H    0.147693
    38  H    0.149716
    39  H    0.178597
    40  H    0.189631
    41  H    0.210049
    42  H    0.146889
    43  H    0.166460
    44  H    0.168535
    45  H    0.180690
 Sum of Mulliken charges =  -0.00000

 Dipole moment (field-independent basis, Debye):
    X=             -2.1174    Y=              6.3745    Z=             -0.2028  Tot=              6.7200
 Quadrupole moment (field-independent basis, Debye-Ang):
   XX=           -216.6567   YY=           -206.4026   ZZ=           -178.7822
   XY=             20.9473   XZ=             -2.5920   YZ=              5.6750

 Normal termination of Gaussian 16 at Sat Nov  5 12:03:56 2022.
