 Gaussian 16, Revision B.01,
 Gaussian 16:  ES64L-G16RevB.01 20-Dec-2017

 -------------------------------------------------------------------
 #p b3lyp/6-31g(d) 6D 10F nosymm GFInput td=(50-50,nstate=2) SCF=XQC
 -------------------------------------------------------------------

 ------------------------------
 Gaussian input prepared by ASE
 ------------------------------
 Symbolic Z-matrix:
 Charge =  0 Multiplicity = 1

                          Input orientation:
 ---------------------------------------------------------------------
 Center     Atomic      Atomic             Coordinates (Angstroms)
 Number     Number       Type             X           Y           Z
 ---------------------------------------------------------------------
      1          6           0        6.506329    1.491516   -3.420232
      2          6           0        5.455232    0.913656   -2.503369
      3          6           0        4.116511    0.933910   -2.866929
      4          6           0        3.165278    0.388323   -1.993103
      5          8           0        1.865433    0.456502   -2.406374
      6          6           0        0.854032   -0.146432   -1.653712
      7          6           0        0.804426   -1.551414   -1.532567
      8          6           0       -0.250630   -2.165573   -0.876549
      9          6           0       -1.258215   -1.347122   -0.343707
     10          6           0       -1.223097    0.067494   -0.482704
     11          6           0       -0.136725    0.670906   -1.144565
     12          6           0       -2.406947    0.561980    0.138232
     13          6           0       -3.107063   -0.523647    0.632445
     14          6           0       -4.325929   -0.540908    1.486095
     15          8           0       -4.451319   -1.356278    2.406670
     16          7           0       -5.289539    0.410764    1.262140
     17          6           0       -6.416069    0.431777    2.206969
     18          6           0       -7.189689    1.743506    2.061476
     19          7           0       -7.679974    1.997073    0.697002
     20          6           0       -9.132051    2.003855    0.505813
     21          6           0       -9.853432    0.668789    0.641560
     22          6           0      -10.364138    0.215825    1.864288
     23          6           0      -10.980031   -1.032106    1.933264
     24          6           0      -11.073888   -1.792619    0.766790
     25          7           0      -10.615218   -1.378703   -0.420468
     26          6           0      -10.027829   -0.177779   -0.463546
     27          6           0       -6.931302    1.287815   -0.337019
     28          6           0       -5.451932    1.208950    0.039816
     29          7           0       -2.396833   -1.689671    0.352968
     30          6           0       -2.796289   -3.064420    0.618725
     31          7           0        3.470751   -0.154168   -0.827669
     32          6           0        4.761106   -0.183531   -0.461945
     33          6           0        5.792298    0.333689   -1.254928
     34          7           0        7.155384    0.295526   -0.881960
     35          6           0        7.710334   -0.141058    0.299994
     36          8           0        7.060871   -0.564015    1.249159
     37          6           0        9.213248   -0.049385    0.366017
     38          6           0       10.048847   -0.092805   -0.758855
     39          6           0       11.432601   -0.016008   -0.615729
     40          6           0       11.993741    0.106235    0.656953
     41          6           0       13.490835    0.138504    0.818228
     42          9           0       13.862777    0.863605    1.895348
     43          9           0       14.100681    0.672255   -0.263432
     44          9           0       13.999589   -1.103896    0.984371
     45          6           0       11.169545    0.135598    1.786291
     46          6           0        9.789408    0.049614    1.639626
     47          1           0        6.050807    1.885028   -4.332386
     48          1           0        7.053510    2.318301   -2.946628
     49          1           0        7.244140    0.735946   -3.723722
     50          1           0        3.796305    1.363042   -3.810678
     51          1           0        1.607054   -2.144459   -1.956549
     52          1           0       -0.286808   -3.246418   -0.783611
     53          1           0       -0.067821    1.746880   -1.269658
     54          1           0       -2.688606    1.598808    0.255157
     55          1           0       -7.074410   -0.430313    2.034486
     56          1           0       -6.018519    0.328737    3.220019
     57          1           0       -8.031637    1.727168    2.760158
     58          1           0       -6.538667    2.572944    2.376108
     59          1           0       -9.321243    2.410650   -0.496460
     60          1           0       -9.556737    2.719905    1.219673
     61          1           0      -10.294685    0.840880    2.752174
     62          1           0      -11.387764   -1.406420    2.867800
     63          1           0      -11.547085   -2.773080    0.782788
     64          1           0       -9.683568    0.143629   -1.446966
     65          1           0       -7.298176    0.260923   -0.515038
     66          1           0       -7.030489    1.832990   -1.285968
     67          1           0       -5.061536    2.226818    0.179010
     68          1           0       -4.885705    0.744972   -0.769050
     69          1           0       -1.946969   -3.613653    1.037452
     70          1           0       -3.118534   -3.563268   -0.303862
     71          1           0       -3.603139   -3.060506    1.347768
     72          1           0        4.986459   -0.627874    0.498276
     73          1           0        7.791060    0.742895   -1.525278
     74          1           0        9.633437   -0.225383   -1.754279
     75          1           0       12.074640   -0.053014   -1.489367
     76          1           0       11.609188    0.230185    2.773698
     77          1           0        9.134377    0.057441    2.504049
 ---------------------------------------------------------------------

 SCF Done:  E(RB3LYP) =  -2168.01423264     A.U. after   15 cycles

 Excitation energies and oscillator strengths:

 Excited state symmetry could not be determined.
 Excited State   1:      Triplet-?Sym    2.8884 eV  429.25 nm  f=0.0000  <S**2>=2.000
     163 ->166        -0.32301
     164 ->166         0.57227
 This state for optimization and/or second-order correction.
 Total Energy, E(TD-HF/TD-DFT) =  -2167.90808596
 Copying the excited state density for this state as the 1-particle RhoCI density.

 Excited state symmetry could not be determined.
 Excited State   2:      Triplet-?Sym    3.0581 eV  405.43 nm  f=0.0000  <S**2>=2.000
     161 ->165         0.37749
     161 ->171        -0.16408
     163 ->165         0.43494
     163 ->171        -0.14240
     164 ->165         0.26948

 Excited state symmetry could not be determined.
 Excited State   3:      Singlet-?Sym    3.4700 eV  357.30 nm  f=0.1158  <S**2>=0.000
     163 ->165         0.24463
     164 ->165         0.65791

 Excited state symmetry could not be determined.
 Excited State   4:      Singlet-?Sym    3.5791 eV  346.41 nm  f=0.1130  <S**2>=0.000
     163 ->165         0.64613
     164 ->165        -0.25454

 Alpha  occ. eigenvalues --  -24.73090 -24.73028 -24.72452 -19.18258 -19.13041
 Alpha  occ. eigenvalues --  -19.10839 -14.39060 -14.38014 -14.36356 -14.33336
 Alpha  occ. eigenvalues --  -14.33273 -14.32586 -10.43924 -10.30764 -10.28737
 Alpha  occ. eigenvalues --  -10.27723 -10.24085 -10.23656 -10.23009 -10.22936
 Alpha  occ. eigenvalues --  -10.22624 -10.22613 -10.22531 -10.22491 -10.22437
 Alpha  occ. eigenvalues --  -10.22427 -10.22329 -10.22256 -10.22079 -10.22062
 Alpha  occ. eigenvalues --  -10.21943 -10.21890 -10.21888 -10.21436 -10.21417
 Alpha  occ. eigenvalues --  -10.21348 -10.21306 -10.21197 -10.20664 -10.20395
 Alpha  occ. eigenvalues --  -10.19822 -10.18934 -10.18506 -10.18501 -10.18347
 Alpha  occ. eigenvalues --  -10.18065  -1.30627  -1.22100  -1.21605  -1.07670
 Alpha  occ. eigenvalues --   -1.05018  -1.03096  -0.98061  -0.95892  -0.95134
 Alpha  occ. eigenvalues --   -0.94208  -0.93167  -0.91051  -0.88828  -0.84211
 Alpha  occ. eigenvalues --   -0.82810  -0.81382  -0.80436  -0.79967  -0.77737
 Alpha  occ. eigenvalues --   -0.77621  -0.77520  -0.76697  -0.74366  -0.74045
 Alpha  occ. eigenvalues --   -0.73011  -0.72153  -0.71121  -0.68733  -0.67521
 Alpha  occ. eigenvalues --   -0.66649  -0.66543  -0.64290  -0.64109  -0.63394
 Alpha  occ. eigenvalues --   -0.63304  -0.62493  -0.61045  -0.59647  -0.58871
 Alpha  occ. eigenvalues --   -0.58462  -0.58385  -0.58210  -0.57582  -0.56818
 Alpha  occ. eigenvalues --   -0.55511  -0.54183  -0.52884  -0.52322  -0.52098
 Alpha  occ. eigenvalues --   -0.51933  -0.51465  -0.50336  -0.50116  -0.49707
 Alpha  occ. eigenvalues --   -0.48241  -0.47994  -0.47504  -0.46877  -0.46163
 Alpha  occ. eigenvalues --   -0.46064  -0.45995  -0.45842  -0.45445  -0.45420
 Alpha  occ. eigenvalues --   -0.45054  -0.44814  -0.44494  -0.44132  -0.43626
 Alpha  occ. eigenvalues --   -0.43575  -0.43441  -0.42982  -0.42906  -0.42537
 Alpha  occ. eigenvalues --   -0.42115  -0.41929  -0.41817  -0.41581  -0.41488
 Alpha  occ. eigenvalues --   -0.41036  -0.40717  -0.40658  -0.40226  -0.40170
 Alpha  occ. eigenvalues --   -0.39897  -0.39641  -0.39082  -0.38777  -0.38598
 Alpha  occ. eigenvalues --   -0.38325  -0.38160  -0.37790  -0.37321  -0.37199
 Alpha  occ. eigenvalues --   -0.37024  -0.36657  -0.36459  -0.35586  -0.35372
 Alpha  occ. eigenvalues --   -0.34985  -0.33634  -0.31650  -0.30154  -0.28895
 Alpha  occ. eigenvalues --   -0.28282  -0.27998  -0.27598  -0.27266  -0.26948
 Alpha  occ. eigenvalues --   -0.26220  -0.25750  -0.25711  -0.25240  -0.23732
 Alpha  occ. eigenvalues --   -0.22147  -0.21204  -0.20633  -0.20167
 Alpha virt. eigenvalues --   -0.06263  -0.03162  -0.02956  -0.02875  -0.02162
 Alpha virt. eigenvalues --   -0.01653  -0.00106   0.02579   0.03492   0.04783
 Alpha virt. eigenvalues --    0.05343   0.07127   0.08758   0.09047   0.09281

 Mulliken charges:
               1
     1  C   -0.566686
     2  C    0.178364
     3  C   -0.261015
     4  C    0.548068
     5  O   -0.577049
     6  C    0.364852
     7  C   -0.154085
     8  C   -0.180558
     9  C    0.335457
    10  C    0.104663
    11  C   -0.254092
    12  C   -0.267612
    13  C    0.254303
    14  C    0.545144
    15  O   -0.539130
    16  N   -0.446708
    17  C   -0.126514
    18  C   -0.160703
    19  N   -0.378430
    20  C   -0.243623
    21  C    0.156350
    22  C   -0.154775
    23  C   -0.136824
    24  C    0.038613
    25  N   -0.407559
    26  C   -0.010063
    27  C   -0.136780
    28  C   -0.155059
    29  N   -0.565813
    30  C   -0.346373
    31  N   -0.486479
    32  C    0.003626
    33  C    0.273310
    34  N   -0.756045
    35  C    0.580690
    36  O   -0.502249
    37  C    0.068401
    38  C   -0.192230
    39  C   -0.165007
    40  C   -0.001739
    41  C    0.786900
    42  F   -0.267488
    43  F   -0.269645
    44  F   -0.257743
    45  C   -0.164468
    46  C   -0.157379
    47  H    0.179749
    48  H    0.171057
    49  H    0.166982
    50  H    0.141642
    51  H    0.137229
    52  H    0.134673
    53  H    0.133583
    54  H    0.137682
    55  H    0.163281
    56  H    0.174805
    57  H    0.145174
    58  H    0.152018
    59  H    0.152477
    60  H    0.152487
    61  H    0.139937
    62  H    0.140696
    63  H    0.144547
    64  H    0.138017
    65  H    0.139478
    66  H    0.144197
    67  H    0.157830
    68  H    0.175481
    69  H    0.168107
    70  H    0.158953
    71  H    0.221053
    72  H    0.199566
    73  H    0.340821
    74  H    0.139792
    75  H    0.160239
    76  H    0.163810
    77  H    0.175822
 Sum of Mulliken charges =  -0.00000

 Dipole moment (field-independent basis, Debye):
    X=             -1.0644    Y=              3.1112    Z=             -2.9563  Tot=              4.4218
 Quadrupole moment (field-independent basis, Debye-Ang):
   XX=           -250.5463   YY=           -254.2165   ZZ=           -253.0789
   XY=             -2.9157   XZ=            -43.6216   YZ=              0.2340

 Normal termination of Gaussian 16 at Sat Nov  5 12:10:29 2022.
