 Gaussian 16, Revision B.01,
 Gaussian 16:  ES64L-G16RevB.01 20-Dec-2017

 -----------------------------
 #p b3lyp/6-31g(d) opt SCF=XQC
 -----------------------------

 ------------------------------
 Gaussian input prepared by ASE
 ------------------------------
 Symbolic Z-matrix:
 Charge =  0 Multiplicity = 1

 SCF Done:  E(RB3LYP) =  -2168.00216314     A.U. after   15 cycles
 SCF Done:  E(RB3LYP) =  -2168.01135940     A.U. after   14 cycles
 SCF Done:  E(RB3LYP) =  -2168.01325289     A.U. after   12 cycles
 SCF Done:  E(RB3LYP) =  -2168.01377958     A.U. after   12 cycles
 SCF Done:  E(RB3LYP) =  -2168.01398638     A.U. after   11 cycles
 SCF Done:  E(RB3LYP) =  -2168.01407025     A.U. after   11 cycles
 SCF Done:  E(RB3LYP) =  -2168.01414514     A.U. after   11 cycles
 SCF Done:  E(RB3LYP) =  -2168.01419585     A.U. after   11 cycles
 SCF Done:  E(RB3LYP) =  -2168.01421047     A.U. after   10 cycles
 SCF Done:  E(RB3LYP) =  -2168.01422051     A.U. after   10 cycles
 SCF Done:  E(RB3LYP) =  -2168.01422836     A.U. after    9 cycles
 SCF Done:  E(RB3LYP) =  -2168.01422815     A.U. after    7 cycles
 SCF Done:  E(RB3LYP) =  -2168.01422904     A.U. after    9 cycles
 SCF Done:  E(RB3LYP) =  -2168.01422806     A.U. after    9 cycles
 SCF Done:  E(RB3LYP) =  -2168.01422803     A.U. after    6 cycles
 SCF Done:  E(RB3LYP) =  -2168.01422902     A.U. after    9 cycles
 SCF Done:  E(RB3LYP) =  -2168.01422813     A.U. after    9 cycles
 SCF Done:  E(RB3LYP) =  -2168.01422826     A.U. after    6 cycles
 SCF Done:  E(RB3LYP) =  -2168.01422902     A.U. after    9 cycles
 SCF Done:  E(RB3LYP) =  -2168.01422830     A.U. after    9 cycles
 Optimization completed on the basis of negligible forces.
    -- Stationary point found.

                         Standard orientation:
 ---------------------------------------------------------------------
 Center     Atomic      Atomic             Coordinates (Angstroms)
 Number     Number       Type             X           Y           Z
 ---------------------------------------------------------------------
      1          6           0       -5.601309    3.550487   -0.488139
      2          6           0       -4.512410    2.549495   -0.185354
      3          6           0       -3.188319    2.954729   -0.099745
      4          6           0       -2.201062    2.000244    0.183737
      5          8           0       -0.918038    2.465053    0.237044
      6          6           0        0.125287    1.613171    0.609509
      7          6           0        0.190285    1.107772    1.925358
      8          6           0        1.273732    0.347173    2.335636
      9          6           0        2.294022    0.101692    1.404101
     10          6           0        2.242763    0.627455    0.084011
     11          6           0        1.127890    1.389486   -0.314408
     12          6           0        3.444984    0.213939   -0.560386
     13          6           0        4.171401   -0.536013    0.346744
     14          6           0        5.421239   -1.313971    0.129176
     15          8           0        5.587083   -2.419664    0.656384
     16          7           0        6.368432   -0.797706   -0.719751
     17          6           0        7.529091   -1.656016   -0.999730
     18          6           0        8.286546   -1.122041   -2.216866
     19          7           0        8.723809    0.276635   -2.079135
     20          6           0       10.167684    0.516977   -2.028248
     21          6           0       10.903972    0.042447   -0.781684
     22          6           0       11.463263   -1.237793   -0.685563
     23          6           0       12.090980   -1.627982    0.495596
     24          6           0       12.147345   -0.716561    1.551051
     25          7           0       11.641676    0.520740    1.482709
     26          6           0       11.043769    0.874070    0.339571
     27          6           0        7.942775    1.043309   -1.112206
     28          6           0        6.479086    0.603700   -1.145622
     29          7           0        3.460368   -0.619174    1.542430
     30          6           0        3.880103   -1.241710    2.789987
     31          7           0       -2.458795    0.719182    0.379449
     32          6           0       -3.734404    0.311167    0.302125
     33          6           0       -4.798337    1.177143    0.023152
     34          7           0       -6.146287    0.756974   -0.047946
     35          6           0       -6.653527   -0.519911    0.040730
     36          8           0       -5.965978   -1.523996    0.184589
     37          6           0       -8.153618   -0.614649   -0.070020
     38          6           0       -9.030071    0.421233    0.282440
     39          6           0      -10.408106    0.252866    0.164854
     40          6           0      -10.922508   -0.955807   -0.308477
     41          6           0      -12.412782   -1.158275   -0.388673
     42          9           0      -12.750077   -2.004320   -1.386041
     43          9           0      -13.066528    0.005306   -0.601946
     44          9           0      -12.905333   -1.682749    0.756888
     45          6           0      -10.057175   -2.000319   -0.648712
     46          6           0       -8.682813   -1.831248   -0.521329
     47          1           0       -5.183066    4.552682   -0.610843
     48          1           0       -6.136930    3.305332   -1.415658
     49          1           0       -6.343987    3.603559    0.319927
     50          1           0       -2.906746    3.992038   -0.248253
     51          1           0       -0.622904    1.319262    2.610682
     52          1           0        1.321744   -0.041456    3.347978
     53          1           0        1.046020    1.806381   -1.313213
     54          1           0        3.722721    0.400932   -1.587961
     55          1           0        8.187254   -1.705479   -0.121814
     56          1           0        7.170268   -2.672012   -1.183935
     57          1           0        9.153973   -1.765278   -2.393264
     58          1           0        7.641232   -1.217816   -3.102975
     59          1           0       10.316337    1.599279   -2.139387
     60          1           0       10.613017    0.047204   -2.913501
     61          1           0       11.421986   -1.918614   -1.533288
     62          1           0       12.536052   -2.613640    0.596112
     63          1           0       12.628422   -0.986869    2.489654
     64          1           0       10.660718    1.894323    0.303660
     65          1           0        8.310758    0.942263   -0.075300
     66          1           0        8.002393    2.109538   -1.371357
     67          1           0        6.086227    0.738606   -2.163119
     68          1           0        5.886823    1.229449   -0.476432
     69          1           0        3.051224   -1.828581    3.198490
     70          1           0        4.171718   -0.482893    3.526882
     71          1           0        4.713428   -1.909778    2.585586
     72          1           0       -3.920462   -0.742593    0.460931
     73          1           0       -6.808886    1.474840   -0.300358
     74          1           0       -8.650913    1.355415    0.688092
     75          1           0      -11.081854    1.056737    0.441768
     76          1           0      -10.460550   -2.938297   -1.015713
     77          1           0       -7.996198   -2.633905   -0.767614
 ---------------------------------------------------------------------

 The electronic state is 1-A.
 Alpha  occ. eigenvalues --  -24.73090 -24.73028 -24.72452 -19.18258 -19.13041
 Alpha  occ. eigenvalues --  -19.10839 -14.39060 -14.38014 -14.36356 -14.33335
 Alpha  occ. eigenvalues --  -14.33273 -14.32586 -10.43924 -10.30764 -10.28737
 Alpha  occ. eigenvalues --  -10.27723 -10.24086 -10.23656 -10.23009 -10.22936
 Alpha  occ. eigenvalues --  -10.22624 -10.22613 -10.22531 -10.22491 -10.22437
 Alpha  occ. eigenvalues --  -10.22427 -10.22329 -10.22256 -10.22079 -10.22062
 Alpha  occ. eigenvalues --  -10.21943 -10.21890 -10.21889 -10.21436 -10.21417
 Alpha  occ. eigenvalues --  -10.21348 -10.21306 -10.21197 -10.20664 -10.20395
 Alpha  occ. eigenvalues --  -10.19822 -10.18934 -10.18506 -10.18501 -10.18347
 Alpha  occ. eigenvalues --  -10.18065  -1.30627  -1.22100  -1.21606  -1.07670
 Alpha  occ. eigenvalues --   -1.05018  -1.03096  -0.98061  -0.95892  -0.95134
 Alpha  occ. eigenvalues --   -0.94208  -0.93167  -0.91051  -0.88828  -0.84211
 Alpha  occ. eigenvalues --   -0.82810  -0.81382  -0.80436  -0.79967  -0.77737
 Alpha  occ. eigenvalues --   -0.77621  -0.77520  -0.76697  -0.74366  -0.74045
 Alpha  occ. eigenvalues --   -0.73011  -0.72153  -0.71121  -0.68733  -0.67521
 Alpha  occ. eigenvalues --   -0.66649  -0.66543  -0.64290  -0.64109  -0.63394
 Alpha  occ. eigenvalues --   -0.63304  -0.62493  -0.61045  -0.59647  -0.58871
 Alpha  occ. eigenvalues --   -0.58462  -0.58385  -0.58210  -0.57582  -0.56818
 Alpha  occ. eigenvalues --   -0.55511  -0.54183  -0.52884  -0.52322  -0.52098
 Alpha  occ. eigenvalues --   -0.51933  -0.51465  -0.50336  -0.50116  -0.49707
 Alpha  occ. eigenvalues --   -0.48241  -0.47994  -0.47504  -0.46877  -0.46163
 Alpha  occ. eigenvalues --   -0.46064  -0.45995  -0.45842  -0.45445  -0.45420
 Alpha  occ. eigenvalues --   -0.45054  -0.44814  -0.44494  -0.44132  -0.43626
 Alpha  occ. eigenvalues --   -0.43575  -0.43441  -0.42982  -0.42906  -0.42537
 Alpha  occ. eigenvalues --   -0.42115  -0.41930  -0.41817  -0.41581  -0.41488
 Alpha  occ. eigenvalues --   -0.41036  -0.40717  -0.40658  -0.40226  -0.40171
 Alpha  occ. eigenvalues --   -0.39897  -0.39641  -0.39082  -0.38777  -0.38598
 Alpha  occ. eigenvalues --   -0.38325  -0.38160  -0.37790  -0.37321  -0.37199
 Alpha  occ. eigenvalues --   -0.37024  -0.36657  -0.36459  -0.35586  -0.35372
 Alpha  occ. eigenvalues --   -0.34985  -0.33634  -0.31650  -0.30154  -0.28895
 Alpha  occ. eigenvalues --   -0.28282  -0.27999  -0.27598  -0.27266  -0.26948
 Alpha  occ. eigenvalues --   -0.26220  -0.25750  -0.25711  -0.25240  -0.23732
 Alpha  occ. eigenvalues --   -0.22148  -0.21204  -0.20633  -0.20167
 Alpha virt. eigenvalues --   -0.06263  -0.03162  -0.02956  -0.02874  -0.02162
 Alpha virt. eigenvalues --   -0.01653  -0.00106   0.02579   0.03492   0.04783
 Alpha virt. eigenvalues --    0.05343   0.07127   0.08758   0.09047   0.09281

 Mulliken charges:
               1
     1  C   -0.566682
     2  C    0.178376
     3  C   -0.261018
     4  C    0.548070
     5  O   -0.577052
     6  C    0.364862
     7  C   -0.154086
     8  C   -0.180554
     9  C    0.335446
    10  C    0.104668
    11  C   -0.254097
    12  C   -0.267616
    13  C    0.254304
    14  C    0.545154
    15  O   -0.539123
    16  N   -0.446735
    17  C   -0.126508
    18  C   -0.160705
    19  N   -0.378421
    20  C   -0.243638
    21  C    0.156344
    22  C   -0.154775
    23  C   -0.136821
    24  C    0.038610
    25  N   -0.407570
    26  C   -0.010033
    27  C   -0.136783
    28  C   -0.155050
    29  N   -0.565818
    30  C   -0.346369
    31  N   -0.486474
    32  C    0.003605
    33  C    0.273314
    34  N   -0.756058
    35  C    0.580705
    36  O   -0.502255
    37  C    0.068396
    38  C   -0.192232
    39  C   -0.165002
    40  C   -0.001745
    41  C    0.786900
    42  F   -0.267489
    43  F   -0.269643
    44  F   -0.257741
    45  C   -0.164466
    46  C   -0.157377
    47  H    0.179748
    48  H    0.171057
    49  H    0.166980
    50  H    0.141641
    51  H    0.137229
    52  H    0.134672
    53  H    0.133581
    54  H    0.137683
    55  H    0.163282
    56  H    0.174806
    57  H    0.145174
    58  H    0.152018
    59  H    0.152478
    60  H    0.152487
    61  H    0.139938
    62  H    0.140695
    63  H    0.144546
    64  H    0.138018
    65  H    0.139477
    66  H    0.144197
    67  H    0.157829
    68  H    0.175483
    69  H    0.168108
    70  H    0.158952
    71  H    0.221052
    72  H    0.199568
    73  H    0.340820
    74  H    0.139797
    75  H    0.160238
    76  H    0.163809
    77  H    0.175822
 Sum of Mulliken charges =  -0.00000

 Dipole moment (field-independent basis, Debye):
    X=              0.9294    Y=              3.7435    Z=             -2.1621  Tot=              4.4218
 Quadrupole moment (field-independent basis, Debye-Ang):
   XX=           -245.4260   YY=           -255.6543   ZZ=           -254.1365
   XY=            -36.8799   XZ=            -17.1747   YZ=             -0.3551

 Normal termination of Gaussian 16 at Fri Nov  4 20:51:24 2022.
