 Gaussian 16, Revision B.01,
 Gaussian 16:  ES64L-G16RevB.01 20-Dec-2017

 -------------------------------------------------------------------
 #p b3lyp/6-31g(d) 6D 10F nosymm GFInput td=(50-50,nstate=2) SCF=XQC
 -------------------------------------------------------------------

 ------------------------------
 Gaussian input prepared by ASE
 ------------------------------
 Symbolic Z-matrix:
 Charge =  0 Multiplicity = 1

                          Input orientation:
 ---------------------------------------------------------------------
 Center     Atomic      Atomic             Coordinates (Angstroms)
 Number     Number       Type             X           Y           Z
 ---------------------------------------------------------------------
      1          6           0       -4.265412    1.767502   -1.134917
      2          6           0       -4.309676    0.263869   -0.818001
      3          6           0       -3.019544   -0.215319   -0.103515
      4          7           0       -1.802822    0.001376   -0.874097
      5          6           0       -1.402798   -0.868715   -1.837534
      6          8           0       -2.020386   -1.880682   -2.151851
      7          6           0       -0.098596   -0.491868   -2.561546
      8          8           0        1.057245   -0.451084   -1.695785
      9          6           0        1.323682    0.708980   -1.056964
     10          8           0        0.576840    1.677168   -1.098351
     11          6           0        2.603728    0.672772   -0.309229
     12          6           0        2.984487    1.821026    0.398501
     13          6           0        4.181051    1.833336    1.109023
     14          6           0        5.005154    0.704030    1.133227
     15          6           0        4.624776   -0.453165    0.423915
     16          6           0        3.432457   -0.460152   -0.295852
     17          6           0        5.567079   -1.630806    0.482900
     18          6           0        7.023091   -1.193884    0.196959
     19          6           0        7.443980    0.081971    0.983434
     20          6           0        6.314479    0.645830    1.878666
     21          6           0       -5.529145   -0.137295   -0.000771
     22          6           0       -6.348777   -1.191307   -0.426706
     23          6           0       -7.457250   -1.591478    0.321251
     24          6           0       -7.765857   -0.943084    1.517622
     25          6           0       -6.956596    0.105917    1.957945
     26          6           0       -5.850521    0.502942    1.205810
     27          1           0       -5.170972    2.080871   -1.664949
     28          1           0       -4.186108    2.374502   -0.224751
     29          1           0       -3.403666    2.004001   -1.768620
     30          1           0       -4.350596   -0.284144   -1.766862
     31          1           0       -3.101382   -1.287023    0.096895
     32          1           0       -2.906090    0.301037    0.856464
     33          1           0       -1.260020    0.849739   -0.751865
     34          1           0        0.110906   -1.280738   -3.281981
     35          1           0       -0.201765    0.474101   -3.065705
     36          1           0        2.336336    2.690660    0.374836
     37          1           0        4.479246    2.727426    1.651555
     38          1           0        3.137062   -1.345305   -0.849722
     39          1           0        5.259227   -2.412374   -0.220418
     40          1           0        5.520460   -2.081711    1.485798
     41          1           0        7.120506   -1.006602   -0.878277
     42          1           0        7.696448   -2.026942    0.427857
     43          1           0        8.320845   -0.122469    1.607912
     44          1           0        7.743931    0.863490    0.276404
     45          1           0        6.197293   -0.007506    2.756739
     46          1           0        6.590373    1.633754    2.263897
     47          1           0       -6.112542   -1.704225   -1.356336
     48          1           0       -8.079361   -2.409718   -0.032498
     49          1           0       -8.628952   -1.251263    2.101807
     50          1           0       -7.187155    0.618133    2.888755
     51          1           0       -5.234697    1.324425    1.564009
 ---------------------------------------------------------------------

 SCF Done:  E(RB3LYP) =  -1133.87421927     A.U. after   15 cycles

 Excitation energies and oscillator strengths:

 Excited state symmetry could not be determined.
 Excited State   1:      Triplet-?Sym    3.3883 eV  365.92 nm  f=0.0000  <S**2>=2.000
      89 -> 95         0.33491
      89 -> 96        -0.18193
      91 -> 95         0.45647
      91 -> 96         0.20560
      92 -> 95         0.14808
      93 -> 95         0.24099
 This state for optimization and/or second-order correction.
 Total Energy, E(TD-HF/TD-DFT) =  -1133.74970325
 Copying the excited state density for this state as the 1-particle RhoCI density.

 Excited state symmetry could not be determined.
 Excited State   2:      Triplet-?Sym    3.9791 eV  311.59 nm  f=0.0000  <S**2>=2.000
      89 -> 95         0.49043
      89 -> 96        -0.13310
      90 -> 95        -0.15599
      91 -> 95        -0.45164

 Excited state symmetry could not be determined.
 Excited State   3:      Singlet-?Sym    4.4316 eV  279.78 nm  f=0.0090  <S**2>=0.000
      90 -> 95         0.14477
      93 -> 95         0.15992
      94 -> 95         0.66385

 Excited state symmetry could not be determined.
 Excited State   4:      Singlet-?Sym    4.6213 eV  268.29 nm  f=0.0994  <S**2>=0.000
      90 -> 95        -0.10408
      92 -> 95         0.28729
      93 -> 95         0.60197
      94 -> 95        -0.16936

 Alpha  occ. eigenvalues --  -19.20368 -19.14663 -19.10923 -14.35089 -10.32756
 Alpha  occ. eigenvalues --  -10.28268 -10.25132 -10.21489 -10.20799 -10.20635
 Alpha  occ. eigenvalues --  -10.20163 -10.20078 -10.20046 -10.19783 -10.19771
 Alpha  occ. eigenvalues --  -10.19579 -10.19339 -10.19231 -10.18903 -10.18796
 Alpha  occ. eigenvalues --  -10.18400 -10.18292 -10.18223 -10.18209 -10.18010
 Alpha  occ. eigenvalues --  -10.17297  -1.11191  -1.02831  -1.02004  -0.91523
 Alpha  occ. eigenvalues --   -0.87697  -0.84882  -0.82335  -0.79309  -0.77989
 Alpha  occ. eigenvalues --   -0.76380  -0.74365  -0.73612  -0.72553  -0.71763
 Alpha  occ. eigenvalues --   -0.68619  -0.65944  -0.63053  -0.61902  -0.60778
 Alpha  occ. eigenvalues --   -0.59687  -0.58876  -0.57334  -0.55699  -0.55012
 Alpha  occ. eigenvalues --   -0.52956  -0.52189  -0.50491  -0.50038  -0.48681
 Alpha  occ. eigenvalues --   -0.47883  -0.46958  -0.46193  -0.45585  -0.45349
 Alpha  occ. eigenvalues --   -0.44278  -0.43728  -0.43173  -0.42706  -0.42018
 Alpha  occ. eigenvalues --   -0.41947  -0.41582  -0.40927  -0.40504  -0.39961
 Alpha  occ. eigenvalues --   -0.39643  -0.39415  -0.39041  -0.38334  -0.37237
 Alpha  occ. eigenvalues --   -0.36141  -0.35780  -0.35399  -0.35305  -0.34504
 Alpha  occ. eigenvalues --   -0.33852  -0.33669  -0.32602  -0.32477  -0.32206
 Alpha  occ. eigenvalues --   -0.31871  -0.31711  -0.28662  -0.25834  -0.25294
 Alpha  occ. eigenvalues --   -0.25013  -0.24283  -0.24146  -0.23132
 Alpha virt. eigenvalues --   -0.05220  -0.00821   0.00401   0.00653   0.01902
 Alpha virt. eigenvalues --    0.04868   0.07779   0.09061   0.10494   0.10732
 Alpha virt. eigenvalues --    0.11154   0.11847   0.11957   0.13118   0.13336

 Mulliken charges:
               1
     1  C   -0.454144
     2  C   -0.168258
     3  C   -0.128594
     4  N   -0.602723
     5  C    0.574666
     6  O   -0.512186
     7  C   -0.141984
     8  O   -0.466622
     9  C    0.605256
    10  O   -0.521456
    11  C    0.054736
    12  C   -0.154349
    13  C   -0.204874
    14  C    0.148097
    15  C    0.132857
    16  C   -0.233207
    17  C   -0.355008
    18  C   -0.265110
    19  C   -0.265179
    20  C   -0.357457
    21  C    0.173826
    22  C   -0.192833
    23  C   -0.126177
    24  C   -0.131004
    25  C   -0.129507
    26  C   -0.186277
    27  H    0.154745
    28  H    0.139705
    29  H    0.147150
    30  H    0.155504
    31  H    0.178238
    32  H    0.141234
    33  H    0.365238
    34  H    0.185905
    35  H    0.179886
    36  H    0.158894
    37  H    0.131549
    38  H    0.154197
    39  H    0.148114
    40  H    0.152938
    41  H    0.146483
    42  H    0.140449
    43  H    0.140761
    44  H    0.146672
    45  H    0.155756
    46  H    0.146114
    47  H    0.135026
    48  H    0.128524
    49  H    0.126500
    50  H    0.126228
    51  H    0.121702
 Sum of Mulliken charges =  -0.00000

 Dipole moment (field-independent basis, Debye):
    X=              3.9788    Y=              1.3105    Z=              1.7823  Tot=              4.5525
 Quadrupole moment (field-independent basis, Debye-Ang):
   XX=           -130.6827   YY=           -155.9836   ZZ=           -148.4391
   XY=             -4.5579   XZ=             -0.3257   YZ=             -0.1577

 Normal termination of Gaussian 16 at Sat Nov  5 11:54:41 2022.
