 Gaussian 16, Revision B.01,
 Gaussian 16:  ES64L-G16RevB.01 20-Dec-2017

 -----------------------------
 #p b3lyp/6-31g(d) opt SCF=XQC
 -----------------------------

 ------------------------------
 Gaussian input prepared by ASE
 ------------------------------
 Symbolic Z-matrix:
 Charge =  0 Multiplicity = 1

 SCF Done:  E(RB3LYP) =  -1133.86752449     A.U. after   15 cycles
 SCF Done:  E(RB3LYP) =  -1133.87083605     A.U. after   14 cycles
 SCF Done:  E(RB3LYP) =  -1133.87098450     A.U. after   14 cycles
 SCF Done:  E(RB3LYP) =  -1133.87236528     A.U. after   13 cycles
 SCF Done:  E(RB3LYP) =  -1133.87276735     A.U. after   14 cycles
 SCF Done:  E(RB3LYP) =  -1133.87357442     A.U. after   12 cycles
 SCF Done:  E(RB3LYP) =  -1133.87365587     A.U. after   12 cycles
 SCF Done:  E(RB3LYP) =  -1133.87382990     A.U. after   11 cycles
 SCF Done:  E(RB3LYP) =  -1133.87396389     A.U. after   11 cycles
 SCF Done:  E(RB3LYP) =  -1133.87406516     A.U. after   11 cycles
 SCF Done:  E(RB3LYP) =  -1133.87417742     A.U. after   11 cycles
 SCF Done:  E(RB3LYP) =  -1133.87421459     A.U. after   10 cycles
 SCF Done:  E(RB3LYP) =  -1133.87421621     A.U. after    8 cycles
 SCF Done:  E(RB3LYP) =  -1133.87421751     A.U. after    8 cycles
 SCF Done:  E(RB3LYP) =  -1133.87421822     A.U. after    9 cycles
 SCF Done:  E(RB3LYP) =  -1133.87421862     A.U. after    8 cycles
 SCF Done:  E(RB3LYP) =  -1133.87421876     A.U. after    8 cycles
 SCF Done:  E(RB3LYP) =  -1133.87421892     A.U. after    7 cycles
 SCF Done:  E(RB3LYP) =  -1133.87421897     A.U. after    7 cycles
 SCF Done:  E(RB3LYP) =  -1133.87421899     A.U. after    6 cycles
 Optimization completed.
    -- Stationary point found.

                         Standard orientation:
 ---------------------------------------------------------------------
 Center     Atomic      Atomic             Coordinates (Angstroms)
 Number     Number       Type             X           Y           Z
 ---------------------------------------------------------------------
      1          6           0       -4.094502   -0.113729    2.115977
      2          6           0       -4.180105    0.282825    0.633168
      3          6           0       -2.883200   -0.075537   -0.137652
      4          7           0       -1.687470    0.569824    0.386662
      5          6           0       -1.352174    1.840466    0.042662
      6          8           0       -2.015396    2.549405   -0.706890
      7          6           0       -0.061841    2.375972    0.687196
      8          8           0        1.124416    1.641154    0.313019
      9          6           0        1.453491    0.559673    1.052572
     10          8           0        0.739934    0.122931    1.945302
     11          6           0        2.756966   -0.029342    0.661482
     12          6           0        3.202230   -1.161441    1.357498
     13          6           0        4.422713   -1.743226    1.027794
     14          6           0        5.207204   -1.214591   -0.001858
     15          6           0        4.761953   -0.077018   -0.705129
     16          6           0        3.545571    0.510789   -0.366549
     17          6           0        5.664031    0.448107   -1.795427
     18          6           0        7.123475    0.573524   -1.298506
     19          6           0        7.616043   -0.684570   -0.525154
     20          6           0        6.539073   -1.790223   -0.411945
     21          6           0       -5.383385   -0.320675   -0.076628
     22          6           0       -6.253791    0.497156   -0.809909
     23          6           0       -7.348609   -0.039882   -1.489065
     24          6           0       -7.592162   -1.413232   -1.449695
     25          6           0       -6.731783   -2.242093   -0.727250
     26          6           0       -5.639617   -1.700024   -0.048965
     27          1           0       -5.006621    0.173612    2.649499
     28          1           0       -3.962119   -1.195217    2.242472
     29          1           0       -3.247812    0.384053    2.601205
     30          1           0       -4.273449    1.373867    0.576205
     31          1           0       -2.995335    0.227412   -1.182190
     32          1           0       -2.718126   -1.158724   -0.115043
     33          1           0       -1.111404    0.102463    1.078773
     34          1           0        0.094539    3.384492    0.308163
     35          1           0       -0.148849    2.382627    1.778206
     36          1           0        2.584423   -1.564683    2.152880
     37          1           0        4.770833   -2.617049    1.573600
     38          1           0        3.200161    1.390792   -0.899290
     39          1           0        5.304550    1.413687   -2.167860
     40          1           0        5.636947   -0.242885   -2.651633
     41          1           0        7.189543    1.450682   -0.645111
     42          1           0        7.775014    0.776881   -2.155740
     43          1           0        8.506626   -1.106677   -1.004058
     44          1           0        7.918092   -0.394762    0.487472
     45          1           0        6.430052   -2.281744   -1.390777
     46          1           0        6.862672   -2.567527    0.289195
     47          1           0       -6.068420    1.568253   -0.848544
     48          1           0       -8.010967    0.616237   -2.048054
     49          1           0       -8.444442   -1.834533   -1.976290
     50          1           0       -6.911469   -3.313655   -0.689862
     51          1           0       -4.983269   -2.361870    0.510990
 ---------------------------------------------------------------------

 The electronic state is 1-A.
 Alpha  occ. eigenvalues --  -19.20368 -19.14663 -19.10923 -14.35089 -10.32756
 Alpha  occ. eigenvalues --  -10.28268 -10.25132 -10.21489 -10.20799 -10.20636
 Alpha  occ. eigenvalues --  -10.20163 -10.20078 -10.20046 -10.19783 -10.19771
 Alpha  occ. eigenvalues --  -10.19579 -10.19339 -10.19231 -10.18903 -10.18796
 Alpha  occ. eigenvalues --  -10.18400 -10.18292 -10.18223 -10.18209 -10.18010
 Alpha  occ. eigenvalues --  -10.17297  -1.11191  -1.02831  -1.02004  -0.91523
 Alpha  occ. eigenvalues --   -0.87697  -0.84882  -0.82335  -0.79309  -0.77989
 Alpha  occ. eigenvalues --   -0.76380  -0.74365  -0.73612  -0.72553  -0.71763
 Alpha  occ. eigenvalues --   -0.68619  -0.65944  -0.63053  -0.61902  -0.60778
 Alpha  occ. eigenvalues --   -0.59687  -0.58876  -0.57334  -0.55698  -0.55012
 Alpha  occ. eigenvalues --   -0.52956  -0.52189  -0.50491  -0.50038  -0.48681
 Alpha  occ. eigenvalues --   -0.47883  -0.46958  -0.46193  -0.45585  -0.45349
 Alpha  occ. eigenvalues --   -0.44278  -0.43728  -0.43173  -0.42706  -0.42018
 Alpha  occ. eigenvalues --   -0.41947  -0.41582  -0.40927  -0.40504  -0.39961
 Alpha  occ. eigenvalues --   -0.39643  -0.39415  -0.39041  -0.38334  -0.37237
 Alpha  occ. eigenvalues --   -0.36141  -0.35780  -0.35399  -0.35305  -0.34504
 Alpha  occ. eigenvalues --   -0.33852  -0.33669  -0.32602  -0.32477  -0.32206
 Alpha  occ. eigenvalues --   -0.31871  -0.31711  -0.28662  -0.25834  -0.25294
 Alpha  occ. eigenvalues --   -0.25013  -0.24283  -0.24146  -0.23132
 Alpha virt. eigenvalues --   -0.05220  -0.00821   0.00401   0.00653   0.01902
 Alpha virt. eigenvalues --    0.04868   0.07779   0.09061   0.10494   0.10732
 Alpha virt. eigenvalues --    0.11154   0.11847   0.11957   0.13118   0.13336

 Mulliken charges:
               1
     1  C   -0.454140
     2  C   -0.168240
     3  C   -0.128600
     4  N   -0.602717
     5  C    0.574669
     6  O   -0.512187
     7  C   -0.141995
     8  O   -0.466621
     9  C    0.605266
    10  O   -0.521462
    11  C    0.054714
    12  C   -0.154347
    13  C   -0.204865
    14  C    0.148055
    15  C    0.132874
    16  C   -0.233185
    17  C   -0.355005
    18  C   -0.265102
    19  C   -0.265186
    20  C   -0.357435
    21  C    0.173799
    22  C   -0.192829
    23  C   -0.126172
    24  C   -0.131007
    25  C   -0.129509
    26  C   -0.186265
    27  H    0.154744
    28  H    0.139704
    29  H    0.147145
    30  H    0.155502
    31  H    0.178239
    32  H    0.141234
    33  H    0.365237
    34  H    0.185905
    35  H    0.179892
    36  H    0.158894
    37  H    0.131547
    38  H    0.154194
    39  H    0.148112
    40  H    0.152937
    41  H    0.146481
    42  H    0.140447
    43  H    0.140762
    44  H    0.146671
    45  H    0.155753
    46  H    0.146113
    47  H    0.135026
    48  H    0.128523
    49  H    0.126501
    50  H    0.126228
    51  H    0.121703
 Sum of Mulliken charges =  -0.00000

 Dipole moment (field-independent basis, Debye):
    X=              4.0823    Y=             -1.9927    Z=              0.2981  Tot=              4.5525
 Quadrupole moment (field-independent basis, Debye-Ang):
   XX=           -129.9025   YY=           -149.3621   ZZ=           -154.2002
   XY=              2.5177   XZ=             -4.5273   YZ=              2.9437

 Normal termination of Gaussian 16 at Fri Nov  4 19:53:23 2022.
