 Gaussian 16, Revision B.01,
 Gaussian 16:  ES64L-G16RevB.01 20-Dec-2017

 -----------------------------
 #p b3lyp/6-31g(d) opt SCF=XQC
 -----------------------------

 ------------------------------
 Gaussian input prepared by ASE
 ------------------------------
 Symbolic Z-matrix:
 Charge =  0 Multiplicity = 1

 SCF Done:  E(RB3LYP) =  -1133.77957861     A.U. after   15 cycles
 SCF Done:  E(RB3LYP) =  -1133.78529512     A.U. after   13 cycles
 SCF Done:  E(RB3LYP) =  -1133.78663399     A.U. after   12 cycles
 SCF Done:  E(RB3LYP) =  -1133.78725583     A.U. after   12 cycles
 SCF Done:  E(RB3LYP) =  -1133.78743956     A.U. after   13 cycles
 SCF Done:  E(RB3LYP) =  -1133.78778546     A.U. after   11 cycles
 SCF Done:  E(RB3LYP) =  -1133.78793173     A.U. after   11 cycles
 SCF Done:  E(RB3LYP) =  -1133.78798492     A.U. after   10 cycles
 SCF Done:  E(RB3LYP) =  -1133.78810209     A.U. after   12 cycles
 SCF Done:  E(RB3LYP) =  -1133.78814793     A.U. after   11 cycles
 SCF Done:  E(RB3LYP) =  -1133.78828425     A.U. after   11 cycles
 SCF Done:  E(RB3LYP) =  -1133.78833874     A.U. after   10 cycles
 SCF Done:  E(RB3LYP) =  -1133.78836797     A.U. after   10 cycles
 SCF Done:  E(RB3LYP) =  -1133.78837847     A.U. after   11 cycles
 SCF Done:  E(RB3LYP) =  -1133.78838102     A.U. after   10 cycles
 SCF Done:  E(RB3LYP) =  -1133.78838459     A.U. after    9 cycles
 SCF Done:  E(RB3LYP) =  -1133.78838505     A.U. after    9 cycles
 SCF Done:  E(RB3LYP) =  -1133.78838521     A.U. after    9 cycles
 SCF Done:  E(RB3LYP) =  -1133.78838522     A.U. after    7 cycles
 SCF Done:  E(RB3LYP) =  -1133.78838523     A.U. after    6 cycles
 Optimization completed.
    -- Stationary point found.

                         Standard orientation:
 ---------------------------------------------------------------------
 Center     Atomic      Atomic             Coordinates (Angstroms)
 Number     Number       Type             X           Y           Z
 ---------------------------------------------------------------------
      1          6           0        4.771087    4.746599    0.327969
      2          6           0        5.137836    3.465040    0.284094
      3          6           0        4.802043    2.507184   -0.830777
      4          6           0        4.033653    1.277583   -0.366264
      5          6           0        2.903892    1.394983    0.439437
      6          6           0        2.186901    0.261294    0.840389
      7          6           0        2.595110   -1.011063    0.448820
      8          8           0        1.984424   -2.186774    0.797909
      9          6           0        0.909961   -2.153711    1.728981
     10          6           0       -0.417944   -1.727045    1.131191
     11          6           0       -0.724726   -2.007195   -0.206443
     12          6           0       -1.969131   -1.671750   -0.729529
     13          6           0       -2.930370   -1.027190    0.062646
     14          6           0       -4.271113   -0.751609   -0.561987
     15          8           0       -4.753035   -1.544243   -1.372336
     16          7           0       -4.949010    0.385016   -0.204501
     17          6           0       -6.246110    0.643563   -0.857893
     18          6           0       -6.593912    2.078344   -0.436978
     19          6           0       -5.215879    2.732342   -0.246758
     20          6           0       -4.394959    1.608303    0.402272
     21          6           0       -2.627846   -0.758612    1.403240
     22          6           0       -1.383972   -1.107209    1.930069
     23          6           0        3.739846   -1.145463   -0.373746
     24          8           0        4.070174   -2.424018   -0.717645
     25          6           0        5.208592   -2.619325   -1.537513
     26          6           0        4.441228   -0.006270   -0.765448
     27          1           0        4.184805    5.200529   -0.468927
     28          1           0        5.046059    5.393324    1.157008
     29          1           0        5.719545    3.045963    1.106044
     30          1           0        4.228977    3.041864   -1.601403
     31          1           0        5.731894    2.176367   -1.315229
     32          1           0        2.570957    2.377210    0.762705
     33          1           0        1.296849    0.383672    1.446477
     34          1           0        0.839594   -3.187936    2.085141
     35          1           0        1.166715   -1.526163    2.593609
     36          1           0        0.020622   -2.490030   -0.831109
     37          1           0       -2.221745   -1.912346   -1.757168
     38          1           0       -6.988258   -0.096694   -0.543396
     39          1           0       -6.133803    0.544390   -1.944497
     40          1           0       -7.215752    2.587793   -1.178969
     41          1           0       -7.142712    2.076043    0.512891
     42          1           0       -4.784076    2.995849   -1.219897
     43          1           0       -5.242020    3.637398    0.367935
     44          1           0       -3.321949    1.689445    0.212384
     45          1           0       -4.544479    1.610270    1.491520
     46          1           0       -3.368045   -0.294967    2.047943
     47          1           0       -1.167136   -0.896756    2.975664
     48          1           0        5.096916   -2.124746   -2.512071
     49          1           0        5.286021   -3.697847   -1.687849
     50          1           0        6.124907   -2.254329   -1.053705
     51          1           0        5.321566   -0.105887   -1.391643
 ---------------------------------------------------------------------

 The electronic state is 1-A.
 Alpha  occ. eigenvalues --  -19.17324 -19.17240 -19.10023 -14.35504 -10.27595
 Alpha  occ. eigenvalues --  -10.24705 -10.24080 -10.23967 -10.23749 -10.22673
 Alpha  occ. eigenvalues --  -10.21385 -10.20225 -10.19813 -10.19758 -10.19653
 Alpha  occ. eigenvalues --  -10.19571 -10.19372 -10.19034 -10.18995 -10.18876
 Alpha  occ. eigenvalues --  -10.18847 -10.18760 -10.18245 -10.18169 -10.17711
 Alpha  occ. eigenvalues --  -10.17609  -1.06871  -1.04946  -1.02092  -0.93268
 Alpha  occ. eigenvalues --   -0.86090  -0.84760  -0.79818  -0.79285  -0.77595
 Alpha  occ. eigenvalues --   -0.74925  -0.74797  -0.74227  -0.73714  -0.70206
 Alpha  occ. eigenvalues --   -0.69666  -0.66382  -0.64460  -0.61356  -0.60770
 Alpha  occ. eigenvalues --   -0.59629  -0.58920  -0.57604  -0.55233  -0.55196
 Alpha  occ. eigenvalues --   -0.53255  -0.52417  -0.50331  -0.50151  -0.49645
 Alpha  occ. eigenvalues --   -0.48023  -0.46445  -0.45958  -0.45582  -0.45232
 Alpha  occ. eigenvalues --   -0.44456  -0.44259  -0.43723  -0.43182  -0.43028
 Alpha  occ. eigenvalues --   -0.42630  -0.42255  -0.41716  -0.40911  -0.40769
 Alpha  occ. eigenvalues --   -0.39570  -0.38618  -0.38067  -0.37445  -0.36402
 Alpha  occ. eigenvalues --   -0.36253  -0.35908  -0.35397  -0.35108  -0.34905
 Alpha  occ. eigenvalues --   -0.34518  -0.34102  -0.33666  -0.32664  -0.31947
 Alpha  occ. eigenvalues --   -0.31464  -0.30406  -0.25567  -0.25489  -0.25144
 Alpha  occ. eigenvalues --   -0.23566  -0.23184  -0.23100  -0.19730
 Alpha virt. eigenvalues --   -0.02763  -0.00565   0.00839   0.01717   0.02942
 Alpha virt. eigenvalues --    0.05319   0.07802   0.09045   0.09622   0.10720
 Alpha virt. eigenvalues --    0.11105   0.11891   0.12383   0.13010   0.13223

 Mulliken charges:
               1
     1  C   -0.348590
     2  C   -0.028690
     3  C   -0.391244
     4  C    0.171580
     5  C   -0.195214
     6  C   -0.187867
     7  C    0.334363
     8  O   -0.519527
     9  C   -0.112683
    10  C    0.128776
    11  C   -0.173670
    12  C   -0.153296
    13  C    0.070278
    14  C    0.519023
    15  O   -0.522932
    16  N   -0.456357
    17  C   -0.099368
    18  C   -0.304554
    19  C   -0.293024
    20  C   -0.126073
    21  C   -0.166362
    22  C   -0.190280
    23  C    0.341327
    24  O   -0.502304
    25  C   -0.212292
    26  C   -0.279446
    27  H    0.134730
    28  H    0.138955
    29  H    0.130635
    30  H    0.153972
    31  H    0.147458
    32  H    0.126690
    33  H    0.136825
    34  H    0.175327
    35  H    0.147223
    36  H    0.154566
    37  H    0.158003
    38  H    0.162522
    39  H    0.163845
    40  H    0.151355
    41  H    0.147474
    42  H    0.152811
    43  H    0.147187
    44  H    0.167879
    45  H    0.144698
    46  H    0.137513
    47  H    0.125740
    48  H    0.149832
    49  H    0.169701
    50  H    0.149146
    51  H    0.124339
 Sum of Mulliken charges =  -0.00000

 Dipole moment (field-independent basis, Debye):
    X=              1.0318    Y=              3.2536    Z=              1.4878  Tot=              3.7234
 Quadrupole moment (field-independent basis, Debye-Ang):
   XX=           -140.9884   YY=           -152.4141   ZZ=           -146.0299
   XY=            -21.8679   XZ=            -14.2022   YZ=             -1.9247

 Normal termination of Gaussian 16 at Fri Nov  4 19:52:41 2022.
