 Gaussian 16, Revision B.01,
 Gaussian 16:  ES64L-G16RevB.01 20-Dec-2017

 -------------------------------------------------------------------
 #p b3lyp/6-31g(d) 6D 10F nosymm GFInput td=(50-50,nstate=2) SCF=XQC
 -------------------------------------------------------------------

 ------------------------------
 Gaussian input prepared by ASE
 ------------------------------
 Symbolic Z-matrix:
 Charge =  0 Multiplicity = 1

                          Input orientation:
 ---------------------------------------------------------------------
 Center     Atomic      Atomic             Coordinates (Angstroms)
 Number     Number       Type             X           Y           Z
 ---------------------------------------------------------------------
      1          6           0        5.133542   -0.601171    3.929191
      2          6           0        5.378621   -0.545050    2.619377
      3          6           0        5.001494    0.602789    1.717478
      4          6           0        4.100774    0.196425    0.559165
      5          6           0        2.953813   -0.564671    0.770136
      6          6           0        2.116030   -0.911688   -0.296535
      7          6           0        2.418092   -0.510137   -1.595137
      8          8           0        1.684270   -0.808803   -2.712903
      9          6           0        0.578943   -1.695603   -2.593328
     10          6           0       -0.675710   -1.053182   -2.031308
     11          6           0       -0.950175    0.301555   -2.257632
     12          6           0       -2.133630    0.867878   -1.795681
     13          6           0       -3.062404    0.102162   -1.075933
     14          6           0       -4.343008    0.775144   -0.662589
     15          8           0       -4.862829    1.621247   -1.391342
     16          7           0       -4.924711    0.421571    0.527312
     17          6           0       -6.162294    1.121857    0.920026
     18          6           0       -6.390126    0.685057    2.373997
     19          6           0       -4.965678    0.424693    2.889781
     20          6           0       -4.283596   -0.233301    1.681302
     21          6           0       -2.793399   -1.255110   -0.860771
     22          6           0       -1.611880   -1.824869   -1.335825
     23          6           0        3.579056    0.267555   -1.824169
     24          8           0        3.801032    0.624807   -3.122315
     25          6           0        4.949820    1.401361   -3.411408
     26          6           0        4.401441    0.605854   -0.750686
     27          1           0        4.627590    0.209204    4.450847
     28          1           0        5.432897   -1.454364    4.532199
     29          1           0        5.882260   -1.381008    2.132411
     30          1           0        4.515221    1.384660    2.317784
     31          1           0        5.915644    1.055708    1.307663
     32          1           0        2.702020   -0.894893    1.773965
     33          1           0        1.216488   -1.483303   -0.100084
     34          1           0        0.395625   -2.026467   -3.622089
     35          1           0        0.856836   -2.583192   -2.008280
     36          1           0       -0.227945    0.905332   -2.798668
     37          1           0       -2.363730    1.909890   -1.993185
     38          1           0       -6.984081    0.853848    0.248826
     39          1           0       -6.013517    2.204818    0.829387
     40          1           0       -6.928526    1.440858    2.953361
     41          1           0       -6.976801   -0.241285    2.407764
     42          1           0       -4.469594    1.373504    3.127577
     43          1           0       -4.932130   -0.207559    3.782411
     44          1           0       -3.200591   -0.089270    1.662702
     45          1           0       -4.478717   -1.315310    1.678709
     46          1           0       -3.513185   -1.878704   -0.339672
     47          1           0       -1.420991   -2.882712   -1.165209
     48          1           0        4.927354    2.368913   -2.891620
     49          1           0        4.930963    1.571347   -4.489626
     50          1           0        5.875084    0.872780   -3.144170
     51          1           0        5.294341    1.197466   -0.923207
 ---------------------------------------------------------------------

 SCF Done:  E(RB3LYP) =  -1133.78838337     A.U. after   15 cycles

 Excitation energies and oscillator strengths:

 Excited state symmetry could not be determined.
 Excited State   1:      Triplet-?Sym    3.5210 eV  352.13 nm  f=0.0000  <S**2>=2.000
      88 -> 95        -0.14247
      88 -> 96         0.22227
      89 -> 96         0.16231
      90 -> 95        -0.31183
      90 -> 96        -0.18613
      91 -> 95         0.35505
      93 -> 95        -0.33336
 This state for optimization and/or second-order correction.
 Total Energy, E(TD-HF/TD-DFT) =  -1133.65898964
 Copying the excited state density for this state as the 1-particle RhoCI density.

 Excited state symmetry could not be determined.
 Excited State   2:      Triplet-?Sym    3.5584 eV  348.43 nm  f=0.0000  <S**2>=2.000
      92 -> 97        -0.16908
      93 -> 97        -0.19401
      94 -> 95        -0.10249
      94 -> 96         0.11813
      94 -> 97         0.12993
      94 -> 98         0.57785
      94 -> 99         0.11178

 Excited state symmetry could not be determined.
 Excited State   3:      Singlet-?Sym    4.0704 eV  304.60 nm  f=0.0023  <S**2>=0.000
      94 -> 95         0.70423

 Excited state symmetry could not be determined.
 Excited State   4:      Singlet-?Sym    4.5375 eV  273.24 nm  f=0.0241  <S**2>=0.000
      88 -> 95         0.16185
      90 -> 95         0.22656
      91 -> 95         0.45936
      91 ->100         0.10701
      92 -> 95         0.20512
      93 -> 95        -0.36526

 Alpha  occ. eigenvalues --  -19.17324 -19.17240 -19.10023 -14.35504 -10.27595
 Alpha  occ. eigenvalues --  -10.24705 -10.24080 -10.23968 -10.23749 -10.22673
 Alpha  occ. eigenvalues --  -10.21385 -10.20224 -10.19813 -10.19758 -10.19653
 Alpha  occ. eigenvalues --  -10.19571 -10.19372 -10.19034 -10.18995 -10.18876
 Alpha  occ. eigenvalues --  -10.18847 -10.18761 -10.18246 -10.18169 -10.17712
 Alpha  occ. eigenvalues --  -10.17609  -1.06871  -1.04946  -1.02092  -0.93268
 Alpha  occ. eigenvalues --   -0.86090  -0.84760  -0.79818  -0.79285  -0.77595
 Alpha  occ. eigenvalues --   -0.74925  -0.74797  -0.74227  -0.73714  -0.70206
 Alpha  occ. eigenvalues --   -0.69667  -0.66382  -0.64460  -0.61356  -0.60770
 Alpha  occ. eigenvalues --   -0.59629  -0.58920  -0.57604  -0.55233  -0.55196
 Alpha  occ. eigenvalues --   -0.53255  -0.52417  -0.50331  -0.50151  -0.49645
 Alpha  occ. eigenvalues --   -0.48022  -0.46445  -0.45958  -0.45582  -0.45232
 Alpha  occ. eigenvalues --   -0.44456  -0.44259  -0.43723  -0.43182  -0.43028
 Alpha  occ. eigenvalues --   -0.42630  -0.42255  -0.41716  -0.40911  -0.40769
 Alpha  occ. eigenvalues --   -0.39570  -0.38618  -0.38067  -0.37445  -0.36402
 Alpha  occ. eigenvalues --   -0.36253  -0.35908  -0.35397  -0.35108  -0.34905
 Alpha  occ. eigenvalues --   -0.34518  -0.34102  -0.33666  -0.32664  -0.31947
 Alpha  occ. eigenvalues --   -0.31464  -0.30406  -0.25567  -0.25489  -0.25144
 Alpha  occ. eigenvalues --   -0.23566  -0.23184  -0.23100  -0.19731
 Alpha virt. eigenvalues --   -0.02763  -0.00564   0.00839   0.01716   0.02942
 Alpha virt. eigenvalues --    0.05319   0.07802   0.09045   0.09622   0.10720
 Alpha virt. eigenvalues --    0.11105   0.11891   0.12383   0.13010   0.13223

 Mulliken charges:
               1
     1  C   -0.348592
     2  C   -0.028688
     3  C   -0.391243
     4  C    0.171584
     5  C   -0.195215
     6  C   -0.187841
     7  C    0.334313
     8  O   -0.519514
     9  C   -0.112701
    10  C    0.128804
    11  C   -0.173667
    12  C   -0.153300
    13  C    0.070303
    14  C    0.519016
    15  O   -0.522934
    16  N   -0.456360
    17  C   -0.099378
    18  C   -0.304542
    19  C   -0.293016
    20  C   -0.126072
    21  C   -0.166381
    22  C   -0.190286
    23  C    0.341314
    24  O   -0.502299
    25  C   -0.212292
    26  C   -0.279430
    27  H    0.134730
    28  H    0.138955
    29  H    0.130635
    30  H    0.153971
    31  H    0.147458
    32  H    0.126693
    33  H    0.136825
    34  H    0.175327
    35  H    0.147223
    36  H    0.154564
    37  H    0.158001
    38  H    0.162525
    39  H    0.163846
    40  H    0.151352
    41  H    0.147471
    42  H    0.152808
    43  H    0.147185
    44  H    0.167878
    45  H    0.144698
    46  H    0.137513
    47  H    0.125740
    48  H    0.149833
    49  H    0.169702
    50  H    0.149146
    51  H    0.124338
 Sum of Mulliken charges =  -0.00000

 Dipole moment (field-independent basis, Debye):
    X=              1.2714    Y=             -1.5977    Z=              3.1138  Tot=              3.7235
 Quadrupole moment (field-independent basis, Debye-Ang):
   XX=           -144.1232   YY=           -147.3793   ZZ=           -150.1971
   XY=             14.7274   XZ=            -22.8305   YZ=              2.1500

 Normal termination of Gaussian 16 at Sat Nov  5 12:04:09 2022.
