 Gaussian 16, Revision B.01,
 Gaussian 16:  ES64L-G16RevB.01 20-Dec-2017

 -----------------------------
 #p b3lyp/6-31g(d) opt SCF=XQC
 -----------------------------

 ------------------------------
 Gaussian input prepared by ASE
 ------------------------------
 Symbolic Z-matrix:
 Charge =  0 Multiplicity = 1

 SCF Done:  E(RB3LYP) =  -878.064603945     A.U. after   15 cycles
 SCF Done:  E(RB3LYP) =  -878.068919774     A.U. after   13 cycles
 SCF Done:  E(RB3LYP) =  -878.069305972     A.U. after   12 cycles
 SCF Done:  E(RB3LYP) =  -878.069645816     A.U. after   14 cycles
 SCF Done:  E(RB3LYP) =  -878.069858770     A.U. after   12 cycles
 SCF Done:  E(RB3LYP) =  -878.069910115     A.U. after   11 cycles
 SCF Done:  E(RB3LYP) =  -878.069916145     A.U. after   10 cycles
 SCF Done:  E(RB3LYP) =  -878.069918878     A.U. after   10 cycles
 SCF Done:  E(RB3LYP) =  -878.069919369     A.U. after    8 cycles
 SCF Done:  E(RB3LYP) =  -878.069919556     A.U. after    8 cycles
 SCF Done:  E(RB3LYP) =  -878.069919592     A.U. after    7 cycles
 SCF Done:  E(RB3LYP) =  -878.069919585     A.U. after    7 cycles
 Optimization completed.
    -- Stationary point found.

                         Standard orientation:
 ---------------------------------------------------------------------
 Center     Atomic      Atomic             Coordinates (Angstroms)
 Number     Number       Type             X           Y           Z
 ---------------------------------------------------------------------
      1          6           0       -5.192734   -2.608761   -0.084189
      2          8           0       -4.867008   -1.413917   -0.778704
      3          6           0       -3.762728   -0.717996   -0.388204
      4          6           0       -2.907717   -1.098474    0.655097
      5          6           0       -1.805766   -0.302836    0.969126
      6          6           0       -1.535811    0.870406    0.257877
      7          6           0       -0.284225    1.668603    0.614400
      8          6           0       -0.377673    3.083277    0.203147
      9          7           0       -0.450264    4.188586   -0.143270
     10          7           0        0.947625    1.093938    0.067614
     11          6           0        1.757651    0.306747    0.855142
     12          8           0        1.516785    0.115105    2.044603
     13          6           0        2.949389   -0.297390    0.174931
     14          6           0        3.529188   -1.424721    0.772491
     15          6           0        4.636685   -2.036683    0.191084
     16          6           0        5.184650   -1.519900   -0.985873
     17          6           0        4.624770   -0.385146   -1.575819
     18          6           0        3.511001    0.224819   -0.999195
     19          6           0       -2.398183    1.241939   -0.782384
     20          6           0       -3.500118    0.459086   -1.103704
     21          1           0       -5.390645   -2.416237    0.978311
     22          1           0       -6.099495   -2.990357   -0.556564
     23          1           0       -4.394703   -3.357456   -0.173337
     24          1           0       -3.091637   -1.999664    1.228481
     25          1           0       -1.141190   -0.602827    1.774976
     26          1           0       -0.140213    1.640008    1.699882
     27          1           0        1.010623    1.010118   -0.937933
     28          1           0        3.096116   -1.801751    1.693016
     29          1           0        5.075689   -2.914822    0.656463
     30          1           0        6.051342   -1.995049   -1.437393
     31          1           0        5.060256    0.031661   -2.479626
     32          1           0        3.109171    1.129558   -1.447258
     33          1           0       -2.218502    2.159281   -1.336677
     34          1           0       -4.176819    0.742549   -1.903496
 ---------------------------------------------------------------------

 The electronic state is 1-A.
 Alpha  occ. eigenvalues --  -19.18699 -19.12818 -14.37869 -14.33861 -10.30355
 Alpha  occ. eigenvalues --  -10.27635 -10.25789 -10.24862 -10.23086 -10.21296
 Alpha  occ. eigenvalues --  -10.21091 -10.20740 -10.20737 -10.20595 -10.20396
 Alpha  occ. eigenvalues --  -10.20316 -10.20160 -10.20116 -10.19808 -10.19394
 Alpha  occ. eigenvalues --   -1.07311  -1.04745  -0.94706  -0.90294  -0.86967
 Alpha  occ. eigenvalues --   -0.86223  -0.79680  -0.76758  -0.75978  -0.75852
 Alpha  occ. eigenvalues --   -0.73665  -0.69517  -0.64263  -0.62567  -0.61907
 Alpha  occ. eigenvalues --   -0.59782  -0.59682  -0.56424  -0.54474  -0.52646
 Alpha  occ. eigenvalues --   -0.50854  -0.49459  -0.48826  -0.47631  -0.46402
 Alpha  occ. eigenvalues --   -0.46056  -0.45456  -0.44590  -0.43585  -0.43273
 Alpha  occ. eigenvalues --   -0.42236  -0.42004  -0.41638  -0.39081  -0.38507
 Alpha  occ. eigenvalues --   -0.37200  -0.37017  -0.36761  -0.36009  -0.35678
 Alpha  occ. eigenvalues --   -0.33717  -0.33649  -0.33297  -0.32367  -0.28044
 Alpha  occ. eigenvalues --   -0.26831  -0.26579  -0.26124  -0.25979  -0.22704
 Alpha virt. eigenvalues --   -0.04676  -0.01683  -0.01442  -0.00550   0.03054
 Alpha virt. eigenvalues --    0.03459   0.05399   0.07933   0.09050   0.09693
 Alpha virt. eigenvalues --    0.10172   0.12872   0.13039   0.13792   0.14288

 Mulliken charges:
               1
     1  C   -0.217957
     2  O   -0.504375
     3  C    0.384130
     4  C   -0.198551
     5  C   -0.187889
     6  C    0.147591
     7  C   -0.126970
     8  C    0.366363
     9  N   -0.477364
    10  N   -0.602369
    11  C    0.576371
    12  O   -0.524606
    13  C    0.067746
    14  C   -0.151142
    15  C   -0.136550
    16  C   -0.118385
    17  C   -0.133886
    18  C   -0.182036
    19  C   -0.186731
    20  C   -0.177907
    21  H    0.156033
    22  H    0.173803
    23  H    0.154362
    24  H    0.139027
    25  H    0.164188
    26  H    0.234001
    27  H    0.336433
    28  H    0.164030
    29  H    0.140912
    30  H    0.139959
    31  H    0.140372
    32  H    0.140623
    33  H    0.154648
    34  H    0.146128
 Sum of Mulliken charges =  -0.00000

 Dipole moment (field-independent basis, Debye):
    X=              0.1763    Y=             -5.1200    Z=             -1.7990  Tot=              5.4298
 Quadrupole moment (field-independent basis, Debye-Ang):
   XX=            -96.9211   YY=           -124.4276   ZZ=           -114.8590
   XY=              5.2506   XZ=            -10.0689   YZ=             -3.7015

 Normal termination of Gaussian 16 at Fri Nov  4 19:54:27 2022.
