 Gaussian 16, Revision B.01,
 Gaussian 16:  ES64L-G16RevB.01 20-Dec-2017

 -------------------------------------------------------------------
 #p b3lyp/6-31g(d) 6D 10F nosymm GFInput td=(50-50,nstate=2) SCF=XQC
 -------------------------------------------------------------------

 ------------------------------
 Gaussian input prepared by ASE
 ------------------------------
 Symbolic Z-matrix:
 Charge =  0 Multiplicity = 1

                          Input orientation:
 ---------------------------------------------------------------------
 Center     Atomic      Atomic             Coordinates (Angstroms)
 Number     Number       Type             X           Y           Z
 ---------------------------------------------------------------------
      1          6           0        5.280366    1.898323    0.499256
      2          8           0        4.858316    1.065536   -0.570529
      3          6           0        3.722725    0.330085   -0.409982
      4          6           0        2.924057    0.336966    0.741697
      5          6           0        1.782156   -0.462564    0.794305
      6          6           0        1.416665   -1.271875   -0.285825
      7          6           0        0.126543   -2.082154   -0.187204
      8          6           0        0.116376   -3.244936   -1.096598
      9          7           0        0.107302   -4.144076   -1.830388
     10          7           0       -1.080428   -1.284825   -0.419929
     11          6           0       -1.815086   -0.808037    0.642596
     12          8           0       -1.528734   -1.085033    1.804851
     13          6           0       -2.983909    0.064268    0.294966
     14          6           0       -3.472236    0.915566    1.295440
     15          6           0       -4.553726    1.754166    1.038126
     16          6           0       -5.167139    1.740417   -0.217300
     17          6           0       -4.698947    0.880396   -1.212451
     18          6           0       -3.611206    0.045114   -0.959151
     19          6           0        2.223342   -1.271962   -1.431747
     20          6           0        3.364190   -0.481567   -1.495845
     21          1           0        5.495365    1.314647    1.403820
     22          1           0        6.196233    2.382729    0.156460
     23          1           0        4.530366    2.665084    0.733611
     24          1           0        3.182185    0.949707    1.597650
     25          1           0        1.161507   -0.451381    1.686335
     26          1           0        0.015465   -2.452447    0.837673
     27          1           0       -1.166288   -0.829800   -1.318649
     28          1           0       -2.989748    0.900925    2.267068
     29          1           0       -4.921511    2.416695    1.816727
     30          1           0       -6.013624    2.391910   -0.416834
     31          1           0       -5.185949    0.852069   -2.183157
     32          1           0       -3.281737   -0.646665   -1.729652
     33          1           0        1.968935   -1.906990   -2.276176
     34          1           0        3.998178   -0.480289   -2.376754
 ---------------------------------------------------------------------

 SCF Done:  E(RB3LYP) =  -878.069915908     A.U. after   16 cycles

 Excitation energies and oscillator strengths:

 Excited state symmetry could not be determined.
 Excited State   1:      Triplet-?Sym    3.5676 eV  347.53 nm  f=0.0000  <S**2>=2.000
      66 -> 71        -0.12517
      66 -> 72         0.16115
      66 -> 73        -0.15784
      67 -> 71         0.40942
      67 -> 72         0.13514
      67 -> 73        -0.15868
      68 -> 71        -0.10426
      69 -> 71         0.37647
      69 -> 72        -0.14678
      69 -> 73         0.13889
 This state for optimization and/or second-order correction.
 Total Energy, E(TD-HF/TD-DFT) =  -877.938810724
 Copying the excited state density for this state as the 1-particle RhoCI density.

 Excited state symmetry could not be determined.
 Excited State   2:      Triplet-?Sym    3.6334 eV  341.23 nm  f=0.0000  <S**2>=2.000
      68 -> 72         0.20759
      68 -> 73         0.21910
      68 -> 74        -0.19804
      70 -> 71         0.10416
      70 -> 72         0.34712
      70 -> 73         0.29414
      70 -> 74         0.34013

 Excited state symmetry could not be determined.
 Excited State   3:      Singlet-?Sym    4.3782 eV  283.18 nm  f=0.0222  <S**2>=0.000
      69 -> 71        -0.12930
      70 -> 71         0.68168

 Excited state symmetry could not be determined.
 Excited State   4:      Singlet-?Sym    4.7165 eV  262.88 nm  f=0.0026  <S**2>=0.000
      65 -> 71        -0.23918
      66 -> 71         0.35263
      69 -> 71         0.51168
      70 -> 71         0.18114

 Alpha  occ. eigenvalues --  -19.18699 -19.12818 -14.37869 -14.33861 -10.30355
 Alpha  occ. eigenvalues --  -10.27635 -10.25789 -10.24862 -10.23086 -10.21296
 Alpha  occ. eigenvalues --  -10.21091 -10.20740 -10.20737 -10.20595 -10.20396
 Alpha  occ. eigenvalues --  -10.20316 -10.20161 -10.20116 -10.19808 -10.19394
 Alpha  occ. eigenvalues --   -1.07310  -1.04745  -0.94706  -0.90294  -0.86967
 Alpha  occ. eigenvalues --   -0.86223  -0.79680  -0.76758  -0.75978  -0.75852
 Alpha  occ. eigenvalues --   -0.73665  -0.69517  -0.64263  -0.62567  -0.61907
 Alpha  occ. eigenvalues --   -0.59782  -0.59682  -0.56424  -0.54474  -0.52646
 Alpha  occ. eigenvalues --   -0.50854  -0.49459  -0.48826  -0.47631  -0.46402
 Alpha  occ. eigenvalues --   -0.46056  -0.45456  -0.44590  -0.43585  -0.43273
 Alpha  occ. eigenvalues --   -0.42236  -0.42004  -0.41638  -0.39081  -0.38507
 Alpha  occ. eigenvalues --   -0.37200  -0.37017  -0.36761  -0.36009  -0.35677
 Alpha  occ. eigenvalues --   -0.33717  -0.33649  -0.33297  -0.32367  -0.28044
 Alpha  occ. eigenvalues --   -0.26831  -0.26579  -0.26124  -0.25979  -0.22704
 Alpha virt. eigenvalues --   -0.04676  -0.01683  -0.01442  -0.00550   0.03054
 Alpha virt. eigenvalues --    0.03459   0.05399   0.07933   0.09050   0.09693
 Alpha virt. eigenvalues --    0.10172   0.12872   0.13039   0.13792   0.14288

 Mulliken charges:
               1
     1  C   -0.217957
     2  O   -0.504372
     3  C    0.384129
     4  C   -0.198546
     5  C   -0.187895
     6  C    0.147583
     7  C   -0.126961
     8  C    0.366358
     9  N   -0.477361
    10  N   -0.602369
    11  C    0.576364
    12  O   -0.524604
    13  C    0.067773
    14  C   -0.151157
    15  C   -0.136542
    16  C   -0.118389
    17  C   -0.133875
    18  C   -0.182057
    19  C   -0.186725
    20  C   -0.177912
    21  H    0.156033
    22  H    0.173802
    23  H    0.154361
    24  H    0.139027
    25  H    0.164189
    26  H    0.234000
    27  H    0.336432
    28  H    0.164031
    29  H    0.140911
    30  H    0.139957
    31  H    0.140372
    32  H    0.140624
    33  H    0.154649
    34  H    0.146128
 Sum of Mulliken charges =  -0.00000

 Dipole moment (field-independent basis, Debye):
    X=              0.1053    Y=              5.4237    Z=              0.2332  Tot=              5.4297
 Quadrupole moment (field-independent basis, Debye-Ang):
   XX=            -95.8038   YY=           -128.8760   ZZ=           -114.7774
   XY=             -0.7606   XZ=             10.3254   YZ=             -1.9293

 Normal termination of Gaussian 16 at Sat Nov  5 11:54:44 2022.
