 Gaussian 16, Revision B.01,
 Gaussian 16:  ES64L-G16RevB.01 20-Dec-2017

 -------------------------------------------------------------------
 #p b3lyp/6-31g(d) 6D 10F nosymm GFInput td=(50-50,nstate=2) SCF=XQC
 -------------------------------------------------------------------

 ------------------------------
 Gaussian input prepared by ASE
 ------------------------------
 Symbolic Z-matrix:
 Charge =  0 Multiplicity = 1

                          Input orientation:
 ---------------------------------------------------------------------
 Center     Atomic      Atomic             Coordinates (Angstroms)
 Number     Number       Type             X           Y           Z
 ---------------------------------------------------------------------
      1          6           0       -2.260613   -1.323622    1.341952
      2          6           0       -1.116849   -0.934972    0.403869
      3          7           0        0.138099   -0.958100    1.148297
      4          6           0        1.271948   -0.419224    0.521890
      5          6           0        2.573471   -0.712314    0.948572
      6          6           0        3.676263   -0.131058    0.324119
      7          6           0        3.494774    0.755661   -0.739170
      8          6           0        2.203613    1.063698   -1.169270
      9          6           0        1.104410    0.480476   -0.545779
     10          8           0       -0.151629    0.787392   -1.028400
     11          6           0       -1.250068    0.490017   -0.168542
     12          6           0       -2.506440    0.679741   -1.030306
     13          6           0       -2.627302    2.042591   -1.556573
     14          7           0       -2.749312    3.121995   -1.963867
     15          1           0       -3.207426   -1.434238    0.804383
     16          1           0       -2.046521   -2.288048    1.817481
     17          1           0       -2.384663   -0.579556    2.136279
     18          1           0       -1.096131   -1.627949   -0.457188
     19          1           0        0.311938   -1.834718    1.626786
     20          1           0        2.712413   -1.402411    1.778352
     21          1           0        4.676640   -0.374993    0.670123
     22          1           0        4.349914    1.211298   -1.229183
     23          1           0        2.024685    1.751424   -1.990048
     24          1           0       -1.260906    1.200849    0.669853
     25          1           0       -2.477116   -0.022984   -1.871753
     26          1           0       -3.403189    0.459047   -0.441880
 ---------------------------------------------------------------------

 SCF Done:  E(RB3LYP) =  -611.103004181     A.U. after   15 cycles

 Excitation energies and oscillator strengths:

 Excited state symmetry could not be determined.
 Excited State   1:      Triplet-?Sym    3.5615 eV  348.12 nm  f=0.0000  <S**2>=2.000
      48 -> 52        -0.10402
      49 -> 51        -0.39138
      50 -> 51        -0.16666
      50 -> 52         0.54070
 This state for optimization and/or second-order correction.
 Total Energy, E(TD-HF/TD-DFT) =  -610.972121168
 Copying the excited state density for this state as the 1-particle RhoCI density.

 Excited state symmetry could not be determined.
 Excited State   2:      Triplet-?Sym    3.9307 eV  315.42 nm  f=0.0000  <S**2>=2.000
      50 -> 51         0.67937
      50 -> 52         0.13613

 Excited state symmetry could not be determined.
 Excited State   3:      Singlet-?Sym    4.8022 eV  258.18 nm  f=0.0574  <S**2>=0.000
      49 -> 52         0.28365
      50 -> 51         0.63675

 Excited state symmetry could not be determined.
 Excited State   4:      Singlet-?Sym    5.3883 eV  230.10 nm  f=0.0636  <S**2>=0.000
      49 -> 51        -0.21841
      50 -> 52         0.63547
      50 -> 53         0.16748

 Alpha  occ. eigenvalues --  -19.18154 -14.35429 -14.33081 -10.27107 -10.24655
 Alpha  occ. eigenvalues --  -10.24488 -10.24172 -10.22788 -10.22727 -10.20465
 Alpha  occ. eigenvalues --  -10.18745 -10.18384 -10.18378 -10.18102  -1.07331
 Alpha  occ. eigenvalues --   -0.94329  -0.90081  -0.85517  -0.81428  -0.77344
 Alpha  occ. eigenvalues --   -0.73930  -0.72002  -0.68621  -0.63377  -0.61561
 Alpha  occ. eigenvalues --   -0.57488  -0.55065  -0.53574  -0.51709  -0.49489
 Alpha  occ. eigenvalues --   -0.46818  -0.46577  -0.45028  -0.44216  -0.43508
 Alpha  occ. eigenvalues --   -0.42681  -0.42093  -0.40573  -0.39178  -0.38657
 Alpha  occ. eigenvalues --   -0.36617  -0.35744  -0.35477  -0.33641  -0.32318
 Alpha  occ. eigenvalues --   -0.32162  -0.31253  -0.29931  -0.23086  -0.19792
 Alpha virt. eigenvalues --    0.00511   0.01712   0.03091   0.03841   0.07205
 Alpha virt. eigenvalues --    0.08567   0.09215   0.10430   0.11252   0.13167
 Alpha virt. eigenvalues --    0.14127   0.14993   0.15451   0.16444   0.16988

 Mulliken charges:
               1
     1  C   -0.472710
     2  C    0.044721
     3  N   -0.681408
     4  C    0.317264
     5  C   -0.199748
     6  C   -0.136705
     7  C   -0.141110
     8  C   -0.192134
     9  C    0.331108
    10  O   -0.546266
    11  C    0.143040
    12  C   -0.364171
    13  C    0.364333
    14  N   -0.468051
    15  H    0.154939
    16  H    0.153217
    17  H    0.167874
    18  H    0.134979
    19  H    0.312966
    20  H    0.119046
    21  H    0.125551
    22  H    0.127277
    23  H    0.144133
    24  H    0.161177
    25  H    0.203041
    26  H    0.197638
 Sum of Mulliken charges =  -0.00000

 Dipole moment (field-independent basis, Debye):
    X=             -0.5184    Y=             -5.1200    Z=              2.5221  Tot=              5.7310
 Quadrupole moment (field-independent basis, Debye-Ang):
   XX=            -77.4009   YY=            -92.3322   ZZ=            -84.7530
   XY=             10.7103   XZ=             -4.8424   YZ=              4.1800

 Normal termination of Gaussian 16 at Sat Nov  5 11:55:50 2022.
