 Gaussian 16, Revision B.01,
 Gaussian 16:  ES64L-G16RevB.01 20-Dec-2017

 -----------------------------
 #p b3lyp/6-31g(d) opt SCF=XQC
 -----------------------------

 ------------------------------
 Gaussian input prepared by ASE
 ------------------------------
 Symbolic Z-matrix:
 Charge =  0 Multiplicity = 1

 SCF Done:  E(RB3LYP) =  -611.098316062     A.U. after   15 cycles
 SCF Done:  E(RB3LYP) =  -611.101461611     A.U. after   12 cycles
 SCF Done:  E(RB3LYP) =  -611.101715903     A.U. after   12 cycles
 SCF Done:  E(RB3LYP) =  -611.102150145     A.U. after   12 cycles
 SCF Done:  E(RB3LYP) =  -611.102120767     A.U. after   12 cycles
 SCF Done:  E(RB3LYP) =  -611.102493965     A.U. after   11 cycles
 SCF Done:  E(RB3LYP) =  -611.102922265     A.U. after   12 cycles
 SCF Done:  E(RB3LYP) =  -611.102964087     A.U. after   11 cycles
 SCF Done:  E(RB3LYP) =  -611.102995000     A.U. after   11 cycles
 SCF Done:  E(RB3LYP) =  -611.103000942     A.U. after    9 cycles
 SCF Done:  E(RB3LYP) =  -611.103002446     A.U. after    9 cycles
 SCF Done:  E(RB3LYP) =  -611.103004045     A.U. after    8 cycles
 SCF Done:  E(RB3LYP) =  -611.103004633     A.U. after    9 cycles
 Optimization completed.
    -- Stationary point found.

                         Standard orientation:
 ---------------------------------------------------------------------
 Center     Atomic      Atomic             Coordinates (Angstroms)
 Number     Number       Type             X           Y           Z
 ---------------------------------------------------------------------
      1          6           0       -1.659717    2.757087   -0.101625
      2          6           0       -0.790598    1.580907    0.346125
      3          7           0        0.550068    1.741899   -0.207316
      4          6           0        1.431688    0.656474   -0.093356
      5          6           0        2.818224    0.800470   -0.230122
      6          6           0        3.661697   -0.306463   -0.145258
      7          6           0        3.130763   -1.578607    0.077349
      8          6           0        1.750662   -1.738357    0.206845
      9          6           0        0.910886   -0.631539    0.123978
     10          8           0       -0.443881   -0.832932    0.293690
     11          6           0       -1.300638    0.215377   -0.155055
     12          6           0       -2.695715   -0.140907    0.377791
     13          6           0       -3.173647   -1.435175   -0.117564
     14          7           0       -3.575957   -2.447364   -0.516948
     15          1           0       -2.641503    2.744126    0.381696
     16          1           0       -1.180141    3.704767    0.170387
     17          1           0       -1.795606    2.751185   -1.188583
     18          1           0       -0.775866    1.534299    1.450515
     19          1           0        0.973684    2.638033    0.005107
     20          1           0        3.229584    1.792564   -0.405067
     21          1           0        4.734178   -0.170761   -0.251776
     22          1           0        3.782865   -2.444205    0.144309
     23          1           0        1.302686   -2.712578    0.376752
     24          1           0       -1.313206    0.232042   -1.254087
     25          1           0       -2.667439   -0.170237    1.473718
     26          1           0       -3.418595    0.626873    0.082717
 ---------------------------------------------------------------------

 The electronic state is 1-A.
 Alpha  occ. eigenvalues --  -19.18154 -14.35429 -14.33081 -10.27107 -10.24655
 Alpha  occ. eigenvalues --  -10.24489 -10.24172 -10.22788 -10.22727 -10.20465
 Alpha  occ. eigenvalues --  -10.18745 -10.18384 -10.18378 -10.18102  -1.07331
 Alpha  occ. eigenvalues --   -0.94329  -0.90081  -0.85517  -0.81428  -0.77344
 Alpha  occ. eigenvalues --   -0.73930  -0.72002  -0.68621  -0.63377  -0.61561
 Alpha  occ. eigenvalues --   -0.57488  -0.55065  -0.53574  -0.51709  -0.49489
 Alpha  occ. eigenvalues --   -0.46818  -0.46577  -0.45028  -0.44216  -0.43508
 Alpha  occ. eigenvalues --   -0.42681  -0.42093  -0.40573  -0.39178  -0.38657
 Alpha  occ. eigenvalues --   -0.36617  -0.35744  -0.35477  -0.33641  -0.32318
 Alpha  occ. eigenvalues --   -0.32162  -0.31253  -0.29931  -0.23086  -0.19792
 Alpha virt. eigenvalues --    0.00511   0.01712   0.03091   0.03841   0.07205
 Alpha virt. eigenvalues --    0.08567   0.09215   0.10430   0.11252   0.13167
 Alpha virt. eigenvalues --    0.14127   0.14993   0.15451   0.16444   0.16988

 Mulliken charges:
               1
     1  C   -0.472719
     2  C    0.044748
     3  N   -0.681403
     4  C    0.317261
     5  C   -0.199752
     6  C   -0.136708
     7  C   -0.141107
     8  C   -0.192137
     9  C    0.331105
    10  O   -0.546260
    11  C    0.143026
    12  C   -0.364182
    13  C    0.364337
    14  N   -0.468051
    15  H    0.154939
    16  H    0.153217
    17  H    0.167874
    18  H    0.134975
    19  H    0.312966
    20  H    0.119046
    21  H    0.125551
    22  H    0.127277
    23  H    0.144134
    24  H    0.161179
    25  H    0.203043
    26  H    0.197640
 Sum of Mulliken charges =  -0.00000

 Dipole moment (field-independent basis, Debye):
    X=              0.9480    Y=              5.4617    Z=              1.4544  Tot=              5.7310
 Quadrupole moment (field-independent basis, Debye-Ang):
   XX=            -84.1352   YY=            -82.6012   ZZ=            -83.7423
   XY=            -13.2058   XZ=             -4.0125   YZ=             -1.4217

 Normal termination of Gaussian 16 at Fri Nov  4 19:34:37 2022.
