 Gaussian 16, Revision B.01,
 Gaussian 16:  ES64L-G16RevB.01 20-Dec-2017

 -------------------------------------------------------------------
 #p b3lyp/6-31g(d) 6D 10F nosymm GFInput td=(50-50,nstate=2) SCF=XQC
 -------------------------------------------------------------------

 ------------------------------
 Gaussian input prepared by ASE
 ------------------------------
 Symbolic Z-matrix:
 Charge =  0 Multiplicity = 1

                          Input orientation:
 ---------------------------------------------------------------------
 Center     Atomic      Atomic             Coordinates (Angstroms)
 Number     Number       Type             X           Y           Z
 ---------------------------------------------------------------------
      1          6           0        0.245900   -0.588354   -2.459241
      2          6           0        0.749257   -0.074040   -1.112269
      3          8           0        2.133139   -0.438647   -1.033480
      4          6           0        2.855106    0.180374   -0.063150
      5          8           0        2.415320    1.061822    0.648720
      6          6           0        4.232609   -0.321676   -0.007336
      7          6           0        5.214225    0.144869    0.836541
      8          6           0        6.452320   -0.530037    0.670974
      9          6           0        6.393362   -1.501946   -0.296806
     10         16           0        4.827964   -1.611746   -1.020409
     11          6           0        0.003420   -0.728876    0.069293
     12          8           0        0.543971   -1.613301    0.720205
     13          7           0       -1.296462   -0.355315    0.337973
     14          6           0       -2.169519    0.612727   -0.224242
     15          6           0       -1.903682    1.734498   -1.014852
     16          6           0       -2.973275    2.543715   -1.415045
     17          6           0       -4.282724    2.259192   -1.030934
     18          6           0       -4.540387    1.144358   -0.225021
     19          6           0       -3.489319    0.331215    0.174575
     20          6           0       -3.513374   -0.915635    1.024882
     21          6           0       -2.026412   -1.124638    1.393364
     22          6           0       -1.669482   -0.604295    2.787615
     23          1           0       -0.803755   -0.322849   -2.610613
     24          1           0        0.345937   -1.677171   -2.503273
     25          1           0        0.838070   -0.151696   -3.268945
     26          1           0        0.689984    1.012392   -1.038245
     27          1           0        5.028424    0.944821    1.543628
     28          1           0        7.346338   -0.308107    1.243052
     29          1           0        7.186085   -2.163210   -0.622138
     30          1           0       -0.900777    2.010101   -1.311124
     31          1           0       -2.766275    3.416541   -2.028145
     32          1           0       -5.097419    2.903676   -1.347759
     33          1           0       -5.555610    0.916086    0.090434
     34          1           0       -4.137531   -0.810280    1.918652
     35          1           0       -3.904434   -1.769184    0.454307
     36          1           0       -1.719947   -2.167885    1.307030
     37          1           0       -2.198496   -1.187415    3.550677
     38          1           0       -1.957394    0.447634    2.897899
     39          1           0       -0.595157   -0.697720    2.963205
 ---------------------------------------------------------------------

 SCF Done:  E(RB3LYP) =  -1336.68139399     A.U. after   15 cycles

 Excitation energies and oscillator strengths:

 Excited state symmetry could not be determined.
 Excited State   1:      Triplet-?Sym    3.0494 eV  406.59 nm  f=0.0000  <S**2>=2.000
      81 -> 84         0.12390
      82 -> 84         0.67824
 This state for optimization and/or second-order correction.
 Total Energy, E(TD-HF/TD-DFT) =  -1336.56933111
 Copying the excited state density for this state as the 1-particle RhoCI density.

 Excited state symmetry could not be determined.
 Excited State   2:      Triplet-?Sym    3.4402 eV  360.39 nm  f=0.0000  <S**2>=2.000
      80 -> 85        -0.21045
      80 -> 86         0.23177
      83 -> 85         0.47752
      83 -> 86         0.36933

 Excited state symmetry could not be determined.
 Excited State   3:      Singlet-?Sym    4.0526 eV  305.94 nm  f=0.0066  <S**2>=0.000
      83 -> 84         0.70592

 Excited state symmetry could not be determined.
 Excited State   4:      Singlet-?Sym    4.7373 eV  261.72 nm  f=0.1001  <S**2>=0.000
      78 -> 84         0.11062
      80 -> 85         0.16499
      80 -> 86         0.17409
      81 -> 84         0.13856
      82 -> 84        -0.11527
      83 -> 85         0.50180
      83 -> 86        -0.36575

 Alpha  occ. eigenvalues --  -88.91407 -19.18939 -19.13103 -19.11767 -14.37727
 Alpha  occ. eigenvalues --  -10.31761 -10.29122 -10.25874 -10.23842 -10.23004
 Alpha  occ. eigenvalues --  -10.22400 -10.22164 -10.20167 -10.20019 -10.19922
 Alpha  occ. eigenvalues --  -10.19895 -10.19868 -10.19679 -10.19654 -10.19217
 Alpha  occ. eigenvalues --  -10.19091 -10.17429  -7.97472  -5.93873  -5.93501
 Alpha  occ. eigenvalues --   -5.93191  -1.10195  -1.03933  -1.01035  -0.95697
 Alpha  occ. eigenvalues --   -0.88494  -0.85252  -0.80965  -0.78560  -0.75612
 Alpha  occ. eigenvalues --   -0.74599  -0.74093  -0.73947  -0.68590  -0.66886
 Alpha  occ. eigenvalues --   -0.65267  -0.61941  -0.59718  -0.59105  -0.56968
 Alpha  occ. eigenvalues --   -0.55753  -0.54565  -0.52572  -0.52046  -0.49006
 Alpha  occ. eigenvalues --   -0.48568  -0.47098  -0.46689  -0.45646  -0.45049
 Alpha  occ. eigenvalues --   -0.44103  -0.43261  -0.42879  -0.41814  -0.40951
 Alpha  occ. eigenvalues --   -0.40748  -0.40351  -0.40244  -0.39377  -0.38756
 Alpha  occ. eigenvalues --   -0.38550  -0.37679  -0.37537  -0.37117  -0.36156
 Alpha  occ. eigenvalues --   -0.35894  -0.34984  -0.34670  -0.33879  -0.33695
 Alpha  occ. eigenvalues --   -0.30336  -0.29780  -0.27372  -0.25634  -0.25334
 Alpha  occ. eigenvalues --   -0.25307  -0.24101  -0.21389
 Alpha virt. eigenvalues --   -0.04805  -0.01653  -0.00802   0.03301   0.03749
 Alpha virt. eigenvalues --    0.03834   0.08647   0.09620   0.09997   0.10214
 Alpha virt. eigenvalues --    0.10779   0.11276   0.12348   0.12771   0.13611

 Mulliken charges:
               1
     1  C   -0.468912
     2  C    0.047171
     3  O   -0.486975
     4  C    0.654407
     5  O   -0.496779
     6  C   -0.233335
     7  C   -0.092898
     8  C   -0.103932
     9  C   -0.339195
    10  S    0.305236
    11  C    0.592699
    12  O   -0.505135
    13  N   -0.587416
    14  C    0.335210
    15  C   -0.163852
    16  C   -0.145339
    17  C   -0.129746
    18  C   -0.204681
    19  C    0.095951
    20  C   -0.357041
    21  C    0.028037
    22  C   -0.447322
    23  H    0.168227
    24  H    0.174504
    25  H    0.168217
    26  H    0.178376
    27  H    0.168342
    28  H    0.148330
    29  H    0.178050
    30  H    0.145641
    31  H    0.134497
    32  H    0.130953
    33  H    0.130781
    34  H    0.160582
    35  H    0.163653
    36  H    0.171797
    37  H    0.144188
    38  H    0.150646
    39  H    0.187062
 Sum of Mulliken charges =  -0.00000

 Dipole moment (field-independent basis, Debye):
    X=             -1.3963    Y=              0.2433    Z=             -1.3284  Tot=              1.9426
 Quadrupole moment (field-independent basis, Debye-Ang):
   XX=           -105.2853   YY=           -134.1754   ZZ=           -130.7806
   XY=             -2.6289   XZ=             -1.7979   YZ=             -1.8354

 Normal termination of Gaussian 16 at Sat Nov  5 11:58:40 2022.
