 Gaussian 16, Revision B.01,
 Gaussian 16:  ES64L-G16RevB.01 20-Dec-2017

 -----------------------------
 #p b3lyp/6-31g(d) opt SCF=XQC
 -----------------------------

 ------------------------------
 Gaussian input prepared by ASE
 ------------------------------
 Symbolic Z-matrix:
 Charge =  0 Multiplicity = 1

 SCF Done:  E(RB3LYP) =  -1336.67561562     A.U. after   15 cycles
 SCF Done:  E(RB3LYP) =  -1336.68062703     A.U. after   13 cycles
 SCF Done:  E(RB3LYP) =  -1336.68042108     A.U. after   13 cycles
 SCF Done:  E(RB3LYP) =  -1336.68119182     A.U. after   12 cycles
 SCF Done:  E(RB3LYP) =  -1336.68134114     A.U. after   12 cycles
 SCF Done:  E(RB3LYP) =  -1336.68135580     A.U. after   11 cycles
 SCF Done:  E(RB3LYP) =  -1336.68138300     A.U. after   10 cycles
 SCF Done:  E(RB3LYP) =  -1336.68138677     A.U. after    9 cycles
 SCF Done:  E(RB3LYP) =  -1336.68138792     A.U. after    9 cycles
 SCF Done:  E(RB3LYP) =  -1336.68138860     A.U. after    8 cycles
 SCF Done:  E(RB3LYP) =  -1336.68138863     A.U. after    7 cycles
 SCF Done:  E(RB3LYP) =  -1336.68138860     A.U. after    7 cycles
 Optimization completed.
    -- Stationary point found.

                         Standard orientation:
 ---------------------------------------------------------------------
 Center     Atomic      Atomic             Coordinates (Angstroms)
 Number     Number       Type             X           Y           Z
 ---------------------------------------------------------------------
      1          6           0        0.209089   -1.710849   -1.722108
      2          6           0       -0.165272   -0.896484   -0.485628
      3          8           0       -1.590924   -0.751820   -0.515006
      4          6           0       -2.167894   -0.328494    0.639924
      5          8           0       -1.559725   -0.164883    1.679387
      6          6           0       -3.613063   -0.129038    0.483756
      7          6           0       -4.475689    0.247721    1.487395
      8          6           0       -5.819925    0.365389    1.045837
      9          6           0       -5.959510    0.077172   -0.289127
     10         16           0       -4.455154   -0.340212   -1.029960
     11          6           0        0.469134    0.509990   -0.508734
     12          8           0       -0.212900    1.484861   -0.796041
     13          7           0        1.820448    0.645490   -0.269944
     14          6           0        2.846318   -0.271547    0.079418
     15          6           0        2.777090   -1.558877    0.619874
     16          6           0        3.969849   -2.238153    0.893600
     17          6           0        5.211358   -1.652593    0.650850
     18          6           0        5.274122   -0.356805    0.125748
     19          6           0        4.098831    0.325633   -0.154596
     20          6           0        3.908526    1.709694   -0.725907
     21          6           0        2.415745    2.005859   -0.453124
     22          6           0        2.187277    2.869082    0.789751
     23          1           0        1.286661   -1.891660   -1.758539
     24          1           0       -0.090876   -1.173512   -2.626961
     25          1           0       -0.307544   -2.675046   -1.702855
     26          1           0        0.094762   -1.410774    0.440232
     27          1           0       -4.132223    0.429513    2.499027
     28          1           0       -6.646717    0.652023    1.686188
     29          1           0       -6.866593    0.090819   -0.879494
     30          1           0        1.836820   -2.039982    0.852221
     31          1           0        3.915866   -3.238080    1.315257
     32          1           0        6.124826   -2.195125    0.876018
     33          1           0        6.235588    0.116129   -0.059229
     34          1           0        4.558150    2.457136   -0.258130
     35          1           0        4.124608    1.719975   -1.803048
     36          1           0        1.920540    2.465841   -1.309234
     37          1           0        2.613954    3.867145    0.634938
     38          1           0        2.666305    2.423018    1.669051
     39          1           0        1.117659    2.976063    0.985218
 ---------------------------------------------------------------------

 The electronic state is 1-A.
 Alpha  occ. eigenvalues --  -88.91406 -19.18939 -19.13103 -19.11767 -14.37727
 Alpha  occ. eigenvalues --  -10.31761 -10.29122 -10.25874 -10.23842 -10.23004
 Alpha  occ. eigenvalues --  -10.22400 -10.22164 -10.20167 -10.20019 -10.19922
 Alpha  occ. eigenvalues --  -10.19895 -10.19868 -10.19678 -10.19654 -10.19217
 Alpha  occ. eigenvalues --  -10.19091 -10.17429  -7.97472  -5.93873  -5.93501
 Alpha  occ. eigenvalues --   -5.93191  -1.10195  -1.03933  -1.01035  -0.95697
 Alpha  occ. eigenvalues --   -0.88494  -0.85252  -0.80965  -0.78560  -0.75612
 Alpha  occ. eigenvalues --   -0.74599  -0.74093  -0.73947  -0.68590  -0.66886
 Alpha  occ. eigenvalues --   -0.65267  -0.61941  -0.59718  -0.59105  -0.56968
 Alpha  occ. eigenvalues --   -0.55753  -0.54565  -0.52572  -0.52046  -0.49006
 Alpha  occ. eigenvalues --   -0.48568  -0.47098  -0.46689  -0.45646  -0.45049
 Alpha  occ. eigenvalues --   -0.44103  -0.43261  -0.42879  -0.41814  -0.40951
 Alpha  occ. eigenvalues --   -0.40748  -0.40351  -0.40244  -0.39377  -0.38756
 Alpha  occ. eigenvalues --   -0.38550  -0.37679  -0.37537  -0.37117  -0.36156
 Alpha  occ. eigenvalues --   -0.35894  -0.34984  -0.34670  -0.33879  -0.33695
 Alpha  occ. eigenvalues --   -0.30336  -0.29780  -0.27372  -0.25634  -0.25334
 Alpha  occ. eigenvalues --   -0.25307  -0.24101  -0.21389
 Alpha virt. eigenvalues --   -0.04805  -0.01653  -0.00802   0.03301   0.03749
 Alpha virt. eigenvalues --    0.03834   0.08647   0.09620   0.09997   0.10214
 Alpha virt. eigenvalues --    0.10779   0.11276   0.12348   0.12771   0.13611

 Mulliken charges:
               1
     1  C   -0.468914
     2  C    0.047156
     3  O   -0.486976
     4  C    0.654420
     5  O   -0.496790
     6  C   -0.233342
     7  C   -0.092888
     8  C   -0.103939
     9  C   -0.339186
    10  S    0.305236
    11  C    0.592723
    12  O   -0.505137
    13  N   -0.587423
    14  C    0.335209
    15  C   -0.163869
    16  C   -0.145340
    17  C   -0.129736
    18  C   -0.204685
    19  C    0.095970
    20  C   -0.357051
    21  C    0.028033
    22  C   -0.447323
    23  H    0.168226
    24  H    0.174506
    25  H    0.168216
    26  H    0.178379
    27  H    0.168341
    28  H    0.148330
    29  H    0.178050
    30  H    0.145645
    31  H    0.134497
    32  H    0.130952
    33  H    0.130781
    34  H    0.160582
    35  H    0.163654
    36  H    0.171795
    37  H    0.144189
    38  H    0.150648
    39  H    0.187062
 Sum of Mulliken charges =  -0.00000

 Dipole moment (field-independent basis, Debye):
    X=              1.3919    Y=             -1.1290    Z=             -0.7494  Tot=              1.9426
 Quadrupole moment (field-independent basis, Debye-Ang):
   XX=           -103.5847   YY=           -130.0428   ZZ=           -135.1489
   XY=              1.7304   XZ=             -2.2429   YZ=              0.5435

 Normal termination of Gaussian 16 at Fri Nov  4 19:41:38 2022.
