 Gaussian 16, Revision B.01,
 Gaussian 16:  ES64L-G16RevB.01 20-Dec-2017

 -------------------------------------------------------------------
 #p b3lyp/6-31g(d) 6D 10F nosymm GFInput td=(50-50,nstate=2) SCF=XQC
 -------------------------------------------------------------------

 ------------------------------
 Gaussian input prepared by ASE
 ------------------------------
 Symbolic Z-matrix:
 Charge =  0 Multiplicity = 1

                          Input orientation:
 ---------------------------------------------------------------------
 Center     Atomic      Atomic             Coordinates (Angstroms)
 Number     Number       Type             X           Y           Z
 ---------------------------------------------------------------------
      1          6           0       -6.944946   -0.555840    0.999474
      2          8           0       -6.404721   -1.464562    0.052479
      3          6           0       -5.831249   -0.854310   -1.087063
      4          6           0       -4.472437   -0.200059   -0.799181
      5          7           0       -3.626688   -1.159616   -0.112088
      6          6           0       -2.318786   -1.014859    0.257480
      7         16           0       -1.614616   -2.175289    1.257078
      8          7           0       -1.717531    0.105166   -0.251962
      9          6           0       -0.398044    0.610224   -0.146918
     10          6           0       -0.238714    1.984962   -0.391638
     11          6           0        1.033681    2.544221   -0.341944
     12          6           0        2.155152    1.770634   -0.049551
     13          6           0        1.999972    0.392144    0.174519
     14          7           0        3.062416   -0.452065    0.504456
     15          6           0        4.436130   -0.292177    0.289533
     16          6           0        5.328154   -0.983412    1.129670
     17          6           0        6.702767   -0.899652    0.928685
     18          6           0        7.223525   -0.114901   -0.102777
     19          6           0        6.342071    0.568786   -0.941521
     20          6           0        4.962456    0.479431   -0.761468
     21          6           0        0.717675   -0.183213    0.114022
     22          1           0       -7.434843   -1.159901    1.766306
     23          1           0       -7.689285    0.107762    0.533724
     24          1           0       -6.171454    0.060413    1.479407
     25          1           0       -5.695447   -1.661432   -1.813473
     26          1           0       -6.510188   -0.103648   -1.521129
     27          1           0       -4.033083    0.088692   -1.764782
     28          1           0       -4.605152    0.720579   -0.207020
     29          1           0       -4.111712   -1.904393    0.374349
     30          1           0       -2.333895    0.750132   -0.728610
     31          1           0       -1.105743    2.607913   -0.599944
     32          1           0        1.154220    3.610739   -0.512125
     33          1           0        3.130244    2.234739    0.034807
     34          1           0        2.797160   -1.296904    0.991218
     35          1           0        4.931950   -1.582347    1.946902
     36          1           0        7.370519   -1.444677    1.590952
     37          1           0        8.296678   -0.041944   -0.252587
     38          1           0        6.727841    1.170035   -1.761043
     39          1           0        4.293501    0.983698   -1.449529
     40          1           0        0.592422   -1.245067    0.277763
 ---------------------------------------------------------------------

 SCF Done:  E(RB3LYP) =  -1258.80386611     A.U. after   14 cycles

 Excitation energies and oscillator strengths:

 Excited state symmetry could not be determined.
 Excited State   1:      Triplet-?Sym    3.1500 eV  393.61 nm  f=0.0000  <S**2>=2.000
      75 -> 84        -0.12127
      76 -> 83        -0.13086
      77 -> 81        -0.14661
      78 -> 81        -0.15562
      79 -> 81         0.11854
      80 -> 81        -0.39638
      80 -> 82         0.45772
 This state for optimization and/or second-order correction.
 Total Energy, E(TD-HF/TD-DFT) =  -1258.68810718
 Copying the excited state density for this state as the 1-particle RhoCI density.

 Excited state symmetry could not be determined.
 Excited State   2:      Triplet-?Sym    3.4622 eV  358.11 nm  f=0.0000  <S**2>=2.000
      76 -> 83        -0.13456
      78 -> 81         0.50284
      78 -> 85        -0.10565
      80 -> 81         0.23537
      80 -> 82         0.33295

 Excited state symmetry could not be determined.
 Excited State   3:      Singlet-?Sym    3.7420 eV  331.33 nm  f=0.0029  <S**2>=0.000
      79 -> 81         0.57158
      79 -> 84        -0.10658
      80 -> 81         0.37623

 Excited state symmetry could not be determined.
 Excited State   4:      Singlet-?Sym    4.0006 eV  309.91 nm  f=0.0214  <S**2>=0.000
      78 -> 81        -0.11547
      79 -> 81        -0.35328
      79 -> 82        -0.10116
      80 -> 81         0.56720

 Alpha  occ. eigenvalues --  -88.81030 -19.17369 -14.38806 -14.36952 -14.35677
 Alpha  occ. eigenvalues --  -10.30294 -10.26030 -10.25063 -10.24488 -10.23795
 Alpha  occ. eigenvalues --  -10.23192 -10.22879 -10.19137 -10.18604 -10.18551
 Alpha  occ. eigenvalues --  -10.18516 -10.18249 -10.18071 -10.18016 -10.17855
 Alpha  occ. eigenvalues --  -10.17762  -7.87304  -5.83879  -5.83227  -5.82907
 Alpha  occ. eigenvalues --   -1.05580  -0.99720  -0.94678  -0.92548  -0.84868
 Alpha  occ. eigenvalues --   -0.83023  -0.79239  -0.75536  -0.74509  -0.73869
 Alpha  occ. eigenvalues --   -0.72828  -0.71147  -0.69274  -0.64260  -0.62715
 Alpha  occ. eigenvalues --   -0.62402  -0.60678  -0.59444  -0.56917  -0.55753
 Alpha  occ. eigenvalues --   -0.53175  -0.52153  -0.51863  -0.50856  -0.49528
 Alpha  occ. eigenvalues --   -0.48279  -0.47944  -0.46562  -0.45826  -0.45245
 Alpha  occ. eigenvalues --   -0.44498  -0.43406  -0.42635  -0.41930  -0.41655
 Alpha  occ. eigenvalues --   -0.41515  -0.40880  -0.39266  -0.38201  -0.37546
 Alpha  occ. eigenvalues --   -0.36107  -0.35612  -0.35430  -0.35102  -0.33879
 Alpha  occ. eigenvalues --   -0.33490  -0.32062  -0.29171  -0.28159  -0.24955
 Alpha  occ. eigenvalues --   -0.24483  -0.22738  -0.20705  -0.19937  -0.18453
 Alpha virt. eigenvalues --   -0.01939  -0.00336   0.00450   0.02253   0.04232
 Alpha virt. eigenvalues --    0.05571   0.07477   0.08938   0.09562   0.10006
 Alpha virt. eigenvalues --    0.10260   0.10575   0.11056   0.13224   0.13730

 Mulliken charges:
               1
     1  C   -0.210737
     2  O   -0.454425
     3  C   -0.048796
     4  C   -0.164492
     5  N   -0.578931
     6  C    0.376907
     7  S   -0.316907
     8  N   -0.717696
     9  C    0.367665
    10  C   -0.206026
    11  C   -0.144243
    12  C   -0.176675
    13  C    0.362849
    14  N   -0.798470
    15  C    0.367532
    16  C   -0.191285
    17  C   -0.132618
    18  C   -0.134493
    19  C   -0.140911
    20  C   -0.174377
    21  C   -0.218192
    22  H    0.174575
    23  H    0.138230
    24  H    0.146212
    25  H    0.171344
    26  H    0.137722
    27  H    0.159505
    28  H    0.154503
    29  H    0.367253
    30  H    0.341817
    31  H    0.113286
    32  H    0.129872
    33  H    0.144211
    34  H    0.334569
    35  H    0.124466
    36  H    0.128716
    37  H    0.123927
    38  H    0.127641
    39  H    0.142320
    40  H    0.174155
 Sum of Mulliken charges =  -0.00000

 Dipole moment (field-independent basis, Debye):
    X=             -3.6381    Y=              3.7851    Z=             -2.3386  Tot=              5.7474
 Quadrupole moment (field-independent basis, Debye-Ang):
   XX=            -99.1110   YY=           -135.7831   ZZ=           -131.4475
   XY=            -12.8689   XZ=              6.8572   YZ=             -1.9031

 Normal termination of Gaussian 16 at Sat Nov  5 11:57:08 2022.
