 Gaussian 16, Revision B.01,
 Gaussian 16:  ES64L-G16RevB.01 20-Dec-2017

 -----------------------------
 #p b3lyp/6-31g(d) opt SCF=XQC
 -----------------------------

 ------------------------------
 Gaussian input prepared by ASE
 ------------------------------
 Symbolic Z-matrix:
 Charge =  0 Multiplicity = 1

 SCF Done:  E(RB3LYP) =  -1258.79853606     A.U. after   14 cycles
 SCF Done:  E(RB3LYP) =  -1258.80135552     A.U. after   13 cycles
 SCF Done:  E(RB3LYP) =  -1258.80342954     A.U. after   12 cycles
 SCF Done:  E(RB3LYP) =  -1258.80370892     A.U. after   11 cycles
 SCF Done:  E(RB3LYP) =  -1258.80373754     A.U. after   11 cycles
 SCF Done:  E(RB3LYP) =  -1258.80377695     A.U. after   10 cycles
 SCF Done:  E(RB3LYP) =  -1258.80380570     A.U. after   10 cycles
 SCF Done:  E(RB3LYP) =  -1258.80382464     A.U. after   10 cycles
 SCF Done:  E(RB3LYP) =  -1258.80384196     A.U. after   10 cycles
 SCF Done:  E(RB3LYP) =  -1258.80385541     A.U. after   11 cycles
 SCF Done:  E(RB3LYP) =  -1258.80386461     A.U. after   10 cycles
 SCF Done:  E(RB3LYP) =  -1258.80386607     A.U. after    8 cycles
 SCF Done:  E(RB3LYP) =  -1258.80386663     A.U. after    8 cycles
 SCF Done:  E(RB3LYP) =  -1258.80386679     A.U. after    7 cycles
 SCF Done:  E(RB3LYP) =  -1258.80386715     A.U. after    8 cycles
 SCF Done:  E(RB3LYP) =  -1258.80386744     A.U. after    9 cycles
 SCF Done:  E(RB3LYP) =  -1258.80386769     A.U. after    9 cycles
 SCF Done:  E(RB3LYP) =  -1258.80386788     A.U. after    9 cycles
 SCF Done:  E(RB3LYP) =  -1258.80386796     A.U. after    7 cycles
 SCF Done:  E(RB3LYP) =  -1258.80386800     A.U. after    7 cycles
 Optimization completed.
    -- Stationary point found.

                         Standard orientation:
 ---------------------------------------------------------------------
 Center     Atomic      Atomic             Coordinates (Angstroms)
 Number     Number       Type             X           Y           Z
 ---------------------------------------------------------------------
      1          6           0        7.073694   -0.161222   -0.954977
      2          8           0        6.616042   -0.610719    0.311090
      3          6           0        5.997710    0.386350    1.100617
      4          6           0        4.587319    0.749493    0.614600
      5          7           0        3.822871   -0.472515    0.440085
      6          6           0        2.505920   -0.598986    0.096884
      7         16           0        1.898243   -2.125742   -0.279141
      8          7           0        1.814267    0.583003    0.100222
      9          6           0        0.456409    0.893673   -0.158371
     10          6           0        0.182498    2.223607   -0.520902
     11          6           0       -1.132790    2.610377   -0.754683
     12          6           0       -2.186075    1.705134   -0.641747
     13          6           0       -1.915898    0.380414   -0.258806
     14          7           0       -2.904553   -0.600121   -0.151818
     15          6           0       -4.285976   -0.466064    0.028582
     16          6           0       -5.119826   -1.516142   -0.397297
     17          6           0       -6.495771   -1.456623   -0.196781
     18          6           0       -7.076760   -0.345256    0.418242
     19          6           0       -6.252810    0.696647    0.846526
     20          6           0       -4.871324    0.641486    0.667098
     21          6           0       -0.589338   -0.015442   -0.008765
     22          1           0        7.609746   -0.998371   -1.407470
     23          1           0        7.761197    0.691701   -0.849180
     24          1           0        6.248952    0.128606   -1.621455
     25          1           0        5.933549   -0.036682    2.107834
     26          1           0        6.612563    1.299048    1.143094
     27          1           0        4.129079    1.392471    1.379708
     28          1           0        4.639361    1.332225   -0.320042
     29          1           0        4.367099   -1.315774    0.301187
     30          1           0        2.375873    1.414329    0.228975
     31          1           0        0.994637    2.938193   -0.634904
     32          1           0       -1.342312    3.633889   -1.053809
     33          1           0       -3.197227    2.013541   -0.877902
     34          1           0       -2.570852   -1.549881   -0.239278
     35          1           0       -4.677770   -2.377375   -0.893718
     36          1           0       -7.117781   -2.281866   -0.533856
     37          1           0       -8.151620   -0.295043    0.565133
     38          1           0       -6.684656    1.561724    1.343602
     39          1           0       -4.244567    1.441276    1.044887
     40          1           0       -0.375487   -1.031633    0.293982
 ---------------------------------------------------------------------

 The electronic state is 1-A.
 Alpha  occ. eigenvalues --  -88.81031 -19.17369 -14.38806 -14.36952 -14.35677
 Alpha  occ. eigenvalues --  -10.30294 -10.26030 -10.25063 -10.24488 -10.23795
 Alpha  occ. eigenvalues --  -10.23192 -10.22879 -10.19137 -10.18604 -10.18551
 Alpha  occ. eigenvalues --  -10.18516 -10.18249 -10.18071 -10.18016 -10.17855
 Alpha  occ. eigenvalues --  -10.17762  -7.87304  -5.83879  -5.83228  -5.82908
 Alpha  occ. eigenvalues --   -1.05580  -0.99720  -0.94678  -0.92548  -0.84868
 Alpha  occ. eigenvalues --   -0.83023  -0.79239  -0.75536  -0.74509  -0.73869
 Alpha  occ. eigenvalues --   -0.72828  -0.71147  -0.69274  -0.64260  -0.62715
 Alpha  occ. eigenvalues --   -0.62402  -0.60677  -0.59444  -0.56917  -0.55753
 Alpha  occ. eigenvalues --   -0.53175  -0.52153  -0.51863  -0.50856  -0.49528
 Alpha  occ. eigenvalues --   -0.48279  -0.47944  -0.46562  -0.45826  -0.45245
 Alpha  occ. eigenvalues --   -0.44498  -0.43406  -0.42635  -0.41930  -0.41655
 Alpha  occ. eigenvalues --   -0.41515  -0.40880  -0.39266  -0.38201  -0.37546
 Alpha  occ. eigenvalues --   -0.36107  -0.35612  -0.35430  -0.35102  -0.33879
 Alpha  occ. eigenvalues --   -0.33490  -0.32062  -0.29171  -0.28159  -0.24955
 Alpha  occ. eigenvalues --   -0.24483  -0.22738  -0.20706  -0.19938  -0.18453
 Alpha virt. eigenvalues --   -0.01939  -0.00336   0.00450   0.02253   0.04232
 Alpha virt. eigenvalues --    0.05571   0.07477   0.08938   0.09562   0.10006
 Alpha virt. eigenvalues --    0.10260   0.10575   0.11056   0.13224   0.13730

 Mulliken charges:
               1
     1  C   -0.210733
     2  O   -0.454429
     3  C   -0.048795
     4  C   -0.164493
     5  N   -0.578933
     6  C    0.376914
     7  S   -0.316923
     8  N   -0.717700
     9  C    0.367694
    10  C   -0.206034
    11  C   -0.144237
    12  C   -0.176690
    13  C    0.362871
    14  N   -0.798470
    15  C    0.367525
    16  C   -0.191278
    17  C   -0.132622
    18  C   -0.134495
    19  C   -0.140909
    20  C   -0.174374
    21  C   -0.218214
    22  H    0.174574
    23  H    0.138228
    24  H    0.146212
    25  H    0.171345
    26  H    0.137723
    27  H    0.159505
    28  H    0.154504
    29  H    0.367253
    30  H    0.341817
    31  H    0.113287
    32  H    0.129871
    33  H    0.144210
    34  H    0.334569
    35  H    0.124466
    36  H    0.128716
    37  H    0.123927
    38  H    0.127640
    39  H    0.142320
    40  H    0.174159
 Sum of Mulliken charges =  -0.00000

 Dipole moment (field-independent basis, Debye):
    X=              3.3149    Y=              4.6828    Z=              0.3409  Tot=              5.7475
 Quadrupole moment (field-independent basis, Debye-Ang):
   XX=           -100.7513   YY=           -128.7761   ZZ=           -133.7296
   XY=             18.4182   XZ=             -0.8951   YZ=              2.2605

 Normal termination of Gaussian 16 at Fri Nov  4 19:53:51 2022.
