 Gaussian 16, Revision B.01,
 Gaussian 16:  ES64L-G16RevB.01 20-Dec-2017

 -----------------------------
 #p b3lyp/6-31g(d) opt SCF=XQC
 -----------------------------

 ------------------------------
 Gaussian input prepared by ASE
 ------------------------------
 Symbolic Z-matrix:
 Charge =  0 Multiplicity = 1

 SCF Done:  E(RB3LYP) =  -1170.47614025     A.U. after   15 cycles
 SCF Done:  E(RB3LYP) =  -1170.48069615     A.U. after   12 cycles
 SCF Done:  E(RB3LYP) =  -1170.48118488     A.U. after   12 cycles
 SCF Done:  E(RB3LYP) =  -1170.48157642     A.U. after   12 cycles
 SCF Done:  E(RB3LYP) =  -1170.48177017     A.U. after   12 cycles
 SCF Done:  E(RB3LYP) =  -1170.48214190     A.U. after   12 cycles
 SCF Done:  E(RB3LYP) =  -1170.48221891     A.U. after   12 cycles
 SCF Done:  E(RB3LYP) =  -1170.48252068     A.U. after   11 cycles
 SCF Done:  E(RB3LYP) =  -1170.48279289     A.U. after   11 cycles
 SCF Done:  E(RB3LYP) =  -1170.48270622     A.U. after   12 cycles
 SCF Done:  E(RB3LYP) =  -1170.48294255     A.U. after   10 cycles
 SCF Done:  E(RB3LYP) =  -1170.48294942     A.U. after   10 cycles
 SCF Done:  E(RB3LYP) =  -1170.48295131     A.U. after    8 cycles
 SCF Done:  E(RB3LYP) =  -1170.48295363     A.U. after    9 cycles
 SCF Done:  E(RB3LYP) =  -1170.48295576     A.U. after    9 cycles
 SCF Done:  E(RB3LYP) =  -1170.48295711     A.U. after    9 cycles
 SCF Done:  E(RB3LYP) =  -1170.48295778     A.U. after    9 cycles
 SCF Done:  E(RB3LYP) =  -1170.48295790     A.U. after    7 cycles
 SCF Done:  E(RB3LYP) =  -1170.48295797     A.U. after    7 cycles
 SCF Done:  E(RB3LYP) =  -1170.48295800     A.U. after    7 cycles
 Optimization completed.
    -- Stationary point found.

                         Standard orientation:
 ---------------------------------------------------------------------
 Center     Atomic      Atomic             Coordinates (Angstroms)
 Number     Number       Type             X           Y           Z
 ---------------------------------------------------------------------
      1          6           0       -7.119837    0.005302    0.200830
      2          7           0       -6.321310   -1.148554   -0.178150
      3          6           0       -7.072778   -2.321985   -0.602730
      4          6           0       -4.952459   -1.158572   -0.311923
      5          8           0       -4.329010   -2.130178   -0.707615
      6          6           0       -4.228850    0.140681    0.088994
      7          8           0       -2.853635   -0.055251   -0.140880
      8          6           0       -1.996532    0.970587    0.137484
      9          6           0       -2.366433    2.207295    0.675520
     10          6           0       -1.382766    3.179081    0.895828
     11          6           0       -0.050962    2.933218    0.589148
     12          6           0        0.324001    1.680030    0.075234
     13          6           0        1.769044    1.502118   -0.310251
     14          8           0        2.365869    2.417036   -0.871123
     15          7           0        2.386296    0.303782   -0.007584
     16          6           0        1.854187   -0.769285    0.872263
     17          6           0        3.106306   -1.493430    1.418872
     18          6           0        4.171089   -1.076397    0.438746
     19          6           0        5.455268   -1.555275    0.258382
     20          9           0        5.879228   -2.591111    1.019051
     21          6           0        6.314005   -0.994023   -0.683037
     22          6           0        5.854223    0.084740   -1.442126
     23          6           0        4.564817    0.604768   -1.287318
     24          6           0        3.732198    0.002435   -0.340588
     25          6           0       -0.649999    0.710122   -0.157053
     26          1           0       -7.899254   -0.305299    0.907099
     27          1           0       -6.517442    0.769176    0.692646
     28          1           0       -7.615009    0.459960   -0.669919
     29          1           0       -6.365020   -3.109035   -0.858749
     30          1           0       -7.693128   -2.091498   -1.479684
     31          1           0       -7.729909   -2.663792    0.206620
     32          1           0       -4.418176    0.365673    1.149831
     33          1           0       -4.603928    0.988468   -0.503386
     34          1           0       -3.400065    2.428378    0.916053
     35          1           0       -1.674617    4.142140    1.305934
     36          1           0        0.707979    3.695048    0.728694
     37          1           0        1.224458   -0.343357    1.653892
     38          1           0        1.245764   -1.464040    0.282772
     39          1           0        2.958016   -2.576336    1.464071
     40          1           0        3.355765   -1.157210    2.434181
     41          1           0        7.313545   -1.397232   -0.805258
     42          1           0        6.517144    0.533956   -2.176205
     43          1           0        4.221830    1.449421   -1.866323
     44          1           0       -0.408824   -0.252327   -0.594296
 ---------------------------------------------------------------------

 The electronic state is 1-A.
 Alpha  occ. eigenvalues --  -24.69994 -19.18674 -19.11700 -19.11394 -14.37743
 Alpha  occ. eigenvalues --  -14.37586 -10.29520 -10.29071 -10.26609 -10.26360
 Alpha  occ. eigenvalues --  -10.25778 -10.24085 -10.23486 -10.23034 -10.22048
 Alpha  occ. eigenvalues --  -10.20624 -10.20512 -10.19946 -10.19893 -10.19602
 Alpha  occ. eigenvalues --  -10.19518 -10.19207 -10.18998 -10.18711 -10.18162
 Alpha  occ. eigenvalues --   -1.21001  -1.08066  -1.03633  -1.03527  -0.95608
 Alpha  occ. eigenvalues --   -0.94326  -0.86193  -0.84939  -0.79518  -0.77841
 Alpha  occ. eigenvalues --   -0.76777  -0.74164  -0.73988  -0.72820  -0.72734
 Alpha  occ. eigenvalues --   -0.68745  -0.66144  -0.63606  -0.62430  -0.60442
 Alpha  occ. eigenvalues --   -0.59689  -0.57216  -0.55332  -0.54516  -0.52326
 Alpha  occ. eigenvalues --   -0.50509  -0.50448  -0.49604  -0.49407  -0.49120
 Alpha  occ. eigenvalues --   -0.48008  -0.47625  -0.47438  -0.46709  -0.46240
 Alpha  occ. eigenvalues --   -0.45465  -0.45127  -0.43440  -0.42523  -0.41850
 Alpha  occ. eigenvalues --   -0.41738  -0.41403  -0.40975  -0.40146  -0.39641
 Alpha  occ. eigenvalues --   -0.39303  -0.38859  -0.38704  -0.37931  -0.37095
 Alpha  occ. eigenvalues --   -0.36911  -0.36683  -0.35930  -0.35050  -0.34687
 Alpha  occ. eigenvalues --   -0.33689  -0.32542  -0.29068  -0.26411  -0.25712
 Alpha  occ. eigenvalues --   -0.24908  -0.24738  -0.23651  -0.22619  -0.21182
 Alpha virt. eigenvalues --   -0.03478  -0.00174   0.00180   0.01095   0.02127
 Alpha virt. eigenvalues --    0.05954   0.06331   0.08468   0.09294   0.09836
 Alpha virt. eigenvalues --    0.09996   0.11138   0.11808   0.13191   0.13393

 Mulliken charges:
               1
     1  C   -0.320225
     2  N   -0.412992
     3  C   -0.322565
     4  C    0.581990
     5  O   -0.490901
     6  C   -0.129813
     7  O   -0.498065
     8  C    0.378227
     9  C   -0.186463
    10  C   -0.145493
    11  C   -0.149871
    12  C    0.054796
    13  C    0.516745
    14  O   -0.503107
    15  N   -0.573962
    16  C   -0.143112
    17  C   -0.350819
    18  C   -0.009136
    19  C    0.302387
    20  F   -0.297954
    21  C   -0.194738
    22  C   -0.150505
    23  C   -0.143184
    24  C    0.345046
    25  C   -0.220645
    26  H    0.166849
    27  H    0.168773
    28  H    0.164077
    29  H    0.209790
    30  H    0.154507
    31  H    0.153534
    32  H    0.160754
    33  H    0.161556
    34  H    0.130428
    35  H    0.136502
    36  H    0.153194
    37  H    0.176769
    38  H    0.171169
    39  H    0.172049
    40  H    0.171497
    41  H    0.140973
    42  H    0.138433
    43  H    0.176923
    44  H    0.156582
 Sum of Mulliken charges =  -0.00000

 Dipole moment (field-independent basis, Debye):
    X=             -6.2821    Y=              0.7697    Z=              2.4458  Tot=              6.7852
 Quadrupole moment (field-independent basis, Debye-Ang):
   XX=           -103.7964   YY=           -151.0073   ZZ=           -142.4287
   XY=            -10.0383   XZ=             -6.3242   YZ=              2.7302

 Normal termination of Gaussian 16 at Fri Nov  4 20:07:17 2022.
