 Gaussian 16, Revision B.01,
 Gaussian 16:  ES64L-G16RevB.01 20-Dec-2017

 -------------------------------------------------------------------
 #p b3lyp/6-31g(d) 6D 10F nosymm GFInput td=(50-50,nstate=2) SCF=XQC
 -------------------------------------------------------------------

 ------------------------------
 Gaussian input prepared by ASE
 ------------------------------
 Symbolic Z-matrix:
 Charge =  0 Multiplicity = 1

                          Input orientation:
 ---------------------------------------------------------------------
 Center     Atomic      Atomic             Coordinates (Angstroms)
 Number     Number       Type             X           Y           Z
 ---------------------------------------------------------------------
      1          6           0        6.492252    0.633247   -0.067553
      2          7           0        5.708772    0.339784   -1.256122
      3          6           0        6.474050    0.119329   -2.475820
      4          6           0        4.353471    0.106405   -1.277141
      5          8           0        3.748193   -0.212830   -2.287591
      6          6           0        3.619362    0.290121    0.064401
      7          8           0        2.262359   -0.016086   -0.152918
      8          6           0        1.400576    0.069840    0.902736
      9          6           0        1.746003    0.478567    2.194780
     10          6           0        0.761579    0.504203    3.190148
     11          6           0       -0.547133    0.131336    2.913658
     12          6           0       -0.899599   -0.251880    1.608246
     13          6           0       -2.314542   -0.719511    1.389942
     14          8           0       -2.856440   -1.431138    2.231242
     15          7           0       -2.968021   -0.319388    0.240383
     16          6           0       -2.516211    0.722443   -0.718366
     17          6           0       -3.814538    1.258541   -1.364832
     18          6           0       -4.798726    0.157987   -1.067372
     19          6           0       -6.072294   -0.057791   -1.559750
     20          9           0       -6.564616    0.790144   -2.492455
     21          6           0       -6.851977   -1.122304   -1.115215
     22          6           0       -6.323488   -1.971255   -0.139855
     23          6           0       -5.042289   -1.785415    0.390196
     24          6           0       -4.289579   -0.712569   -0.094352
     25          6           0        0.076092   -0.290322    0.613308
     26          1           0        7.213427    1.428436   -0.291964
     27          1           0        5.865323    0.981503    0.753388
     28          1           0        7.056090   -0.247180    0.274570
     29          1           0        5.776829   -0.090561   -3.285601
     30          1           0        7.160241   -0.730452   -2.357417
     31          1           0        7.065285    1.011224   -2.718035
     32          1           0        3.732999    1.326596    0.417454
     33          1           0        4.048089   -0.371898    0.831384
     34          1           0        2.761924    0.766738    2.439712
     35          1           0        1.035013    0.813989    4.195191
     36          1           0       -1.304261    0.119522    3.689846
     37          1           0       -1.940222    1.490887   -0.201987
     38          1           0       -1.875177    0.269512   -1.482756
     39          1           0       -3.684152    1.446890   -2.434524
     40          1           0       -4.133652    2.203579   -0.905273
     41          1           0       -7.844993   -1.268547   -1.526466
     42          1           0       -6.924634   -2.802234    0.218235
     43          1           0       -4.646588   -2.436209    1.155841
     44          1           0       -0.144803   -0.623254   -0.394668
 ---------------------------------------------------------------------

 SCF Done:  E(RB3LYP) =  -1170.48296004     A.U. after   15 cycles

 Excitation energies and oscillator strengths:

 Excited state symmetry could not be determined.
 Excited State   1:      Triplet-?Sym    3.3494 eV  370.17 nm  f=0.0000  <S**2>=2.000
      88 -> 93        -0.19089
      88 -> 94         0.12849
      90 -> 91         0.56421
      90 -> 92         0.15159
      90 -> 93         0.17573
      90 -> 94         0.22570
 This state for optimization and/or second-order correction.
 Total Energy, E(TD-HF/TD-DFT) =  -1170.35987086
 Copying the excited state density for this state as the 1-particle RhoCI density.

 Excited state symmetry could not be determined.
 Excited State   2:      Triplet-?Sym    3.5388 eV  350.36 nm  f=0.0000  <S**2>=2.000
      84 -> 91        -0.23524
      86 -> 91         0.18726
      87 -> 91         0.26895
      89 -> 91         0.37058
      89 -> 92         0.30732
      89 -> 93        -0.11219
      89 -> 94        -0.17581

 Excited state symmetry could not be determined.
 Excited State   3:      Singlet-?Sym    4.2962 eV  288.59 nm  f=0.2534  <S**2>=0.000
      87 -> 91        -0.12304
      89 -> 91        -0.15534
      90 -> 91         0.66263

 Excited state symmetry could not be determined.
 Excited State   4:      Singlet-?Sym    4.4861 eV  276.37 nm  f=0.0038  <S**2>=0.000
      84 -> 91         0.20886
      86 -> 91         0.18037
      87 -> 91         0.25366
      88 -> 91        -0.14980
      89 -> 91         0.50450
      90 -> 91         0.22728

 Alpha  occ. eigenvalues --  -24.69994 -19.18674 -19.11700 -19.11394 -14.37743
 Alpha  occ. eigenvalues --  -14.37586 -10.29521 -10.29071 -10.26610 -10.26360
 Alpha  occ. eigenvalues --  -10.25778 -10.24085 -10.23486 -10.23034 -10.22048
 Alpha  occ. eigenvalues --  -10.20624 -10.20512 -10.19946 -10.19893 -10.19602
 Alpha  occ. eigenvalues --  -10.19518 -10.19207 -10.18998 -10.18711 -10.18162
 Alpha  occ. eigenvalues --   -1.21001  -1.08066  -1.03633  -1.03527  -0.95608
 Alpha  occ. eigenvalues --   -0.94326  -0.86193  -0.84939  -0.79518  -0.77841
 Alpha  occ. eigenvalues --   -0.76777  -0.74164  -0.73988  -0.72820  -0.72734
 Alpha  occ. eigenvalues --   -0.68745  -0.66144  -0.63606  -0.62430  -0.60442
 Alpha  occ. eigenvalues --   -0.59689  -0.57216  -0.55332  -0.54516  -0.52326
 Alpha  occ. eigenvalues --   -0.50509  -0.50448  -0.49604  -0.49407  -0.49120
 Alpha  occ. eigenvalues --   -0.48008  -0.47625  -0.47438  -0.46709  -0.46240
 Alpha  occ. eigenvalues --   -0.45465  -0.45127  -0.43440  -0.42523  -0.41850
 Alpha  occ. eigenvalues --   -0.41737  -0.41403  -0.40975  -0.40146  -0.39641
 Alpha  occ. eigenvalues --   -0.39303  -0.38859  -0.38704  -0.37931  -0.37095
 Alpha  occ. eigenvalues --   -0.36911  -0.36683  -0.35930  -0.35050  -0.34687
 Alpha  occ. eigenvalues --   -0.33689  -0.32542  -0.29068  -0.26411  -0.25712
 Alpha  occ. eigenvalues --   -0.24908  -0.24738  -0.23651  -0.22619  -0.21182
 Alpha virt. eigenvalues --   -0.03478  -0.00174   0.00179   0.01095   0.02127
 Alpha virt. eigenvalues --    0.05954   0.06331   0.08468   0.09294   0.09836
 Alpha virt. eigenvalues --    0.09996   0.11138   0.11808   0.13191   0.13392

 Mulliken charges:
               1
     1  C   -0.320228
     2  N   -0.412995
     3  C   -0.322563
     4  C    0.581987
     5  O   -0.490899
     6  C   -0.129803
     7  O   -0.498060
     8  C    0.378205
     9  C   -0.186452
    10  C   -0.145494
    11  C   -0.149872
    12  C    0.054802
    13  C    0.516761
    14  O   -0.503107
    15  N   -0.573963
    16  C   -0.143113
    17  C   -0.350814
    18  C   -0.009115
    19  C    0.302386
    20  F   -0.297954
    21  C   -0.194739
    22  C   -0.150502
    23  C   -0.143183
    24  C    0.345004
    25  C   -0.220645
    26  H    0.166849
    27  H    0.168774
    28  H    0.164077
    29  H    0.209789
    30  H    0.154507
    31  H    0.153533
    32  H    0.160752
    33  H    0.161555
    34  H    0.130428
    35  H    0.136502
    36  H    0.153194
    37  H    0.176769
    38  H    0.171168
    39  H    0.172047
    40  H    0.171496
    41  H    0.140974
    42  H    0.138433
    43  H    0.176925
    44  H    0.156582
 Sum of Mulliken charges =  -0.00000

 Dipole moment (field-independent basis, Debye):
    X=              6.0944    Y=              2.7954    Z=              1.0401  Tot=              6.7851
 Quadrupole moment (field-independent basis, Debye-Ang):
   XX=           -111.9129   YY=           -142.7916   ZZ=           -150.4390
   XY=              5.6959   XZ=              9.2130   YZ=              4.1585

 Normal termination of Gaussian 16 at Sat Nov  5 12:07:03 2022.
