 Gaussian 16, Revision B.01,
 Gaussian 16:  ES64L-G16RevB.01 20-Dec-2017

 -------------------------------------------------------------------
 #p b3lyp/6-31g(d) 6D 10F nosymm GFInput td=(50-50,nstate=2) SCF=XQC
 -------------------------------------------------------------------

 ------------------------------
 Gaussian input prepared by ASE
 ------------------------------
 Symbolic Z-matrix:
 Charge =  0 Multiplicity = 1

                          Input orientation:
 ---------------------------------------------------------------------
 Center     Atomic      Atomic             Coordinates (Angstroms)
 Number     Number       Type             X           Y           Z
 ---------------------------------------------------------------------
      1          6           0        5.583849   -1.233506   -1.802935
      2          6           0        4.429116   -1.961305   -1.070757
      3          6           0        3.429050   -2.438606   -2.143695
      4          6           0        4.967841   -3.221150   -0.348451
      5          6           0        3.759528   -1.009120   -0.055660
      6          6           0        2.422495   -0.643614   -0.170186
      7          6           0        1.776858    0.241834    0.715302
      8          6           0        0.343447    0.564041    0.469556
      9          8           0       -0.273805    0.068312   -0.459022
     10          6           0       -0.351239    1.552123    1.428882
     11          7           0       -1.725215    1.777987    1.074415
     12          6           0       -2.717363    0.868036    1.454750
     13          7           0       -2.510505   -0.044062    2.332394
     14          7           0       -3.850747    1.216523    0.706104
     15          6           0       -5.108591    0.504590    0.744805
     16          6           0       -5.298419   -0.534432   -0.354485
     17          6           0       -6.595491   -0.950055   -0.680115
     18          6           0       -6.806635   -1.929675   -1.649924
     19          6           0       -5.718281   -2.501478   -2.312260
     20          6           0       -4.424053   -2.086408   -1.996820
     21          6           0       -4.211541   -1.109150   -1.021923
     22          6           0       -3.539535    2.257579   -0.172411
     23          6           0       -4.304542    2.918412   -1.122372
     24          6           0       -3.689889    3.948805   -1.850942
     25          6           0       -2.354705    4.289636   -1.629525
     26          6           0       -1.582455    3.615866   -0.670846
     27          6           0       -2.192205    2.600219    0.051846
     28          6           0        2.506242    0.772341    1.773422
     29          6           0        3.844620    0.412386    1.964068
     30          6           0        4.543450    1.038368    3.125794
     31          7           0        5.640354    0.318414    3.642581
     32          8           0        4.233804    2.123025    3.587236
     33          6           0        4.478399   -0.454731    1.039999
     34          8           0        5.793743   -0.769653    1.158510
     35          1           0        5.207377   -0.358046   -2.344972
     36          1           0        6.361146   -0.902922   -1.111897
     37          1           0        6.041616   -1.909599   -2.535298
     38          1           0        2.587714   -2.990003   -1.709006
     39          1           0        3.943369   -3.114537   -2.835507
     40          1           0        3.027201   -1.607723   -2.734212
     41          1           0        5.723687   -2.972478    0.398662
     42          1           0        4.152913   -3.761186    0.148197
     43          1           0        5.422245   -3.900624   -1.079610
     44          1           0        1.815717   -1.034189   -0.976926
     45          1           0        0.187144    2.506521    1.443957
     46          1           0       -0.333655    1.139379    2.442416
     47          1           0       -3.328664   -0.631972    2.479494
     48          1           0       -5.921623    1.240079    0.706650
     49          1           0       -5.181142    0.029779    1.731403
     50          1           0       -7.447841   -0.502244   -0.171881
     51          1           0       -7.819521   -2.240050   -1.893233
     52          1           0       -5.879436   -3.261199   -3.072463
     53          1           0       -3.571411   -2.521153   -2.511540
     54          1           0       -3.198963   -0.789164   -0.793030
     55          1           0       -5.336200    2.639033   -1.311573
     56          1           0       -4.264552    4.480417   -2.603750
     57          1           0       -1.898596    5.085778   -2.210787
     58          1           0       -0.541363    3.879124   -0.510699
     59          1           0        2.073678    1.466336    2.485767
     60          1           0        6.017508    0.765796    4.473987
     61          1           0        5.481965   -0.677330    3.779529
     62          1           0        6.182106   -0.259368    1.902299
 ---------------------------------------------------------------------

 SCF Done:  E(RB3LYP) =  -1490.44875973     A.U. after   14 cycles

 Excitation energies and oscillator strengths:

 Excited state symmetry could not be determined.
 Excited State   1:      Triplet-?Sym    2.7537 eV  450.25 nm  f=0.0000  <S**2>=2.000
     116 ->122        -0.10207
     121 ->122         0.64000
     121 ->123        -0.25158
 This state for optimization and/or second-order correction.
 Total Energy, E(TD-HF/TD-DFT) =  -1490.34756492
 Copying the excited state density for this state as the 1-particle RhoCI density.

 Excited state symmetry could not be determined.
 Excited State   2:      Singlet-?Sym    2.7929 eV  443.93 nm  f=0.0005  <S**2>=0.000
     121 ->122         0.66180
     121 ->123        -0.23397

 Excited state symmetry could not be determined.
 Excited State   3:      Triplet-?Sym    3.1311 eV  395.97 nm  f=0.0000  <S**2>=2.000
     121 ->122         0.27617
     121 ->123         0.64309

 Excited state symmetry could not be determined.
 Excited State   4:      Singlet-?Sym    3.1391 eV  394.97 nm  f=0.0000  <S**2>=0.000
     121 ->122         0.23862
     121 ->123         0.66392

 Alpha  occ. eigenvalues --  -19.19367 -19.14356 -19.13899 -14.38381 -14.37339
 Alpha  occ. eigenvalues --  -14.36832 -14.28015 -10.31675 -10.27937 -10.27857
 Alpha  occ. eigenvalues --  -10.27637 -10.23710 -10.22991 -10.22003 -10.21952
 Alpha  occ. eigenvalues --  -10.21518 -10.21312 -10.20878 -10.20802 -10.20255
 Alpha  occ. eigenvalues --  -10.20157 -10.19681 -10.18840 -10.18783 -10.18570
 Alpha  occ. eigenvalues --  -10.18496 -10.18449 -10.18415 -10.18233 -10.17844
 Alpha  occ. eigenvalues --  -10.17765 -10.17426 -10.17118 -10.16991  -1.08131
 Alpha  occ. eigenvalues --   -1.05914  -1.04116  -1.02184  -0.92734  -0.92497
 Alpha  occ. eigenvalues --   -0.87306  -0.87279  -0.85100  -0.82801  -0.82231
 Alpha  occ. eigenvalues --   -0.78576  -0.77327  -0.75886  -0.74563  -0.74000
 Alpha  occ. eigenvalues --   -0.73354  -0.71170  -0.69203  -0.68523  -0.68173
 Alpha  occ. eigenvalues --   -0.66016  -0.64221  -0.61485  -0.61093  -0.60432
 Alpha  occ. eigenvalues --   -0.59949  -0.59268  -0.57641  -0.56756  -0.56361
 Alpha  occ. eigenvalues --   -0.54227  -0.53543  -0.52300  -0.51906  -0.51114
 Alpha  occ. eigenvalues --   -0.50239  -0.49432  -0.47521  -0.46935  -0.46561
 Alpha  occ. eigenvalues --   -0.46221  -0.45899  -0.45100  -0.44814  -0.44495
 Alpha  occ. eigenvalues --   -0.44300  -0.43798  -0.43352  -0.43169  -0.42706
 Alpha  occ. eigenvalues --   -0.42665  -0.42054  -0.41876  -0.41494  -0.41197
 Alpha  occ. eigenvalues --   -0.41142  -0.40670  -0.39633  -0.38808  -0.38010
 Alpha  occ. eigenvalues --   -0.37975  -0.37282  -0.36921  -0.36210  -0.35968
 Alpha  occ. eigenvalues --   -0.35327  -0.34781  -0.34466  -0.34260  -0.33831
 Alpha  occ. eigenvalues --   -0.33692  -0.33078  -0.32945  -0.32210  -0.30653
 Alpha  occ. eigenvalues --   -0.29819  -0.27922  -0.26961  -0.26181  -0.26129
 Alpha  occ. eigenvalues --   -0.25444  -0.24575  -0.24066  -0.23843  -0.22143
 Alpha  occ. eigenvalues --   -0.17948
 Alpha virt. eigenvalues --   -0.05554  -0.04640  -0.00063   0.00292   0.00948
 Alpha virt. eigenvalues --    0.01486   0.02534   0.04904   0.06801   0.07205
 Alpha virt. eigenvalues --    0.08870   0.09253   0.09872   0.10033   0.10604

 Mulliken charges:
               1
     1  C   -0.451515
     2  C    0.032934
     3  C   -0.459114
     4  C   -0.453820
     5  C    0.146819
     6  C   -0.250589
     7  C    0.099097
     8  C    0.418312
     9  O   -0.462032
    10  C   -0.263277
    11  N   -0.579114
    12  C    0.704827
    13  N   -0.703585
    14  N   -0.601121
    15  C   -0.244177
    16  C    0.152586
    17  C   -0.180794
    18  C   -0.130337
    19  C   -0.127418
    20  C   -0.133277
    21  C   -0.181777
    22  C    0.336679
    23  C   -0.185908
    24  C   -0.147553
    25  C   -0.143829
    26  C   -0.189478
    27  C    0.353453
    28  C   -0.253177
    29  C    0.054963
    30  C    0.493274
    31  N   -0.794180
    32  O   -0.464411
    33  C    0.236444
    34  O   -0.651365
    35  H    0.142113
    36  H    0.168913
    37  H    0.137554
    38  H    0.150490
    39  H    0.143759
    40  H    0.151149
    41  H    0.165875
    42  H    0.140572
    43  H    0.138615
    44  H    0.170625
    45  H    0.179347
    46  H    0.216854
    47  H    0.283111
    48  H    0.167834
    49  H    0.169288
    50  H    0.119863
    51  H    0.128804
    52  H    0.128579
    53  H    0.136124
    54  H    0.173245
    55  H    0.133939
    56  H    0.123582
    57  H    0.123635
    58  H    0.128362
    59  H    0.169822
    60  H    0.347978
    61  H    0.350006
    62  H    0.432420
 Sum of Mulliken charges =  -0.00000

 Dipole moment (field-independent basis, Debye):
    X=              2.1037    Y=             -1.7564    Z=              1.2483  Tot=              3.0115
 Quadrupole moment (field-independent basis, Debye-Ang):
   XX=           -158.7823   YY=           -199.8709   ZZ=           -189.9742
   XY=             -6.4051   XZ=             15.0833   YZ=             -5.3250

 Normal termination of Gaussian 16 at Sat Nov  5 12:04:56 2022.
