 Gaussian 16, Revision B.01,
 Gaussian 16:  ES64L-G16RevB.01 20-Dec-2017

 -----------------------------
 #p b3lyp/6-31g(d) opt SCF=XQC
 -----------------------------

 ------------------------------
 Gaussian input prepared by ASE
 ------------------------------
 Symbolic Z-matrix:
 Charge =  0 Multiplicity = 1

 SCF Done:  E(RB3LYP) =  -1490.43828176     A.U. after   14 cycles
 SCF Done:  E(RB3LYP) =  -1490.44643815     A.U. after   12 cycles
 SCF Done:  E(RB3LYP) =  -1490.44747531     A.U. after   11 cycles
 SCF Done:  E(RB3LYP) =  -1490.44730270     A.U. after   13 cycles
 SCF Done:  E(RB3LYP) =  -1490.44795497     A.U. after   12 cycles
 SCF Done:  E(RB3LYP) =  -1490.44853369     A.U. after   11 cycles
 SCF Done:  E(RB3LYP) =  -1490.44850775     A.U. after   12 cycles
 SCF Done:  E(RB3LYP) =  -1490.44868330     A.U. after   11 cycles
 SCF Done:  E(RB3LYP) =  -1490.44867536     A.U. after   10 cycles
 SCF Done:  E(RB3LYP) =  -1490.44870169     A.U. after   10 cycles
 SCF Done:  E(RB3LYP) =  -1490.44873714     A.U. after   10 cycles
 SCF Done:  E(RB3LYP) =  -1490.44874464     A.U. after   10 cycles
 SCF Done:  E(RB3LYP) =  -1490.44874995     A.U. after    9 cycles
 SCF Done:  E(RB3LYP) =  -1490.44875318     A.U. after    9 cycles
 SCF Done:  E(RB3LYP) =  -1490.44875463     A.U. after    9 cycles
 SCF Done:  E(RB3LYP) =  -1490.44875514     A.U. after    8 cycles
 SCF Done:  E(RB3LYP) =  -1490.44875549     A.U. after    8 cycles
 SCF Done:  E(RB3LYP) =  -1490.44875557     A.U. after    7 cycles
 SCF Done:  E(RB3LYP) =  -1490.44875563     A.U. after    7 cycles
 SCF Done:  E(RB3LYP) =  -1490.44875565     A.U. after    6 cycles
 Optimization completed.
    -- Stationary point found.

                         Standard orientation:
 ---------------------------------------------------------------------
 Center     Atomic      Atomic             Coordinates (Angstroms)
 Number     Number       Type             X           Y           Z
 ---------------------------------------------------------------------
      1          6           0        5.395949    2.279425    2.088526
      2          6           0        4.469587    2.527997    0.872282
      3          6           0        3.352140    3.487514    1.330301
      4          6           0        5.254776    3.239295   -0.257627
      5          6           0        3.892871    1.189570    0.360973
      6          6           0        2.525792    0.933812    0.368198
      7          6           0        1.956752   -0.280833   -0.062830
      8          6           0        0.476826   -0.432168    0.013268
      9          8           0       -0.238625    0.469334    0.418767
     10          6           0       -0.137975   -1.772818   -0.438262
     11          7           0       -1.568743   -1.785650   -0.307071
     12          6           0       -2.378646   -1.200152   -1.285985
     13          7           0       -1.927329   -0.867233   -2.439436
     14          7           0       -3.655738   -1.115930   -0.712910
     15          6           0       -4.806259   -0.525331   -1.359449
     16          6           0       -5.076625    0.930350   -0.996220
     17          6           0       -6.360264    1.453442   -1.195771
     18          6           0       -6.634985    2.791704   -0.915862
     19          6           0       -5.626064    3.622889   -0.424569
     20          6           0       -4.346938    3.105498   -0.217312
     21          6           0       -4.069740    1.766655   -0.502405
     22          6           0       -3.613446   -1.558818    0.611666
     23          6           0       -4.597707   -1.639259    1.585895
     24          6           0       -4.230951   -2.149738    2.840975
     25          6           0       -2.920483   -2.555151    3.098306
     26          6           0       -1.926257   -2.468071    2.111731
     27          6           0       -2.290777   -1.967235    0.869996
     28          6           0        2.801066   -1.278573   -0.536861
     29          6           0        4.182227   -1.066624   -0.604991
     30          6           0        5.004850   -2.199482   -1.124362
     31          7           0        6.244260   -1.845919   -1.696603
     32          8           0        4.669672   -3.367443   -1.030491
     33          6           0        4.730986    0.152068   -0.134751
     34          8           0        6.072265    0.362346   -0.124341
     35          1           0        4.841224    1.805720    2.906969
     36          1           0        6.243637    1.641618    1.832327
     37          1           0        5.786110    3.235706    2.457722
     38          1           0        2.662079    3.737422    0.516542
     39          1           0        3.804758    4.422889    1.677032
     40          1           0        2.768713    3.076929    2.161921
     41          1           0        6.099820    2.643029   -0.606463
     42          1           0        4.600247    3.447683   -1.112363
     43          1           0        5.642208    4.197859    0.108173
     44          1           0        1.831005    1.682558    0.726260
     45          1           0        0.292379   -2.599538    0.138183
     46          1           0        0.099877   -1.938366   -1.493694
     47          1           0       -2.641310   -0.438456   -3.025134
     48          1           0       -5.685475   -1.137576   -1.123745
     49          1           0       -4.654909   -0.623832   -2.441796
     50          1           0       -7.152242    0.807868   -1.571724
     51          1           0       -7.636934    3.182379   -1.073791
     52          1           0       -5.837998    4.664898   -0.200165
     53          1           0       -3.557170    3.743182    0.170713
     54          1           0       -3.071620    1.375123   -0.327597
     55          1           0       -5.611774   -1.302956    1.394237
     56          1           0       -4.980853   -2.220271    3.623433
     57          1           0       -2.658732   -2.940186    4.079620
     58          1           0       -0.906367   -2.775628    2.321630
     59          1           0        2.430205   -2.239941   -0.875105
     60          1           0        6.712655   -2.656209   -2.093678
     61          1           0        6.216870   -1.061473   -2.344092
     62          1           0        6.529725   -0.456994   -0.413909
 ---------------------------------------------------------------------

 The electronic state is 1-A.
 Alpha  occ. eigenvalues --  -19.19367 -19.14356 -19.13899 -14.38381 -14.37339
 Alpha  occ. eigenvalues --  -14.36832 -14.28015 -10.31675 -10.27937 -10.27857
 Alpha  occ. eigenvalues --  -10.27637 -10.23710 -10.22991 -10.22004 -10.21953
 Alpha  occ. eigenvalues --  -10.21518 -10.21312 -10.20878 -10.20802 -10.20255
 Alpha  occ. eigenvalues --  -10.20157 -10.19681 -10.18840 -10.18783 -10.18570
 Alpha  occ. eigenvalues --  -10.18496 -10.18449 -10.18415 -10.18233 -10.17844
 Alpha  occ. eigenvalues --  -10.17765 -10.17426 -10.17118 -10.16991  -1.08131
 Alpha  occ. eigenvalues --   -1.05914  -1.04116  -1.02184  -0.92734  -0.92497
 Alpha  occ. eigenvalues --   -0.87306  -0.87279  -0.85100  -0.82801  -0.82231
 Alpha  occ. eigenvalues --   -0.78576  -0.77327  -0.75886  -0.74563  -0.74000
 Alpha  occ. eigenvalues --   -0.73354  -0.71170  -0.69203  -0.68523  -0.68173
 Alpha  occ. eigenvalues --   -0.66016  -0.64221  -0.61485  -0.61093  -0.60432
 Alpha  occ. eigenvalues --   -0.59949  -0.59268  -0.57641  -0.56756  -0.56361
 Alpha  occ. eigenvalues --   -0.54227  -0.53543  -0.52300  -0.51906  -0.51114
 Alpha  occ. eigenvalues --   -0.50239  -0.49432  -0.47521  -0.46935  -0.46561
 Alpha  occ. eigenvalues --   -0.46221  -0.45899  -0.45100  -0.44814  -0.44495
 Alpha  occ. eigenvalues --   -0.44300  -0.43798  -0.43352  -0.43169  -0.42706
 Alpha  occ. eigenvalues --   -0.42665  -0.42054  -0.41876  -0.41494  -0.41197
 Alpha  occ. eigenvalues --   -0.41142  -0.40670  -0.39633  -0.38808  -0.38010
 Alpha  occ. eigenvalues --   -0.37975  -0.37282  -0.36921  -0.36210  -0.35968
 Alpha  occ. eigenvalues --   -0.35327  -0.34781  -0.34466  -0.34260  -0.33831
 Alpha  occ. eigenvalues --   -0.33692  -0.33078  -0.32945  -0.32210  -0.30653
 Alpha  occ. eigenvalues --   -0.29819  -0.27922  -0.26961  -0.26181  -0.26129
 Alpha  occ. eigenvalues --   -0.25444  -0.24575  -0.24066  -0.23843  -0.22143
 Alpha  occ. eigenvalues --   -0.17948
 Alpha virt. eigenvalues --   -0.05554  -0.04640  -0.00063   0.00292   0.00948
 Alpha virt. eigenvalues --    0.01486   0.02534   0.04904   0.06801   0.07205
 Alpha virt. eigenvalues --    0.08870   0.09253   0.09872   0.10033   0.10604

 Mulliken charges:
               1
     1  C   -0.451520
     2  C    0.032951
     3  C   -0.459121
     4  C   -0.453835
     5  C    0.146826
     6  C   -0.250586
     7  C    0.099103
     8  C    0.418326
     9  O   -0.462043
    10  C   -0.263271
    11  N   -0.579124
    12  C    0.704863
    13  N   -0.703601
    14  N   -0.601135
    15  C   -0.244178
    16  C    0.152590
    17  C   -0.180789
    18  C   -0.130336
    19  C   -0.127427
    20  C   -0.133260
    21  C   -0.181791
    22  C    0.336687
    23  C   -0.185914
    24  C   -0.147552
    25  C   -0.143822
    26  C   -0.189452
    27  C    0.353414
    28  C   -0.253189
    29  C    0.054971
    30  C    0.493269
    31  N   -0.794179
    32  O   -0.464410
    33  C    0.236437
    34  O   -0.651361
    35  H    0.142114
    36  H    0.168911
    37  H    0.137553
    38  H    0.150492
    39  H    0.143759
    40  H    0.151149
    41  H    0.165878
    42  H    0.140572
    43  H    0.138618
    44  H    0.170624
    45  H    0.179346
    46  H    0.216850
    47  H    0.283111
    48  H    0.167835
    49  H    0.169287
    50  H    0.119862
    51  H    0.128804
    52  H    0.128579
    53  H    0.136121
    54  H    0.173249
    55  H    0.133943
    56  H    0.123582
    57  H    0.123633
    58  H    0.128362
    59  H    0.169822
    60  H    0.347978
    61  H    0.350005
    62  H    0.432419
 Sum of Mulliken charges =  -0.00000

 Dipole moment (field-independent basis, Debye):
    X=              2.4612    Y=              0.8686    Z=             -1.5022  Tot=              3.0114
 Quadrupole moment (field-independent basis, Debye-Ang):
   XX=           -152.9328   YY=           -201.4505   ZZ=           -193.3232
   XY=             -1.7182   XZ=             -9.1161   YZ=              0.9435

 Normal termination of Gaussian 16 at Fri Nov  4 20:31:28 2022.
