 Gaussian 16, Revision B.01,
 Gaussian 16:  ES64L-G16RevB.01 20-Dec-2017

 -------------------------------------------------------------------
 #p b3lyp/6-31g(d) 6D 10F nosymm GFInput td=(50-50,nstate=2) SCF=XQC
 -------------------------------------------------------------------

 ------------------------------
 Gaussian input prepared by ASE
 ------------------------------
 Symbolic Z-matrix:
 Charge =  0 Multiplicity = 1

                          Input orientation:
 ---------------------------------------------------------------------
 Center     Atomic      Atomic             Coordinates (Angstroms)
 Number     Number       Type             X           Y           Z
 ---------------------------------------------------------------------
      1          6           0        2.518266   -3.717503   -1.057539
      2          8           0        3.810701   -3.144971   -1.203444
      3          6           0        4.157421   -2.115313   -0.376535
      4          6           0        5.442713   -1.583455   -0.571119
      5          6           0        5.874170   -0.531715    0.224846
      6          6           0        5.042793    0.008835    1.214755
      7          6           0        3.764187   -0.515615    1.413496
      8          6           0        2.776713    0.058976    2.433375
      9          6           0        3.404329    0.917935    3.533482
     10          7           0        1.715893    0.830443    1.759247
     11          6           0        0.586221    0.188052    1.289028
     12          8           0        0.262922   -0.950746    1.636109
     13          7           0       -0.183121    0.933600    0.425309
     14          6           0       -1.296655    0.318667   -0.282335
     15          6           0       -2.648689    0.721636    0.319650
     16          6           0       -3.334090    1.879141   -0.065498
     17          6           0       -4.538766    2.225627    0.544254
     18          6           0       -5.071637    1.415021    1.548619
     19          6           0       -6.343395    1.815918    2.243574
     20          9           0       -7.162042    2.522939    1.431099
     21          9           0       -6.101040    2.595066    3.325120
     22          9           0       -7.038209    0.743259    2.684622
     23          6           0       -4.391620    0.260023    1.944932
     24          6           0       -3.189523   -0.082012    1.331955
     25          6           0       -1.180042    0.635652   -1.772092
     26          7           0       -0.754450    1.873125   -2.063936
     27          6           0       -0.632199    2.237626   -3.345196
     28          6           0       -0.923391    1.390519   -4.410760
     29          6           0       -1.354487    0.099806   -4.119000
     30          6           0       -1.489231   -0.291387   -2.786270
     31          6           0       -1.917128   -1.703535   -2.467710
     32          9           0       -2.974505   -1.736770   -1.629993
     33          9           0       -2.263529   -2.384682   -3.579579
     34          9           0       -0.919246   -2.402207   -1.870462
     35          6           0        3.327536   -1.588147    0.614632
     36          1           0        2.460680   -4.513435   -1.802581
     37          1           0        1.722840   -2.985050   -1.246175
     38          1           0        2.377737   -4.146375   -0.057074
     39          1           0        6.074772   -2.012634   -1.342359
     40          1           0        6.870635   -0.123128    0.076840
     41          1           0        5.406461    0.829301    1.825015
     42          1           0        2.249114   -0.776482    2.899847
     43          1           0        2.635761    1.210607    4.254560
     44          1           0        4.187806    0.363482    4.060195
     45          1           0        3.852487    1.835451    3.133216
     46          1           0        2.049941    1.614608    1.210503
     47          1           0        0.106925    1.844891    0.096253
     48          1           0       -1.176823   -0.752898   -0.124722
     49          1           0       -2.927242    2.517497   -0.843256
     50          1           0       -5.068925    3.120216    0.233948
     51          1           0       -4.807002   -0.372750    2.722501
     52          1           0       -2.651459   -0.971014    1.647996
     53          1           0       -0.282793    3.253183   -3.520646
     54          1           0       -0.808595    1.727059   -5.435848
     55          1           0       -1.581138   -0.603142   -4.912642
     56          1           0        2.331947   -1.983190    0.779736
 ---------------------------------------------------------------------

 SCF Done:  E(RB3LYP) =  -1840.98405632     A.U. after   14 cycles

 Excitation energies and oscillator strengths:

 Excited state symmetry could not be determined.
 Excited State   1:      Triplet-?Sym    3.6479 eV  339.88 nm  f=0.0000  <S**2>=2.000
     122 ->131         0.16021
     123 ->130        -0.13027
     123 ->131        -0.31104
     124 ->132         0.39618
     125 ->131         0.11856
     126 ->130        -0.17595
     126 ->131        -0.28658
     127 ->131        -0.10963
 This state for optimization and/or second-order correction.
 Total Energy, E(TD-HF/TD-DFT) =  -1840.84999855
 Copying the excited state density for this state as the 1-particle RhoCI density.

 Excited state symmetry could not be determined.
 Excited State   2:      Triplet-?Sym    3.6882 eV  336.16 nm  f=0.0000  <S**2>=2.000
     126 ->133         0.23034
     127 ->133        -0.37013
     128 ->133         0.26625
     128 ->134        -0.44089

 Excited state symmetry could not be determined.
 Excited State   3:      Singlet-?Sym    3.8094 eV  325.47 nm  f=0.0002  <S**2>=0.000
     128 ->129         0.70691

 Excited state symmetry could not be determined.
 Excited State   4:      Singlet-?Sym    3.9882 eV  310.87 nm  f=0.0007  <S**2>=0.000
     128 ->130         0.70654

 Alpha  occ. eigenvalues --  -24.74426 -24.73894 -24.73884 -24.71839 -24.71808
 Alpha  occ. eigenvalues --  -24.71194 -19.17113 -19.10534 -14.36368 -14.35623
 Alpha  occ. eigenvalues --  -14.35228 -10.45240 -10.42597 -10.30964 -10.26714
 Alpha  occ. eigenvalues --  -10.25650 -10.24494 -10.24278 -10.24179 -10.24085
 Alpha  occ. eigenvalues --  -10.23242 -10.22870 -10.22631 -10.21148 -10.20989
 Alpha  occ. eigenvalues --  -10.20456 -10.20305 -10.19954 -10.19666 -10.19202
 Alpha  occ. eigenvalues --  -10.18659 -10.18037 -10.17946 -10.17887 -10.17564
 Alpha  occ. eigenvalues --   -1.31833  -1.29338  -1.23269  -1.22778  -1.20834
 Alpha  occ. eigenvalues --   -1.20310  -1.05629  -1.04054  -0.98034  -0.92968
 Alpha  occ. eigenvalues --   -0.91341  -0.86987  -0.84861  -0.84472  -0.81684
 Alpha  occ. eigenvalues --   -0.78974  -0.77389  -0.75664  -0.74223  -0.73608
 Alpha  occ. eigenvalues --   -0.72826  -0.71384  -0.68607  -0.68151  -0.66149
 Alpha  occ. eigenvalues --   -0.64983  -0.63546  -0.62388  -0.61050  -0.59694
 Alpha  occ. eigenvalues --   -0.59611  -0.59532  -0.59170  -0.58704  -0.57162
 Alpha  occ. eigenvalues --   -0.56979  -0.56932  -0.56058  -0.55902  -0.53106
 Alpha  occ. eigenvalues --   -0.52205  -0.51784  -0.50045  -0.48451  -0.48163
 Alpha  occ. eigenvalues --   -0.47696  -0.47372  -0.47214  -0.46773  -0.46081
 Alpha  occ. eigenvalues --   -0.46015  -0.45690  -0.44924  -0.44730  -0.44632
 Alpha  occ. eigenvalues --   -0.44258  -0.44031  -0.43778  -0.43410  -0.43245
 Alpha  occ. eigenvalues --   -0.42575  -0.42337  -0.41668  -0.41404  -0.41364
 Alpha  occ. eigenvalues --   -0.41248  -0.40820  -0.40540  -0.40257  -0.39091
 Alpha  occ. eigenvalues --   -0.39010  -0.38336  -0.37973  -0.37738  -0.37138
 Alpha  occ. eigenvalues --   -0.36880  -0.36376  -0.35867  -0.35378  -0.35099
 Alpha  occ. eigenvalues --   -0.33913  -0.32228  -0.31942  -0.31068  -0.29360
 Alpha  occ. eigenvalues --   -0.29120  -0.26827  -0.26315  -0.26094  -0.25362
 Alpha  occ. eigenvalues --   -0.24604  -0.23433  -0.21386
 Alpha virt. eigenvalues --   -0.05875  -0.05193  -0.02244  -0.01096  -0.00155
 Alpha virt. eigenvalues --    0.01791   0.05862   0.07570   0.08183   0.09227
 Alpha virt. eigenvalues --    0.09894   0.10406   0.11042   0.11400   0.11763

 Mulliken charges:
               1
     1  C   -0.220170
     2  O   -0.512894
     3  C    0.379706
     4  C   -0.170282
     5  C   -0.135018
     6  C   -0.202174
     7  C    0.151496
     8  C   -0.055434
     9  C   -0.453898
    10  N   -0.619026
    11  C    0.817974
    12  O   -0.561601
    13  N   -0.631618
    14  C   -0.137211
    15  C    0.190035
    16  C   -0.185526
    17  C   -0.163748
    18  C   -0.003833
    19  C    0.781248
    20  F   -0.272483
    21  F   -0.262323
    22  F   -0.270868
    23  C   -0.163591
    24  C   -0.183740
    25  C    0.273652
    26  N   -0.498495
    27  C    0.050454
    28  C   -0.144691
    29  C   -0.131327
    30  C   -0.040485
    31  C    0.812837
    32  F   -0.259910
    33  F   -0.267146
    34  F   -0.258769
    35  C   -0.275558
    36  H    0.164436
    37  H    0.157008
    38  H    0.157698
    39  H    0.133814
    40  H    0.126593
    41  H    0.119384
    42  H    0.186298
    43  H    0.161503
    44  H    0.157563
    45  H    0.138640
    46  H    0.308619
    47  H    0.334151
    48  H    0.194672
    49  H    0.146395
    50  H    0.151162
    51  H    0.155705
    52  H    0.168525
    53  H    0.158209
    54  H    0.156830
    55  H    0.174945
    56  H    0.172266
 Sum of Mulliken charges =  -0.00000

 Dipole moment (field-independent basis, Debye):
    X=              2.3969    Y=              2.5812    Z=             -4.8256  Tot=              5.9744
 Quadrupole moment (field-independent basis, Debye-Ang):
   XX=           -219.6092   YY=           -191.2527   ZZ=           -181.7554
   XY=             12.0463   XZ=             14.0580   YZ=             -7.9809

 Normal termination of Gaussian 16 at Sat Nov  5 12:08:09 2022.
