 Gaussian 16, Revision B.01,
 Gaussian 16:  ES64L-G16RevB.01 20-Dec-2017

 -----------------------------
 #p b3lyp/6-31g(d) opt SCF=XQC
 -----------------------------

 ------------------------------
 Gaussian input prepared by ASE
 ------------------------------
 Symbolic Z-matrix:
 Charge =  0 Multiplicity = 1

 SCF Done:  E(RB3LYP) =  -1840.96860713     A.U. after   14 cycles
 SCF Done:  E(RB3LYP) =  -1840.97709161     A.U. after   14 cycles
 SCF Done:  E(RB3LYP) =  -1840.97590712     A.U. after   13 cycles
 SCF Done:  E(RB3LYP) =  -1840.98049858     A.U. after   13 cycles
 SCF Done:  E(RB3LYP) =  -1840.98108894     A.U. after   12 cycles
 SCF Done:  E(RB3LYP) =  -1840.98143487     A.U. after   11 cycles
 SCF Done:  E(RB3LYP) =  -1840.98171287     A.U. after   12 cycles
 SCF Done:  E(RB3LYP) =  -1840.98189261     A.U. after   12 cycles
 SCF Done:  E(RB3LYP) =  -1840.98188522     A.U. after   12 cycles
 SCF Done:  E(RB3LYP) =  -1840.98240377     A.U. after   11 cycles
 SCF Done:  E(RB3LYP) =  -1840.98405104     A.U. after    8 cycles
 SCF Done:  E(RB3LYP) =  -1840.98405195     A.U. after    9 cycles
 SCF Done:  E(RB3LYP) =  -1840.98405224     A.U. after    9 cycles
 SCF Done:  E(RB3LYP) =  -1840.98405242     A.U. after    8 cycles
 SCF Done:  E(RB3LYP) =  -1840.98405253     A.U. after    8 cycles
 SCF Done:  E(RB3LYP) =  -1840.98405262     A.U. after    7 cycles
 SCF Done:  E(RB3LYP) =  -1840.98405270     A.U. after    7 cycles
 SCF Done:  E(RB3LYP) =  -1840.98405272     A.U. after    6 cycles
 SCF Done:  E(RB3LYP) =  -1840.98405275     A.U. after    7 cycles
 SCF Done:  E(RB3LYP) =  -1840.98405277     A.U. after    7 cycles
 Optimization completed.
    -- Stationary point found.

                         Standard orientation:
 ---------------------------------------------------------------------
 Center     Atomic      Atomic             Coordinates (Angstroms)
 Number     Number       Type             X           Y           Z
 ---------------------------------------------------------------------
      1          6           0        4.233612    1.411590   -2.334187
      2          8           0        5.326315    1.140457   -1.467032
      3          6           0        5.282573    0.005485   -0.709331
      4          6           0        6.385032   -0.207009    0.134556
      5          6           0        6.419548   -1.335287    0.941818
      6          6           0        5.367433   -2.260600    0.929496
      7          6           0        4.268861   -2.055386    0.092593
      8          6           0        3.054995   -2.988794    0.066346
      9          6           0        3.296336   -4.385674    0.642910
     10          7           0        1.903952   -2.371754    0.751409
     11          6           0        1.053963   -1.532700    0.056112
     12          8           0        1.020473   -1.474743   -1.175702
     13          7           0        0.209349   -0.785607    0.844922
     14          6           0       -0.606569    0.265761    0.255206
     15          6           0       -2.075173   -0.156822    0.123321
     16          6           0       -3.005915    0.007749    1.155101
     17          6           0       -4.319099   -0.434186    1.002350
     18          6           0       -4.715685   -1.047118   -0.187952
     19          6           0       -6.117324   -1.571782   -0.333502
     20          9           0       -7.004073   -0.852553    0.392145
     21          9           0       -6.219872   -2.855255    0.088078
     22          9           0       -6.534191   -1.550154   -1.619442
     23          6           0       -3.792009   -1.221867   -1.222259
     24          6           0       -2.482156   -0.777670   -1.064964
     25          6           0       -0.417970    1.554032    1.054106
     26          7           0       -0.320063    1.396724    2.382003
     27          6           0       -0.162189    2.474485    3.158495
     28          6           0       -0.089332    3.771488    2.658210
     29          6           0       -0.177824    3.945006    1.280180
     30          6           0       -0.345963    2.828807    0.459701
     31          6           0       -0.400921    3.010931   -1.037814
     32          9           0       -1.494053    2.434259   -1.579507
     33          9           0       -0.421372    4.314950   -1.383246
     34          9           0        0.678464    2.457513   -1.645493
     35          6           0        4.235430   -0.917504   -0.734014
     36          1           0        4.480069    2.348347   -2.837829
     37          1           0        3.293141    1.532822   -1.781384
     38          1           0        4.107018    0.619476   -3.083278
     39          1           0        7.191985    0.519164    0.133209
     40          1           0        7.274983   -1.501646    1.591699
     41          1           0        5.421407   -3.135896    1.568855
     42          1           0        2.729690   -3.090101   -0.971855
     43          1           0        2.402146   -5.000034    0.503997
     44          1           0        4.139044   -4.872834    0.141713
     45          1           0        3.515869   -4.354721    1.717034
     46          1           0        2.067630   -2.141734    1.725021
     47          1           0        0.271740   -0.789719    1.854350
     48          1           0       -0.214469    0.398390   -0.752822
     49          1           0       -2.707272    0.480477    2.085300
     50          1           0       -5.037456   -0.295032    1.803753
     51          1           0       -4.100318   -1.694375   -2.149211
     52          1           0       -1.758422   -0.925304   -1.861288
     53          1           0       -0.088786    2.285151    4.227601
     54          1           0        0.040832    4.617804    3.324580
     55          1           0       -0.113057    4.933289    0.839184
     56          1           0        3.375214   -0.771220   -1.376777
 ---------------------------------------------------------------------

 The electronic state is 1-A.
 Alpha  occ. eigenvalues --  -24.74426 -24.73894 -24.73884 -24.71839 -24.71808
 Alpha  occ. eigenvalues --  -24.71195 -19.17113 -19.10534 -14.36368 -14.35623
 Alpha  occ. eigenvalues --  -14.35228 -10.45240 -10.42597 -10.30964 -10.26713
 Alpha  occ. eigenvalues --  -10.25650 -10.24494 -10.24277 -10.24179 -10.24085
 Alpha  occ. eigenvalues --  -10.23242 -10.22870 -10.22631 -10.21148 -10.20989
 Alpha  occ. eigenvalues --  -10.20456 -10.20305 -10.19954 -10.19666 -10.19201
 Alpha  occ. eigenvalues --  -10.18659 -10.18037 -10.17946 -10.17887 -10.17564
 Alpha  occ. eigenvalues --   -1.31833  -1.29338  -1.23269  -1.22778  -1.20834
 Alpha  occ. eigenvalues --   -1.20310  -1.05629  -1.04054  -0.98034  -0.92968
 Alpha  occ. eigenvalues --   -0.91341  -0.86987  -0.84861  -0.84472  -0.81684
 Alpha  occ. eigenvalues --   -0.78974  -0.77389  -0.75664  -0.74223  -0.73608
 Alpha  occ. eigenvalues --   -0.72826  -0.71384  -0.68607  -0.68151  -0.66149
 Alpha  occ. eigenvalues --   -0.64983  -0.63546  -0.62388  -0.61050  -0.59694
 Alpha  occ. eigenvalues --   -0.59611  -0.59532  -0.59170  -0.58704  -0.57162
 Alpha  occ. eigenvalues --   -0.56979  -0.56932  -0.56058  -0.55902  -0.53106
 Alpha  occ. eigenvalues --   -0.52205  -0.51784  -0.50045  -0.48451  -0.48163
 Alpha  occ. eigenvalues --   -0.47696  -0.47372  -0.47214  -0.46773  -0.46081
 Alpha  occ. eigenvalues --   -0.46015  -0.45690  -0.44924  -0.44730  -0.44632
 Alpha  occ. eigenvalues --   -0.44258  -0.44031  -0.43778  -0.43410  -0.43245
 Alpha  occ. eigenvalues --   -0.42575  -0.42337  -0.41668  -0.41404  -0.41364
 Alpha  occ. eigenvalues --   -0.41248  -0.40820  -0.40540  -0.40257  -0.39091
 Alpha  occ. eigenvalues --   -0.39010  -0.38336  -0.37973  -0.37738  -0.37138
 Alpha  occ. eigenvalues --   -0.36880  -0.36376  -0.35867  -0.35377  -0.35099
 Alpha  occ. eigenvalues --   -0.33913  -0.32228  -0.31942  -0.31068  -0.29360
 Alpha  occ. eigenvalues --   -0.29120  -0.26827  -0.26315  -0.26094  -0.25362
 Alpha  occ. eigenvalues --   -0.24604  -0.23433  -0.21386
 Alpha virt. eigenvalues --   -0.05875  -0.05193  -0.02244  -0.01096  -0.00155
 Alpha virt. eigenvalues --    0.01791   0.05861   0.07570   0.08183   0.09227
 Alpha virt. eigenvalues --    0.09894   0.10406   0.11043   0.11400   0.11763

 Mulliken charges:
               1
     1  C   -0.220172
     2  O   -0.512889
     3  C    0.379683
     4  C   -0.170280
     5  C   -0.135020
     6  C   -0.202185
     7  C    0.151518
     8  C   -0.055442
     9  C   -0.453882
    10  N   -0.619035
    11  C    0.818015
    12  O   -0.561620
    13  N   -0.631647
    14  C   -0.137181
    15  C    0.190007
    16  C   -0.185506
    17  C   -0.163759
    18  C   -0.003803
    19  C    0.781223
    20  F   -0.272481
    21  F   -0.262316
    22  F   -0.270864
    23  C   -0.163601
    24  C   -0.183746
    25  C    0.273681
    26  N   -0.498502
    27  C    0.050438
    28  C   -0.144694
    29  C   -0.131314
    30  C   -0.040504
    31  C    0.812825
    32  F   -0.259909
    33  F   -0.267144
    34  F   -0.258765
    35  C   -0.275544
    36  H    0.164436
    37  H    0.157009
    38  H    0.157700
    39  H    0.133814
    40  H    0.126593
    41  H    0.119386
    42  H    0.186298
    43  H    0.161499
    44  H    0.157560
    45  H    0.138637
    46  H    0.308619
    47  H    0.334153
    48  H    0.194679
    49  H    0.146396
    50  H    0.151161
    51  H    0.155704
    52  H    0.168526
    53  H    0.158209
    54  H    0.156831
    55  H    0.174945
    56  H    0.172265
 Sum of Mulliken charges =  -0.00000

 Dipole moment (field-independent basis, Debye):
    X=              2.1111    Y=              3.3482    Z=              4.4751  Tot=              5.9744
 Quadrupole moment (field-independent basis, Debye-Ang):
   XX=           -223.8775   YY=           -182.8556   ZZ=           -182.5360
   XY=             -9.1497   XZ=              2.8322   YZ=              5.1047

 Normal termination of Gaussian 16 at Fri Nov  4 21:47:30 2022.
