 Gaussian 16, Revision B.01,
 Gaussian 16:  ES64L-G16RevB.01 20-Dec-2017

 -------------------------------------------------------------------
 #p b3lyp/6-31g(d) 6D 10F nosymm GFInput td=(50-50,nstate=2) SCF=XQC
 -------------------------------------------------------------------

 ------------------------------
 Gaussian input prepared by ASE
 ------------------------------
 Symbolic Z-matrix:
 Charge =  0 Multiplicity = 1

                          Input orientation:
 ---------------------------------------------------------------------
 Center     Atomic      Atomic             Coordinates (Angstroms)
 Number     Number       Type             X           Y           Z
 ---------------------------------------------------------------------
      1          8           0        3.243002   -2.735507   -1.546884
      2         16           0        3.078537   -1.489718   -2.300838
      3          8           0        4.227321   -0.736341   -2.783279
      4          8           0        2.132253   -1.861638   -3.613055
      5          6           0        1.939166   -0.337638   -1.418891
      6          6           0        0.653575   -1.076557   -1.014374
      7          6           0       -0.374502   -0.119799   -0.390093
      8          6           0       -1.680796   -0.817077    0.043674
      9          6           0       -2.910692    0.067518    0.078818
     10          6           0       -4.154518   -0.456036   -0.299345
     11          6           0       -5.299669    0.339044   -0.271074
     12          6           0       -5.218017    1.669611    0.142732
     13          6           0       -3.985419    2.199362    0.528852
     14          6           0       -2.839227    1.404212    0.499892
     15         16           0       -1.480114   -1.653436    1.684945
     16          8           0       -0.181257   -2.312512    1.750587
     17          8           0       -2.716708   -2.370865    1.990254
     18          8           0       -1.368894   -0.371891    2.714860
     19          6           0        2.709683    0.320618   -0.291538
     20          6           0        3.251028    1.599273   -0.479714
     21          6           0        3.972155    2.222355    0.537765
     22          6           0        4.164983    1.569758    1.756464
     23          6           0        3.634557    0.293258    1.950282
     24          6           0        2.913317   -0.332199    0.933247
     25          1           0        2.080220   -2.835868   -3.637113
     26          1           0        1.717017    0.407124   -2.191701
     27          1           0        0.889474   -1.884271   -0.319035
     28          1           0        0.219907   -1.533723   -1.911082
     29          1           0        0.068152    0.411440    0.458553
     30          1           0       -0.650731    0.644550   -1.126786
     31          1           0       -1.879284   -1.675429   -0.609497
     32          1           0       -4.225410   -1.494390   -0.611508
     33          1           0       -6.254830   -0.082094   -0.571782
     34          1           0       -6.109214    2.290666    0.163410
     35          1           0       -3.913337    3.234310    0.851768
     36          1           0       -1.886627    1.828105    0.803001
     37          1           0       -2.274672   -0.152576    3.004795
     38          1           0        3.112481    2.105174   -1.431871
     39          1           0        4.384666    3.214534    0.376762
     40          1           0        4.726356    2.053434    2.551257
     41          1           0        3.780954   -0.221399    2.895624
     42          1           0        2.505113   -1.323382    1.101917
 ---------------------------------------------------------------------

 SCF Done:  E(RB3LYP) =  -1868.13827230     A.U. after   14 cycles

 Excitation energies and oscillator strengths:

 Excited state symmetry could not be determined.
 Excited State   1:      Triplet-?Sym    3.6961 eV  335.45 nm  f=0.0000  <S**2>=2.000
      96 ->101        -0.44481
      97 ->100         0.52986
 This state for optimization and/or second-order correction.
 Total Energy, E(TD-HF/TD-DFT) =  -1868.00244417
 Copying the excited state density for this state as the 1-particle RhoCI density.

 Excited state symmetry could not be determined.
 Excited State   2:      Triplet-?Sym    3.6979 eV  335.28 nm  f=0.0000  <S**2>=2.000
      94 -> 98         0.13108
      94 -> 99         0.41988
      95 -> 98         0.51934
      95 -> 99        -0.12586

 Excited state symmetry could not be determined.
 Excited State   3:      Singlet-?Sym    5.3140 eV  233.32 nm  f=0.0020  <S**2>=0.000
      96 ->100         0.53239
      97 -> 98        -0.10613
      97 ->101         0.44339

 Excited state symmetry could not be determined.
 Excited State   4:      Singlet-?Sym    5.3275 eV  232.72 nm  f=0.0033  <S**2>=0.000
      94 -> 98         0.50441
      94 -> 99        -0.11919
      95 -> 98        -0.15831
      95 -> 99        -0.44278

 Alpha  occ. eigenvalues --  -89.13448 -89.12444 -19.21534 -19.20573 -19.16307
 Alpha  occ. eigenvalues --  -19.16250 -19.15489 -19.15242 -10.25756 -10.24813
 Alpha  occ. eigenvalues --  -10.22618 -10.21970 -10.21389 -10.21263 -10.21217
 Alpha  occ. eigenvalues --  -10.21160 -10.21155 -10.21054 -10.21038 -10.19943
 Alpha  occ. eigenvalues --  -10.19715 -10.19651 -10.19591 -10.19494  -8.15922
 Alpha  occ. eigenvalues --   -8.14949  -6.12531  -6.12302  -6.12139  -6.11561
 Alpha  occ. eigenvalues --   -6.11319  -6.11161  -1.14970  -1.13913  -1.04671
 Alpha  occ. eigenvalues --   -1.03661  -1.02104  -1.01079  -0.88472  -0.87124
 Alpha  occ. eigenvalues --   -0.84215  -0.81650  -0.76760  -0.76444  -0.75086
 Alpha  occ. eigenvalues --   -0.73852  -0.71603  -0.66462  -0.64698  -0.63692
 Alpha  occ. eigenvalues --   -0.62205  -0.61199  -0.60771  -0.58234  -0.55298
 Alpha  occ. eigenvalues --   -0.54473  -0.53086  -0.52776  -0.51762  -0.50501
 Alpha  occ. eigenvalues --   -0.49641  -0.48377  -0.48045  -0.47438  -0.47071
 Alpha  occ. eigenvalues --   -0.45964  -0.45509  -0.44617  -0.44374  -0.44069
 Alpha  occ. eigenvalues --   -0.43808  -0.42592  -0.42126  -0.41612  -0.40301
 Alpha  occ. eigenvalues --   -0.38963  -0.38249  -0.37586  -0.37324  -0.37196
 Alpha  occ. eigenvalues --   -0.36711  -0.36393  -0.36146  -0.35122  -0.34969
 Alpha  occ. eigenvalues --   -0.34653  -0.34162  -0.33075  -0.32064  -0.31923
 Alpha  occ. eigenvalues --   -0.31726  -0.31259  -0.30274  -0.27165  -0.26665
 Alpha  occ. eigenvalues --   -0.25567  -0.25315
 Alpha virt. eigenvalues --   -0.03603  -0.02328  -0.02242  -0.00797   0.02661
 Alpha virt. eigenvalues --    0.03879   0.05322   0.06235   0.07113   0.07754
 Alpha virt. eigenvalues --    0.08132   0.08724   0.08937   0.09500   0.10023

 Mulliken charges:
               1
     1  O   -0.535724
     2  S    1.229325
     3  O   -0.482352
     4  O   -0.660587
     5  C   -0.408084
     6  C   -0.297028
     7  C   -0.291226
     8  C   -0.402878
     9  C    0.126325
    10  C   -0.152829
    11  C   -0.130499
    12  C   -0.123401
    13  C   -0.134698
    14  C   -0.181549
    15  S    1.232198
    16  O   -0.503327
    17  O   -0.519138
    18  O   -0.646899
    19  C    0.134805
    20  C   -0.161580
    21  C   -0.129187
    22  C   -0.122691
    23  C   -0.133097
    24  C   -0.162367
    25  H    0.437524
    26  H    0.198977
    27  H    0.218267
    28  H    0.154377
    29  H    0.191233
    30  H    0.163122
    31  H    0.202273
    32  H    0.146650
    33  H    0.143399
    34  H    0.141396
    35  H    0.141459
    36  H    0.149757
    37  H    0.441835
    38  H    0.136732
    39  H    0.135990
    40  H    0.135993
    41  H    0.143301
    42  H    0.174203
 Sum of Mulliken charges =  -0.00000

 Dipole moment (field-independent basis, Debye):
    X=             -5.4242    Y=              4.3976    Z=             -0.4337  Tot=              6.9963
 Quadrupole moment (field-independent basis, Debye-Ang):
   XX=           -158.1818   YY=           -152.6736   ZZ=           -154.2246
   XY=              2.5466   XZ=             13.7637   YZ=             13.8632

 Normal termination of Gaussian 16 at Sat Nov  5 12:04:59 2022.
