 Gaussian 16, Revision B.01,
 Gaussian 16:  ES64L-G16RevB.01 20-Dec-2017

 -----------------------------
 #p b3lyp/6-31g(d) opt SCF=XQC
 -----------------------------

 ------------------------------
 Gaussian input prepared by ASE
 ------------------------------
 Symbolic Z-matrix:
 Charge =  0 Multiplicity = 1

 SCF Done:  E(RB3LYP) =  -1868.11862914     A.U. after   15 cycles
 SCF Done:  E(RB3LYP) =  -1868.13524623     A.U. after   13 cycles
 SCF Done:  E(RB3LYP) =  -1868.13733103     A.U. after   12 cycles
 SCF Done:  E(RB3LYP) =  -1868.13799641     A.U. after   12 cycles
 SCF Done:  E(RB3LYP) =  -1868.13810640     A.U. after   11 cycles
 SCF Done:  E(RB3LYP) =  -1868.13814217     A.U. after   10 cycles
 SCF Done:  E(RB3LYP) =  -1868.13818074     A.U. after   11 cycles
 SCF Done:  E(RB3LYP) =  -1868.13819849     A.U. after   11 cycles
 SCF Done:  E(RB3LYP) =  -1868.13823673     A.U. after   11 cycles
 SCF Done:  E(RB3LYP) =  -1868.13826334     A.U. after   11 cycles
 SCF Done:  E(RB3LYP) =  -1868.13826963     A.U. after   10 cycles
 SCF Done:  E(RB3LYP) =  -1868.13827081     A.U. after    8 cycles
 SCF Done:  E(RB3LYP) =  -1868.13827171     A.U. after    9 cycles
 SCF Done:  E(RB3LYP) =  -1868.13827206     A.U. after    8 cycles
 SCF Done:  E(RB3LYP) =  -1868.13827228     A.U. after    7 cycles
 SCF Done:  E(RB3LYP) =  -1868.13827231     A.U. after    7 cycles
 SCF Done:  E(RB3LYP) =  -1868.13827230     A.U. after    6 cycles
 Optimization completed.
    -- Stationary point found.

                         Standard orientation:
 ---------------------------------------------------------------------
 Center     Atomic      Atomic             Coordinates (Angstroms)
 Number     Number       Type             X           Y           Z
 ---------------------------------------------------------------------
      1          8           0        3.449195   -1.765583    1.332900
      2         16           0        3.390061   -1.698047   -0.129778
      3          8           0        4.566289   -1.371489   -0.923427
      4          8           0        2.830678   -3.174884   -0.641379
      5          6           0        1.987387   -0.632899   -0.678639
      6          6           0        0.697494   -1.046354    0.047730
      7          6           0       -0.519410   -0.267170   -0.475789
      8          6           0       -1.839570   -0.639167    0.231001
      9          6           0       -3.099002   -0.414785   -0.581323
     10          6           0       -4.168320   -1.313697   -0.468462
     11          6           0       -5.337826   -1.124390   -1.203813
     12          6           0       -5.457145   -0.027812   -2.059142
     13          6           0       -4.401101    0.878111   -2.173582
     14          6           0       -3.230412    0.688478   -1.438473
     15         16           0       -1.996353    0.232704    1.858513
     16          8           0       -0.711574    0.231889    2.547762
     17          8           0       -3.215672   -0.234824    2.515601
     18          8           0       -2.237588    1.794711    1.392261
     19          6           0        2.402844    0.816445   -0.521419
     20          6           0        2.881554    1.522002   -1.633377
     21          6           0        3.279280    2.852746   -1.513148
     22          6           0        3.207421    3.493100   -0.274973
     23          6           0        2.737692    2.795889    0.839307
     24          6           0        2.339915    1.464129    0.721271
     25          1           0        2.855827   -3.755949    0.142292
     26          1           0        1.912944   -0.876903   -1.744554
     27          1           0        0.809057   -0.895554    1.123071
     28          1           0        0.535359   -2.117708   -0.116786
     29          1           0       -0.341863    0.810260   -0.398468
     30          1           0       -0.656495   -0.484935   -1.542107
     31          1           0       -1.806889   -1.686930    0.553373
     32          1           0       -4.084821   -2.162724    0.204466
     33          1           0       -6.155042   -1.833576   -1.107230
     34          1           0       -6.367129    0.119765   -2.634051
     35          1           0       -4.485895    1.733988   -2.837564
     36          1           0       -2.416465    1.400481   -1.536189
     37          1           0       -3.200325    1.924498    1.297984
     38          1           0        2.949670    1.022438   -2.596460
     39          1           0        3.647192    3.386555   -2.385038
     40          1           0        3.516455    4.530410   -0.178720
     41          1           0        2.679483    3.287071    1.806430
     42          1           0        1.974174    0.937985    1.597017
 ---------------------------------------------------------------------

 The electronic state is 1-A.
 Alpha  occ. eigenvalues --  -89.13448 -89.12444 -19.21535 -19.20573 -19.16308
 Alpha  occ. eigenvalues --  -19.16250 -19.15489 -19.15242 -10.25756 -10.24813
 Alpha  occ. eigenvalues --  -10.22618 -10.21970 -10.21389 -10.21263 -10.21217
 Alpha  occ. eigenvalues --  -10.21160 -10.21155 -10.21054 -10.21038 -10.19943
 Alpha  occ. eigenvalues --  -10.19715 -10.19651 -10.19590 -10.19494  -8.15923
 Alpha  occ. eigenvalues --   -8.14949  -6.12531  -6.12302  -6.12139  -6.11561
 Alpha  occ. eigenvalues --   -6.11319  -6.11161  -1.14970  -1.13913  -1.04672
 Alpha  occ. eigenvalues --   -1.03661  -1.02105  -1.01079  -0.88472  -0.87124
 Alpha  occ. eigenvalues --   -0.84215  -0.81650  -0.76760  -0.76444  -0.75086
 Alpha  occ. eigenvalues --   -0.73852  -0.71603  -0.66462  -0.64698  -0.63692
 Alpha  occ. eigenvalues --   -0.62205  -0.61199  -0.60771  -0.58234  -0.55298
 Alpha  occ. eigenvalues --   -0.54473  -0.53086  -0.52776  -0.51762  -0.50501
 Alpha  occ. eigenvalues --   -0.49641  -0.48377  -0.48045  -0.47438  -0.47071
 Alpha  occ. eigenvalues --   -0.45964  -0.45509  -0.44617  -0.44374  -0.44069
 Alpha  occ. eigenvalues --   -0.43808  -0.42592  -0.42126  -0.41612  -0.40301
 Alpha  occ. eigenvalues --   -0.38963  -0.38249  -0.37586  -0.37324  -0.37196
 Alpha  occ. eigenvalues --   -0.36711  -0.36393  -0.36146  -0.35122  -0.34969
 Alpha  occ. eigenvalues --   -0.34653  -0.34162  -0.33075  -0.32064  -0.31923
 Alpha  occ. eigenvalues --   -0.31726  -0.31259  -0.30274  -0.27165  -0.26665
 Alpha  occ. eigenvalues --   -0.25567  -0.25315
 Alpha virt. eigenvalues --   -0.03603  -0.02328  -0.02242  -0.00797   0.02661
 Alpha virt. eigenvalues --    0.03879   0.05321   0.06235   0.07113   0.07754
 Alpha virt. eigenvalues --    0.08132   0.08724   0.08937   0.09500   0.10023

 Mulliken charges:
               1
     1  O   -0.535719
     2  S    1.229314
     3  O   -0.482350
     4  O   -0.660586
     5  C   -0.408133
     6  C   -0.296997
     7  C   -0.291209
     8  C   -0.402910
     9  C    0.126393
    10  C   -0.152856
    11  C   -0.130499
    12  C   -0.123392
    13  C   -0.134702
    14  C   -0.181575
    15  S    1.232202
    16  O   -0.503327
    17  O   -0.519139
    18  O   -0.646899
    19  C    0.134817
    20  C   -0.161569
    21  C   -0.129179
    22  C   -0.122708
    23  C   -0.133092
    24  C   -0.162360
    25  H    0.437524
    26  H    0.198982
    27  H    0.218262
    28  H    0.154374
    29  H    0.191228
    30  H    0.163118
    31  H    0.202273
    32  H    0.146651
    33  H    0.143400
    34  H    0.141394
    35  H    0.141460
    36  H    0.149760
    37  H    0.441835
    38  H    0.136732
    39  H    0.135989
    40  H    0.135994
    41  H    0.143300
    42  H    0.174202
 Sum of Mulliken charges =  -0.00000

 Dipole moment (field-independent basis, Debye):
    X=             -5.4428    Y=              0.8052    Z=             -4.3217  Tot=              6.9963
 Quadrupole moment (field-independent basis, Debye-Ang):
   XX=           -161.5351   YY=           -135.2842   ZZ=           -162.2724
   XY=              5.9436   XZ=             10.1015   YZ=             -4.1013

 Normal termination of Gaussian 16 at Fri Nov  4 20:06:22 2022.
