 Gaussian 16, Revision B.01,
 Gaussian 16:  ES64L-G16RevB.01 20-Dec-2017

 -----------------------------
 #p b3lyp/6-31g(d) opt SCF=XQC
 -----------------------------

 ------------------------------
 Gaussian input prepared by ASE
 ------------------------------
 Symbolic Z-matrix:
 Charge =  0 Multiplicity = 1

 SCF Done:  E(RB3LYP) =  -1574.08904527     A.U. after   15 cycles
 SCF Done:  E(RB3LYP) =  -1574.09977888     A.U. after   15 cycles
 SCF Done:  E(RB3LYP) =  -1574.10146088     A.U. after   13 cycles
 SCF Done:  E(RB3LYP) =  -1574.10574563     A.U. after   13 cycles
 SCF Done:  E(RB3LYP) =  -1574.10457436     A.U. after   13 cycles
 SCF Done:  E(RB3LYP) =  -1574.10732242     A.U. after   13 cycles
 SCF Done:  E(RB3LYP) =  -1574.10785222     A.U. after   12 cycles
 SCF Done:  E(RB3LYP) =  -1574.10818608     A.U. after   12 cycles
 SCF Done:  E(RB3LYP) =  -1574.10835951     A.U. after   11 cycles
 SCF Done:  E(RB3LYP) =  -1574.10846102     A.U. after   11 cycles
 SCF Done:  E(RB3LYP) =  -1574.10865100     A.U. after   10 cycles
 SCF Done:  E(RB3LYP) =  -1574.10865549     A.U. after    9 cycles
 SCF Done:  E(RB3LYP) =  -1574.10865830     A.U. after    9 cycles
 SCF Done:  E(RB3LYP) =  -1574.10866116     A.U. after    9 cycles
 SCF Done:  E(RB3LYP) =  -1574.10866484     A.U. after    9 cycles
 SCF Done:  E(RB3LYP) =  -1574.10866591     A.U. after    8 cycles
 SCF Done:  E(RB3LYP) =  -1574.10866629     A.U. after    8 cycles
 SCF Done:  E(RB3LYP) =  -1574.10866638     A.U. after    7 cycles
 SCF Done:  E(RB3LYP) =  -1574.10866643     A.U. after    7 cycles
 SCF Done:  E(RB3LYP) =  -1574.10866645     A.U. after    6 cycles
 Optimization completed.
    -- Stationary point found.

                         Standard orientation:
 ---------------------------------------------------------------------
 Center     Atomic      Atomic             Coordinates (Angstroms)
 Number     Number       Type             X           Y           Z
 ---------------------------------------------------------------------
      1          6           0       -1.472512    4.028555   -0.811966
      2          6           0       -1.148627    3.000655    0.247716
      3          6           0       -0.138986    3.264714    1.179675
      4          6           0        0.159021    2.371284    2.207550
      5          6           0       -0.534993    1.169770    2.299405
      6          6           0       -1.515583    0.847262    1.355843
      7          6           0       -2.142632   -0.519279    1.491779
      8          8           0       -2.523263   -0.936532    2.583012
      9          7           0       -2.260433   -1.260548    0.336089
     10          6           0       -2.712745   -2.666787    0.369315
     11          6           0       -3.142438   -2.856572   -1.100775
     12          6           0       -2.073663   -2.014782   -1.869170
     13          6           0       -1.234397   -1.415483   -0.721105
     14          6           0       -0.336227   -2.549157   -0.124019
     15          7           0        0.669458   -2.058141    0.807329
     16          6           0        1.820721   -1.439277    0.422208
     17          6           0        2.738393   -0.939153    1.391756
     18          7           0        3.864664   -0.353237    1.045776
     19          6           0        4.122050   -0.246484   -0.273087
     20          6           0        5.415071    0.428636   -0.643094
     21          9           0        5.467674    1.697084   -0.185175
     22          9           0        5.572363    0.476393   -1.987516
     23          9           0        6.483066   -0.219429   -0.133864
     24          6           0        3.233613   -0.731970   -1.223735
     25          7           0        2.079853   -1.324429   -0.889209
     26          6           0       -1.386588   -3.431281    0.618173
     27          6           0       -1.852429    1.777227    0.347811
     28          6           0       -2.987185    1.511525   -0.554579
     29          7           0       -3.052874    1.615917   -1.852219
     30          6           0       -4.355480    1.258263   -2.170920
     31          6           0       -5.025975    0.954448   -1.030842
     32          8           0       -4.165836    1.121751    0.016819
     33          1           0       -0.851354    4.919480   -0.681434
     34          1           0       -1.310521    3.631807   -1.818199
     35          1           0       -2.523341    4.337068   -0.764760
     36          1           0        0.407119    4.201622    1.107696
     37          1           0        0.932094    2.613170    2.931403
     38          1           0       -0.327768    0.464052    3.097670
     39          1           0       -3.481631   -2.834540    1.120947
     40          1           0       -3.151467   -3.912083   -1.390129
     41          1           0       -4.146432   -2.452460   -1.259303
     42          1           0       -2.535840   -1.217152   -2.454798
     43          1           0       -1.456227   -2.615817   -2.544181
     44          1           0       -0.697252   -0.500610   -0.959815
     45          1           0        0.183674   -3.081834   -0.924295
     46          1           0        0.446042   -2.059990    1.792415
     47          1           0        2.525831   -1.032636    2.456632
     48          1           0        3.443205   -0.642380   -2.285621
     49          1           0       -1.410867   -4.458318    0.242747
     50          1           0       -1.175840   -3.475230    1.692026
     51          1           0       -4.708931    1.250790   -3.192244
     52          1           0       -6.030725    0.647260   -0.788386
 ---------------------------------------------------------------------

 The electronic state is 1-A.
 Alpha  occ. eigenvalues --  -24.72062 -24.71250 -24.71248 -19.23142 -19.12096
 Alpha  occ. eigenvalues --  -14.37635 -14.36003 -14.35996 -14.34849 -14.33739
 Alpha  occ. eigenvalues --  -10.42587 -10.29432 -10.28391 -10.28359 -10.25242
 Alpha  occ. eigenvalues --  -10.24354 -10.24178 -10.24158 -10.23598 -10.23266
 Alpha  occ. eigenvalues --  -10.23099 -10.22270 -10.22070 -10.21557 -10.21437
 Alpha  occ. eigenvalues --  -10.20359 -10.20342 -10.20216 -10.20037 -10.19594
 Alpha  occ. eigenvalues --  -10.19384 -10.18459  -1.29304  -1.20792  -1.20274
 Alpha  occ. eigenvalues --   -1.13667  -1.03977  -1.00542  -0.96941  -0.94767
 Alpha  occ. eigenvalues --   -0.92568  -0.90619  -0.87614  -0.81495  -0.79888
 Alpha  occ. eigenvalues --   -0.79593  -0.78094  -0.75918  -0.75325  -0.74552
 Alpha  occ. eigenvalues --   -0.70067  -0.69587  -0.67972  -0.66319  -0.64715
 Alpha  occ. eigenvalues --   -0.63668  -0.63066  -0.62277  -0.60267  -0.58208
 Alpha  occ. eigenvalues --   -0.57720  -0.57497  -0.57119  -0.56898  -0.56325
 Alpha  occ. eigenvalues --   -0.54699  -0.54433  -0.53327  -0.51954  -0.50480
 Alpha  occ. eigenvalues --   -0.49140  -0.48977  -0.47905  -0.47309  -0.46867
 Alpha  occ. eigenvalues --   -0.45538  -0.45177  -0.45095  -0.44633  -0.44287
 Alpha  occ. eigenvalues --   -0.44046  -0.43920  -0.43063  -0.42256  -0.41784
 Alpha  occ. eigenvalues --   -0.41670  -0.41282  -0.40917  -0.40846  -0.40404
 Alpha  occ. eigenvalues --   -0.39781  -0.39170  -0.38859  -0.38783  -0.38459
 Alpha  occ. eigenvalues --   -0.37810  -0.37103  -0.36680  -0.35913  -0.35441
 Alpha  occ. eigenvalues --   -0.34956  -0.34747  -0.34117  -0.32986  -0.32400
 Alpha  occ. eigenvalues --   -0.31423  -0.31292  -0.29417  -0.27896  -0.27209
 Alpha  occ. eigenvalues --   -0.26031  -0.25437  -0.24428  -0.23788  -0.22685
 Alpha virt. eigenvalues --   -0.05279  -0.04608  -0.02447  -0.02174   0.00871
 Alpha virt. eigenvalues --    0.03625   0.05274   0.05831   0.07425   0.08683
 Alpha virt. eigenvalues --    0.09809   0.11650   0.12043   0.12309   0.12552

 Mulliken charges:
               1
     1  C   -0.523611
     2  C    0.148230
     3  C   -0.189907
     4  C   -0.113617
     5  C   -0.184360
     6  C    0.085082
     7  C    0.477124
     8  O   -0.513129
     9  N   -0.419084
    10  C    0.006456
    11  C   -0.273474
    12  C   -0.282363
    13  C   -0.020591
    14  C    0.081763
    15  N   -0.685097
    16  C    0.557459
    17  C   -0.003467
    18  N   -0.426331
    19  C    0.106486
    20  C    0.815253
    21  F   -0.261873
    22  F   -0.275611
    23  F   -0.261002
    24  C    0.028142
    25  N   -0.499194
    26  C   -0.319239
    27  C    0.022638
    28  C    0.410585
    29  N   -0.459507
    30  C   -0.036994
    31  C    0.073624
    32  O   -0.415563
    33  H    0.151617
    34  H    0.193188
    35  H    0.166408
    36  H    0.136993
    37  H    0.144289
    38  H    0.145285
    39  H    0.168302
    40  H    0.140629
    41  H    0.152286
    42  H    0.171331
    43  H    0.146248
    44  H    0.176514
    45  H    0.166983
    46  H    0.338255
    47  H    0.146494
    48  H    0.168063
    49  H    0.155600
    50  H    0.159888
    51  H    0.152758
    52  H    0.170040
 Sum of Mulliken charges =  -0.00000

 Dipole moment (field-independent basis, Debye):
    X=             -4.1417    Y=             -1.7605    Z=             -1.4191  Tot=              4.7188
 Quadrupole moment (field-independent basis, Debye-Ang):
   XX=           -194.8993   YY=           -166.3281   ZZ=           -183.0704
   XY=              0.3791   XZ=             13.0644   YZ=              1.9761

 Normal termination of Gaussian 16 at Fri Nov  4 20:36:02 2022.
