 Gaussian 16, Revision B.01,
 Gaussian 16:  ES64L-G16RevB.01 20-Dec-2017

 -------------------------------------------------------------------
 #p b3lyp/6-31g(d) 6D 10F nosymm GFInput td=(50-50,nstate=2) SCF=XQC
 -------------------------------------------------------------------

 ------------------------------
 Gaussian input prepared by ASE
 ------------------------------
 Symbolic Z-matrix:
 Charge =  0 Multiplicity = 1

                          Input orientation:
 ---------------------------------------------------------------------
 Center     Atomic      Atomic             Coordinates (Angstroms)
 Number     Number       Type             X           Y           Z
 ---------------------------------------------------------------------
      1          6           0       -2.425265    3.434811    0.508611
      2          6           0       -1.683419    2.325623    1.218381
      3          6           0       -0.787015    2.641698    2.245126
      4          6           0       -0.120471    1.650838    2.964479
      5          6           0       -0.318058    0.312971    2.640750
      6          6           0       -1.166739   -0.040184    1.586758
      7          6           0       -1.238929   -1.511892    1.258172
      8          8           0       -1.373302   -2.353352    2.143416
      9          7           0       -1.145802   -1.850701   -0.074312
     10          6           0       -1.047413   -3.261536   -0.502173
     11          6           0       -1.465192   -3.134072   -1.982387
     12          6           0       -0.828458   -1.766475   -2.389289
     13          6           0       -0.200244   -1.285067   -1.064459
     14          6           0        1.085619   -2.134078   -0.792114
     15          7           0        1.894997   -1.620021    0.303587
     16          6           0        2.713234   -0.535648    0.197084
     17          6           0        3.439875   -0.057650    1.326589
     18          7           0        4.249367    0.976591    1.245632
     19          6           0        4.369607    1.570174    0.041370
     20          6           0        5.299687    2.751337   -0.024989
     21          9           0        4.910461    3.743490    0.802993
     22          9           0        5.347134    3.264232   -1.277658
     23          9           0        6.559623    2.418002    0.323386
     24          6           0        3.665868    1.109952   -1.063933
     25          7           0        2.832572    0.063394   -0.997512
     26          6           0        0.479205   -3.522271   -0.421392
     27          6           0       -1.881551    0.962392    0.895154
     28          6           0       -2.891704    0.589850   -0.111512
     29          7           0       -3.069204    1.056217   -1.315704
     30          6           0       -4.166228    0.361920   -1.806377
     31          6           0       -4.608360   -0.501390   -0.857242
     32          8           0       -3.808236   -0.360712    0.240680
     33          1           0       -2.167884    4.404907    0.943688
     34          1           0       -2.189895    3.455251   -0.559256
     35          1           0       -3.511083    3.305327    0.585317
     36          1           0       -0.628385    3.686849    2.497522
     37          1           0        0.551943    1.924552    3.772597
     38          1           0        0.181473   -0.475854    3.194313
     39          1           0       -1.654233   -3.922130    0.113995
     40          1           0       -1.103530   -3.975097   -2.582213
     41          1           0       -2.555029   -3.099199   -2.068867
     42          1           0       -1.585569   -1.055923   -2.727935
     43          1           0       -0.075377   -1.859964   -3.178109
     44          1           0       -0.051890   -0.211304   -0.977716
     45          1           0        1.715523   -2.164864   -1.684726
     46          1           0        1.747663   -2.006445    1.225151
     47          1           0        3.341063   -0.545060    2.296409
     48          1           0        3.763533    1.591935   -2.032288
     49          1           0        0.811071   -4.317441   -1.095119
     50          1           0        0.755678   -3.813532    0.597546
     51          1           0       -4.553119    0.539499   -2.799790
     52          1           0       -5.413614   -1.214497   -0.781630
 ---------------------------------------------------------------------

 SCF Done:  E(RB3LYP) =  -1574.10867408     A.U. after   15 cycles

 Excitation energies and oscillator strengths:

 Excited state symmetry could not be determined.
 Excited State   1:      Triplet-?Sym    3.1428 eV  394.50 nm  f=0.0000  <S**2>=2.000
     112 ->116         0.13045
     113 ->116         0.10457
     114 ->116         0.10325
     115 ->116         0.63536
     115 ->117        -0.19711
 This state for optimization and/or second-order correction.
 Total Energy, E(TD-HF/TD-DFT) =  -1573.99317666
 Copying the excited state density for this state as the 1-particle RhoCI density.

 Excited state symmetry could not be determined.
 Excited State   2:      Triplet-?Sym    3.3048 eV  375.17 nm  f=0.0000  <S**2>=2.000
     109 ->117         0.15384
     109 ->120         0.13189
     110 ->117         0.10807
     112 ->118        -0.14885
     112 ->119         0.11808
     113 ->116        -0.10254
     113 ->117        -0.17940
     113 ->118         0.11684
     114 ->116         0.16399
     114 ->117         0.47752
     114 ->118         0.18255
     115 ->117        -0.11555

 Excited state symmetry could not be determined.
 Excited State   3:      Singlet-?Sym    4.1642 eV  297.74 nm  f=0.0779  <S**2>=0.000
     115 ->116         0.68563

 Excited state symmetry could not be determined.
 Excited State   4:      Singlet-?Sym    4.3183 eV  287.11 nm  f=0.0179  <S**2>=0.000
     111 ->116         0.51505
     111 ->117        -0.15994
     115 ->117         0.42856

 Alpha  occ. eigenvalues --  -24.72062 -24.71250 -24.71248 -19.23142 -19.12096
 Alpha  occ. eigenvalues --  -14.37634 -14.36003 -14.35996 -14.34849 -14.33739
 Alpha  occ. eigenvalues --  -10.42587 -10.29432 -10.28391 -10.28359 -10.25243
 Alpha  occ. eigenvalues --  -10.24354 -10.24178 -10.24158 -10.23598 -10.23266
 Alpha  occ. eigenvalues --  -10.23099 -10.22271 -10.22070 -10.21557 -10.21437
 Alpha  occ. eigenvalues --  -10.20359 -10.20342 -10.20216 -10.20037 -10.19594
 Alpha  occ. eigenvalues --  -10.19384 -10.18459  -1.29304  -1.20792  -1.20274
 Alpha  occ. eigenvalues --   -1.13668  -1.03977  -1.00542  -0.96940  -0.94767
 Alpha  occ. eigenvalues --   -0.92568  -0.90619  -0.87614  -0.81495  -0.79888
 Alpha  occ. eigenvalues --   -0.79593  -0.78094  -0.75918  -0.75325  -0.74552
 Alpha  occ. eigenvalues --   -0.70067  -0.69587  -0.67972  -0.66319  -0.64715
 Alpha  occ. eigenvalues --   -0.63668  -0.63066  -0.62277  -0.60267  -0.58208
 Alpha  occ. eigenvalues --   -0.57720  -0.57497  -0.57119  -0.56898  -0.56325
 Alpha  occ. eigenvalues --   -0.54699  -0.54433  -0.53327  -0.51954  -0.50480
 Alpha  occ. eigenvalues --   -0.49140  -0.48977  -0.47905  -0.47309  -0.46867
 Alpha  occ. eigenvalues --   -0.45538  -0.45177  -0.45095  -0.44633  -0.44287
 Alpha  occ. eigenvalues --   -0.44046  -0.43920  -0.43063  -0.42256  -0.41784
 Alpha  occ. eigenvalues --   -0.41670  -0.41282  -0.40917  -0.40846  -0.40404
 Alpha  occ. eigenvalues --   -0.39781  -0.39170  -0.38859  -0.38783  -0.38459
 Alpha  occ. eigenvalues --   -0.37810  -0.37103  -0.36680  -0.35913  -0.35441
 Alpha  occ. eigenvalues --   -0.34956  -0.34747  -0.34116  -0.32986  -0.32400
 Alpha  occ. eigenvalues --   -0.31423  -0.31292  -0.29417  -0.27896  -0.27209
 Alpha  occ. eigenvalues --   -0.26031  -0.25437  -0.24428  -0.23788  -0.22685
 Alpha virt. eigenvalues --   -0.05279  -0.04608  -0.02447  -0.02174   0.00871
 Alpha virt. eigenvalues --    0.03625   0.05274   0.05831   0.07425   0.08682
 Alpha virt. eigenvalues --    0.09809   0.11650   0.12043   0.12309   0.12552

 Mulliken charges:
               1
     1  C   -0.523602
     2  C    0.148221
     3  C   -0.189896
     4  C   -0.113626
     5  C   -0.184355
     6  C    0.085116
     7  C    0.477128
     8  O   -0.513140
     9  N   -0.419065
    10  C    0.006463
    11  C   -0.273479
    12  C   -0.282358
    13  C   -0.020625
    14  C    0.081763
    15  N   -0.685074
    16  C    0.557424
    17  C   -0.003461
    18  N   -0.426337
    19  C    0.106498
    20  C    0.815247
    21  F   -0.261873
    22  F   -0.275610
    23  F   -0.261001
    24  C    0.028143
    25  N   -0.499184
    26  C   -0.319260
    27  C    0.022627
    28  C    0.410554
    29  N   -0.459503
    30  C   -0.036979
    31  C    0.073603
    32  O   -0.415546
    33  H    0.151616
    34  H    0.193185
    35  H    0.166407
    36  H    0.136993
    37  H    0.144289
    38  H    0.145285
    39  H    0.168302
    40  H    0.140630
    41  H    0.152287
    42  H    0.171334
    43  H    0.146250
    44  H    0.176520
    45  H    0.166987
    46  H    0.338254
    47  H    0.146494
    48  H    0.168061
    49  H    0.155603
    50  H    0.159892
    51  H    0.152758
    52  H    0.170039
 Sum of Mulliken charges =  -0.00000

 Dipole moment (field-independent basis, Debye):
    X=             -3.2837    Y=             -2.6301    Z=             -2.1371  Tot=              4.7188
 Quadrupole moment (field-independent basis, Debye-Ang):
   XX=           -192.9727   YY=           -176.5272   ZZ=           -179.4292
   XY=            -14.1358   XZ=              7.0354   YZ=              9.3517

 Normal termination of Gaussian 16 at Sat Nov  5 12:17:05 2022.
