 Gaussian 16, Revision B.01,
 Gaussian 16:  ES64L-G16RevB.01 20-Dec-2017

 -----------------------------
 #p b3lyp/6-31g(d) opt SCF=XQC
 -----------------------------

 ------------------------------
 Gaussian input prepared by ASE
 ------------------------------
 Symbolic Z-matrix:
 Charge =  0 Multiplicity = 1

 SCF Done:  E(RB3LYP) =  -977.330704860     A.U. after   14 cycles
 SCF Done:  E(RB3LYP) =  -977.337127048     A.U. after   14 cycles
 SCF Done:  E(RB3LYP) =  -977.338230188     A.U. after   12 cycles
 SCF Done:  E(RB3LYP) =  -977.338613050     A.U. after   12 cycles
 SCF Done:  E(RB3LYP) =  -977.338813434     A.U. after   12 cycles
 SCF Done:  E(RB3LYP) =  -977.338865711     A.U. after   10 cycles
 SCF Done:  E(RB3LYP) =  -977.338886469     A.U. after   10 cycles
 SCF Done:  E(RB3LYP) =  -977.338890274     A.U. after    9 cycles
 SCF Done:  E(RB3LYP) =  -977.338893031     A.U. after    9 cycles
 SCF Done:  E(RB3LYP) =  -977.338897341     A.U. after    9 cycles
 SCF Done:  E(RB3LYP) =  -977.338901371     A.U. after    9 cycles
 SCF Done:  E(RB3LYP) =  -977.338904286     A.U. after    9 cycles
 SCF Done:  E(RB3LYP) =  -977.338905814     A.U. after    9 cycles
 SCF Done:  E(RB3LYP) =  -977.338905998     A.U. after    7 cycles
 Optimization completed.
    -- Stationary point found.

                         Standard orientation:
 ---------------------------------------------------------------------
 Center     Atomic      Atomic             Coordinates (Angstroms)
 Number     Number       Type             X           Y           Z
 ---------------------------------------------------------------------
      1          6           0       -5.061278    1.168380    0.405692
      2          6           0       -4.431116   -0.162513    0.078967
      3          7           0       -5.170365   -1.260014    0.301042
      4          6           0       -4.654854   -2.457058   -0.003443
      5          6           0       -3.388349   -2.631787   -0.557556
      6          6           0       -2.611837   -1.498585   -0.792870
      7          6           0       -3.131870   -0.247905   -0.461928
      8          8           0       -2.414124    0.893885   -0.739353
      9          6           0       -1.624779    1.459674    0.356913
     10          6           0       -1.163746    2.837737   -0.142958
     11          6           0        0.097163    2.810351   -0.982200
     12          7           0        1.030277    1.931575   -0.871980
     13          6           0        0.773936    0.919978    0.037342
     14          6           0       -0.421541    0.633291    0.684332
     15          6           0       -0.191837   -0.511995    1.488268
     16          6           0        1.132180   -0.873479    1.308575
     17          7           0        1.721647   -0.004784    0.416113
     18          6           0        3.115116   -0.022268   -0.043620
     19          6           0        4.100340    0.241789    1.109111
     20          6           0        5.552119    0.247247    0.603771
     21          6           0        5.897160   -1.051838   -0.140274
     22          6           0        4.905590   -1.319777   -1.282574
     23          6           0        3.452746   -1.330609   -0.780418
     24          1           0       -6.144067    1.044156    0.478617
     25          1           0       -4.824303    1.916144   -0.357707
     26          1           0       -4.705033    1.559735    1.368132
     27          1           0       -5.294748   -3.315309    0.196109
     28          1           0       -3.021831   -3.624767   -0.801781
     29          1           0       -1.620448   -1.559578   -1.229072
     30          1           0       -2.289598    1.578562    1.220440
     31          1           0       -1.979885    3.320252   -0.690166
     32          1           0       -0.952195    3.469109    0.735501
     33          1           0        0.252816    3.621927   -1.694542
     34          1           0       -0.902371   -1.019375    2.127173
     35          1           0        1.698631   -1.677330    1.755216
     36          1           0        3.180677    0.806071   -0.756520
     37          1           0        3.852123    1.195956    1.588921
     38          1           0        3.981630   -0.538922    1.873868
     39          1           0        5.695352    1.101824   -0.073561
     40          1           0        6.237863    0.400238    1.446218
     41          1           0        5.870446   -1.893311    0.567929
     42          1           0        6.921448   -1.004597   -0.530527
     43          1           0        5.016498   -0.539557   -2.049679
     44          1           0        5.135424   -2.273290   -1.773810
     45          1           0        2.754184   -1.469249   -1.613961
     46          1           0        3.308614   -2.181014   -0.098962
 ---------------------------------------------------------------------

 The electronic state is 1-A.
 Alpha  occ. eigenvalues --  -19.15591 -14.38032 -14.33524 -14.31725 -10.25047
 Alpha  occ. eigenvalues --  -10.23569 -10.23047 -10.22803 -10.22656 -10.21865
 Alpha  occ. eigenvalues --  -10.20966 -10.20593 -10.19899 -10.19350 -10.18876
 Alpha  occ. eigenvalues --  -10.18828 -10.18826 -10.18700 -10.18687 -10.18539
 Alpha  occ. eigenvalues --  -10.17433 -10.17355 -10.17183  -1.04049  -0.99173
 Alpha  occ. eigenvalues --   -0.92870  -0.92494  -0.84251  -0.80759  -0.78938
 Alpha  occ. eigenvalues --   -0.77701  -0.75484  -0.74775  -0.72919  -0.72185
 Alpha  occ. eigenvalues --   -0.69033  -0.64804  -0.62587  -0.61763  -0.61047
 Alpha  occ. eigenvalues --   -0.60666  -0.59663  -0.57714  -0.55174  -0.53153
 Alpha  occ. eigenvalues --   -0.51550  -0.49834  -0.48847  -0.48509  -0.47583
 Alpha  occ. eigenvalues --   -0.46172  -0.45010  -0.44929  -0.44217  -0.43467
 Alpha  occ. eigenvalues --   -0.42946  -0.42385  -0.42220  -0.41275  -0.40163
 Alpha  occ. eigenvalues --   -0.40010  -0.40007  -0.39676  -0.38807  -0.38508
 Alpha  occ. eigenvalues --   -0.37264  -0.37088  -0.36457  -0.36074  -0.35126
 Alpha  occ. eigenvalues --   -0.34875  -0.33682  -0.32797  -0.32651  -0.31770
 Alpha  occ. eigenvalues --   -0.30750  -0.28221  -0.26905  -0.25909  -0.24022
 Alpha  occ. eigenvalues --   -0.23693  -0.23023  -0.19577
 Alpha virt. eigenvalues --   -0.02861  -0.01014   0.00220   0.05405   0.07931
 Alpha virt. eigenvalues --    0.08410   0.09353   0.09388   0.11230   0.11713
 Alpha virt. eigenvalues --    0.12526   0.12984   0.13643   0.13928   0.14400

 Mulliken charges:
               1
     1  C   -0.513098
     2  C    0.274396
     3  N   -0.475721
     4  C    0.034627
     5  C   -0.156036
     6  C   -0.119477
     7  C    0.308820
     8  O   -0.550149
     9  C    0.042288
    10  C   -0.350227
    11  C    0.066248
    12  N   -0.445479
    13  C    0.417335
    14  C    0.104257
    15  C   -0.254565
    16  C    0.024482
    17  N   -0.463421
    18  C    0.010756
    19  C   -0.259894
    20  C   -0.265070
    21  C   -0.258584
    22  C   -0.265210
    23  C   -0.262668
    24  H    0.173073
    25  H    0.165199
    26  H    0.156537
    27  H    0.134663
    28  H    0.132696
    29  H    0.152102
    30  H    0.136488
    31  H    0.169641
    32  H    0.171533
    33  H    0.140755
    34  H    0.132916
    35  H    0.146191
    36  H    0.172671
    37  H    0.147031
    38  H    0.131733
    39  H    0.135933
    40  H    0.137389
    41  H    0.129738
    42  H    0.135643
    43  H    0.136562
    44  H    0.137521
    45  H    0.149042
    46  H    0.131333
 Sum of Mulliken charges =  -0.00000

 Dipole moment (field-independent basis, Debye):
    X=              3.5341    Y=              0.1654    Z=              0.7233  Tot=              3.6111
 Quadrupole moment (field-independent basis, Debye-Ang):
   XX=           -142.3545   YY=           -123.7556   ZZ=           -137.0083
   XY=             -7.2951   XZ=              0.6231   YZ=              1.4527

 Normal termination of Gaussian 16 at Fri Nov  4 20:01:17 2022.
