 Gaussian 16, Revision B.01,
 Gaussian 16:  ES64L-G16RevB.01 20-Dec-2017

 -------------------------------------------------------------------
 #p b3lyp/6-31g(d) 6D 10F nosymm GFInput td=(50-50,nstate=2) SCF=XQC
 -------------------------------------------------------------------

 ------------------------------
 Gaussian input prepared by ASE
 ------------------------------
 Symbolic Z-matrix:
 Charge =  0 Multiplicity = 1

                          Input orientation:
 ---------------------------------------------------------------------
 Center     Atomic      Atomic             Coordinates (Angstroms)
 Number     Number       Type             X           Y           Z
 ---------------------------------------------------------------------
      1          6           0       -5.497619   -0.404410    1.194288
      2          6           0       -4.854627    0.243851   -0.006316
      3          7           0       -5.607936    0.370794   -1.109370
      4          6           0       -5.080240    0.966666   -2.185405
      5          6           0       -3.786240    1.482165   -2.223289
      6          6           0       -2.994907    1.356192   -1.082932
      7          6           0       -3.528389    0.720373    0.037465
      8          8           0       -2.793444    0.635454    1.198694
      9          6           0       -2.062652   -0.613034    1.427173
     10          6           0       -1.571381   -0.536444    2.881225
     11          6           0       -0.267189    0.212440    3.063492
     12          7           0        0.656089    0.301233    2.171993
     13          6           0        0.348222   -0.279822    0.954003
     14          6           0       -0.881190   -0.760944    0.521544
     15          6           0       -0.698430   -1.228772   -0.804538
     16          6           0        0.632291   -1.024158   -1.125932
     17          7           0        1.271479   -0.436891   -0.055816
     18          6           0        2.687629   -0.061794    0.029262
     19          6           0        3.610100   -1.291322   -0.051286
     20          6           0        5.086998   -0.881740    0.067361
     21          6           0        5.467851    0.172887   -0.982873
     22          6           0        4.538469    1.393795   -0.908812
     23          6           0        3.060664    0.988806   -1.031731
     24          1           0       -6.583119   -0.384985    1.073895
     25          1           0       -5.217711    0.110260    2.118870
     26          1           0       -5.192594   -1.454289    1.299523
     27          1           0       -5.732432    1.044236   -3.054028
     28          1           0       -3.409975    1.971552   -3.117109
     29          1           0       -1.981645    1.741186   -1.039066
     30          1           0       -2.772666   -1.440831    1.315684
     31          1           0       -2.355467   -0.102526    3.509927
     32          1           0       -1.405623   -1.564473    3.242829
     33          1           0       -0.071050    0.664659    4.036807
     34          1           0       -1.443806   -1.666038   -1.455463
     35          1           0        1.171538   -1.260262   -2.031470
     36          1           0        2.793885    0.390933    1.020432
     37          1           0        3.339164   -2.002190    0.738349
     38          1           0        3.448118   -1.804244   -1.009997
     39          1           0        5.268974   -0.474345    1.072602
     40          1           0        5.726815   -1.767546   -0.029343
     41          1           0        5.400599   -0.273693   -1.986061
     42          1           0        6.511802    0.482270   -0.848180
     43          1           0        4.692786    1.909504    0.050209
     44          1           0        4.791667    2.116389   -1.694353
     45          1           0        2.407609    1.862762   -0.923455
     46          1           0        2.877581    0.576347   -2.034080
 ---------------------------------------------------------------------

 SCF Done:  E(RB3LYP) =  -977.338894065     A.U. after   14 cycles

 Excitation energies and oscillator strengths:

 Excited state symmetry could not be determined.
 Excited State   1:      Triplet-?Sym    2.5872 eV  479.22 nm  f=0.0000  <S**2>=2.000
      83 -> 84         0.69003
 This state for optimization and/or second-order correction.
 Total Energy, E(TD-HF/TD-DFT) =  -977.243815126
 Copying the excited state density for this state as the 1-particle RhoCI density.

 Excited state symmetry could not be determined.
 Excited State   2:      Triplet-?Sym    3.7987 eV  326.39 nm  f=0.0000  <S**2>=2.000
      78 -> 85         0.35883
      80 -> 86         0.22089
      81 -> 86        -0.40145
      82 -> 86        -0.34201
      83 -> 86        -0.16382

 Excited state symmetry could not be determined.
 Excited State   3:      Singlet-?Sym    4.1682 eV  297.45 nm  f=0.1520  <S**2>=0.000
      79 -> 84         0.10127
      83 -> 84         0.69110

 Excited state symmetry could not be determined.
 Excited State   4:      Singlet-?Sym    4.4586 eV  278.08 nm  f=0.0026  <S**2>=0.000
      83 -> 85         0.70130

 Alpha  occ. eigenvalues --  -19.15591 -14.38032 -14.33524 -14.31725 -10.25047
 Alpha  occ. eigenvalues --  -10.23569 -10.23047 -10.22803 -10.22656 -10.21865
 Alpha  occ. eigenvalues --  -10.20966 -10.20593 -10.19899 -10.19350 -10.18876
 Alpha  occ. eigenvalues --  -10.18828 -10.18826 -10.18700 -10.18687 -10.18539
 Alpha  occ. eigenvalues --  -10.17433 -10.17355 -10.17183  -1.04049  -0.99173
 Alpha  occ. eigenvalues --   -0.92870  -0.92494  -0.84251  -0.80759  -0.78938
 Alpha  occ. eigenvalues --   -0.77701  -0.75484  -0.74775  -0.72918  -0.72185
 Alpha  occ. eigenvalues --   -0.69033  -0.64804  -0.62587  -0.61763  -0.61047
 Alpha  occ. eigenvalues --   -0.60666  -0.59663  -0.57714  -0.55174  -0.53153
 Alpha  occ. eigenvalues --   -0.51550  -0.49834  -0.48847  -0.48509  -0.47582
 Alpha  occ. eigenvalues --   -0.46172  -0.45010  -0.44929  -0.44217  -0.43467
 Alpha  occ. eigenvalues --   -0.42946  -0.42385  -0.42220  -0.41275  -0.40163
 Alpha  occ. eigenvalues --   -0.40010  -0.40007  -0.39676  -0.38807  -0.38509
 Alpha  occ. eigenvalues --   -0.37264  -0.37088  -0.36457  -0.36074  -0.35126
 Alpha  occ. eigenvalues --   -0.34875  -0.33682  -0.32797  -0.32651  -0.31770
 Alpha  occ. eigenvalues --   -0.30750  -0.28222  -0.26905  -0.25909  -0.24022
 Alpha  occ. eigenvalues --   -0.23693  -0.23023  -0.19577
 Alpha virt. eigenvalues --   -0.02861  -0.01014   0.00220   0.05405   0.07931
 Alpha virt. eigenvalues --    0.08410   0.09353   0.09388   0.11230   0.11713
 Alpha virt. eigenvalues --    0.12526   0.12984   0.13643   0.13928   0.14400

 Mulliken charges:
               1
     1  C   -0.513105
     2  C    0.274405
     3  N   -0.475722
     4  C    0.034631
     5  C   -0.156038
     6  C   -0.119474
     7  C    0.308825
     8  O   -0.550152
     9  C    0.042232
    10  C   -0.350207
    11  C    0.066253
    12  N   -0.445481
    13  C    0.417307
    14  C    0.104323
    15  C   -0.254572
    16  C    0.024471
    17  N   -0.463415
    18  C    0.010783
    19  C   -0.259907
    20  C   -0.265067
    21  C   -0.258572
    22  C   -0.265224
    23  C   -0.262667
    24  H    0.173074
    25  H    0.165199
    26  H    0.156538
    27  H    0.134663
    28  H    0.132695
    29  H    0.152103
    30  H    0.136489
    31  H    0.169637
    32  H    0.171529
    33  H    0.140755
    34  H    0.132918
    35  H    0.146188
    36  H    0.172668
    37  H    0.147028
    38  H    0.131734
    39  H    0.135931
    40  H    0.137387
    41  H    0.129737
    42  H    0.135641
    43  H    0.136562
    44  H    0.137521
    45  H    0.149043
    46  H    0.131331
 Sum of Mulliken charges =  -0.00000

 Dipole moment (field-independent basis, Debye):
    X=              3.4903    Y=             -0.9200    Z=             -0.1022  Tot=              3.6110
 Quadrupole moment (field-independent basis, Debye-Ang):
   XX=           -145.4169   YY=           -135.4814   ZZ=           -125.2980
   XY=              2.2541   XZ=             -6.7480   YZ=             -4.4956

 Normal termination of Gaussian 16 at Sat Nov  5 12:10:26 2022.
