 Gaussian 16, Revision B.01,
 Gaussian 16:  ES64L-G16RevB.01 20-Dec-2017

 -------------------------------------------------------------------
 #p b3lyp/6-31g(d) 6D 10F nosymm GFInput td=(50-50,nstate=2) SCF=XQC
 -------------------------------------------------------------------

 ------------------------------
 Gaussian input prepared by ASE
 ------------------------------
 Symbolic Z-matrix:
 Charge =  0 Multiplicity = 1

                          Input orientation:
 ---------------------------------------------------------------------
 Center     Atomic      Atomic             Coordinates (Angstroms)
 Number     Number       Type             X           Y           Z
 ---------------------------------------------------------------------
      1          6           0       -3.511347    2.831931    1.303638
      2          6           0       -3.105366    2.466782   -0.089777
      3          7           0       -3.160988    3.358950   -1.052808
      4          8           0       -2.685960    2.702005   -2.199545
      5          6           0       -2.360462    1.431448   -1.884482
      6          6           0       -1.774726    0.590358   -2.968384
      7          6           0       -2.614841    1.208772   -0.561014
      8          6           0       -2.376082   -0.053382    0.213277
      9          6           0       -0.983861   -0.049164    0.855440
     10          8           0       -0.460956    0.985934    1.248778
     11          7           0       -0.270176   -1.233567    0.890862
     12          6           0       -0.692297   -2.584219    0.880123
     13          6           0       -1.982461   -3.119206    0.918127
     14          6           0       -2.124763   -4.511644    0.932358
     15          6           0       -1.014507   -5.355121    0.929454
     16          6           0        0.274113   -4.807774    0.923147
     17          6           0        0.428322   -3.429287    0.904664
     18          6           0        1.693077   -2.607196    0.890935
     19          6           0        1.190110   -1.159092    1.159562
     20          6           0        1.856551   -0.138425    0.286878
     21          7           0        1.825974   -0.040259   -1.001972
     22          7           0        2.627639    1.058222   -1.331276
     23          6           0        3.084876    1.525569   -0.209830
     24          6           0        3.966777    2.673737    0.025002
     25          6           0        3.784616    3.925936   -0.820941
     26          6           0        4.981727    3.055629   -1.040000
     27          8           0        2.644039    0.809526    0.866248
     28          1           0       -3.835967    3.874765    1.339769
     29          1           0       -4.335587    2.200142    1.657803
     30          1           0       -2.665927    2.696265    1.986678
     31          1           0       -2.016896    1.011681   -3.947692
     32          1           0       -0.683170    0.533673   -2.873293
     33          1           0       -2.163310   -0.432922   -2.923070
     34          1           0       -2.483770   -0.921438   -0.443128
     35          1           0       -3.126056   -0.159998    1.009053
     36          1           0       -2.864301   -2.493470    0.961014
     37          1           0       -3.125081   -4.934692    0.960424
     38          1           0       -1.147806   -6.432633    0.946812
     39          1           0        1.147269   -5.455200    0.939416
     40          1           0        2.184164   -2.656688   -0.087736
     41          1           0        2.421770   -2.920013    1.645165
     42          1           0        1.353279   -0.864866    2.201599
     43          1           0        4.245538    2.806789    1.065114
     44          1           0        3.912485    4.880995   -0.319758
     45          1           0        2.990851    3.895521   -1.560697
     46          1           0        5.001077    2.434955   -1.930453
     47          1           0        5.952416    3.400668   -0.695480
 ---------------------------------------------------------------------

 SCF Done:  E(RB3LYP) =  -1218.77288796     A.U. after   15 cycles

 Excitation energies and oscillator strengths:

 Excited state symmetry could not be determined.
 Excited State   1:      Triplet-?Sym    3.4359 eV  360.85 nm  f=0.0000  <S**2>=2.000
      93 -> 97        -0.16610
      93 -> 98         0.26192
      96 -> 97         0.51057
      96 -> 98         0.25838
      96 -> 99         0.16027
      96 ->101        -0.10834
 This state for optimization and/or second-order correction.
 Total Energy, E(TD-HF/TD-DFT) =  -1218.64661988
 Copying the excited state density for this state as the 1-particle RhoCI density.

 Excited state symmetry could not be determined.
 Excited State   2:      Triplet-?Sym    3.9644 eV  312.75 nm  f=0.0000  <S**2>=2.000
      93 -> 98         0.17921
      95 -> 98        -0.10965
      96 -> 97        -0.39541
      96 -> 98         0.51457

 Excited state symmetry could not be determined.
 Excited State   3:      Singlet-?Sym    4.7262 eV  262.33 nm  f=0.0966  <S**2>=0.000
      93 -> 97         0.17073
      93 -> 98         0.13523
      96 -> 97         0.53697
      96 -> 98        -0.37020

 Excited state symmetry could not be determined.
 Excited State   4:      Singlet-?Sym    4.8391 eV  256.22 nm  f=0.0099  <S**2>=0.000
      91 -> 97         0.16623
      92 -> 97         0.10412
      93 -> 97        -0.10451
      94 -> 97         0.11950
      95 -> 97         0.50739
      96 -> 97         0.22010
      96 -> 98         0.30848

 Alpha  occ. eigenvalues --  -19.23739 -19.21368 -19.13039 -14.39075 -14.35607
 Alpha  occ. eigenvalues --  -14.35507 -14.34949 -10.30299 -10.28394 -10.28365
 Alpha  occ. eigenvalues --  -10.26358 -10.24712 -10.24489 -10.21883 -10.21546
 Alpha  occ. eigenvalues --  -10.21445 -10.21334 -10.20935 -10.20595 -10.20450
 Alpha  occ. eigenvalues --  -10.20399 -10.20193 -10.20127 -10.19883 -10.19149
 Alpha  occ. eigenvalues --  -10.18646 -10.18241  -1.15673  -1.11776  -1.05298
 Alpha  occ. eigenvalues --   -0.97537  -0.97099  -0.88386  -0.86180  -0.85969
 Alpha  occ. eigenvalues --   -0.83849  -0.81683  -0.80233  -0.75974  -0.75318
 Alpha  occ. eigenvalues --   -0.74215  -0.71254  -0.69891  -0.68550  -0.66826
 Alpha  occ. eigenvalues --   -0.65204  -0.61078  -0.60817  -0.60407  -0.58428
 Alpha  occ. eigenvalues --   -0.57683  -0.56537  -0.54850  -0.52489  -0.51525
 Alpha  occ. eigenvalues --   -0.51275  -0.50077  -0.49811  -0.48922  -0.48095
 Alpha  occ. eigenvalues --   -0.47795  -0.46066  -0.45737  -0.45124  -0.44734
 Alpha  occ. eigenvalues --   -0.44554  -0.42759  -0.42231  -0.41869  -0.41550
 Alpha  occ. eigenvalues --   -0.40824  -0.40748  -0.40311  -0.39701  -0.39473
 Alpha  occ. eigenvalues --   -0.39087  -0.38853  -0.37825  -0.37425  -0.36537
 Alpha  occ. eigenvalues --   -0.36448  -0.35620  -0.35173  -0.33898  -0.33064
 Alpha  occ. eigenvalues --   -0.31870  -0.31639  -0.31146  -0.28472  -0.27463
 Alpha  occ. eigenvalues --   -0.27194  -0.26635  -0.26122  -0.24836  -0.23375
 Alpha  occ. eigenvalues --   -0.22186
 Alpha virt. eigenvalues --   -0.02663  -0.01754  -0.00598   0.01000   0.02114
 Alpha virt. eigenvalues --    0.02830   0.06805   0.07857   0.08221   0.09094
 Alpha virt. eigenvalues --    0.09319   0.10412   0.11485   0.12051   0.12279

 Mulliken charges:
               1
     1  C   -0.533870
     2  C    0.324941
     3  N   -0.241652
     4  O   -0.377829
     5  C    0.386480
     6  C   -0.545531
     7  C    0.007925
     8  C   -0.494139
     9  C    0.621304
    10  O   -0.499554
    11  N   -0.586536
    12  C    0.348560
    13  C   -0.163791
    14  C   -0.144966
    15  C   -0.129839
    16  C   -0.202964
    17  C    0.087719
    18  C   -0.363452
    19  C   -0.027349
    20  C    0.547127
    21  N   -0.349891
    22  N   -0.364843
    23  C    0.562557
    24  C   -0.201987
    25  C   -0.299693
    26  C   -0.304649
    27  O   -0.464828
    28  H    0.179227
    29  H    0.154619
    30  H    0.188441
    31  H    0.181111
    32  H    0.213575
    33  H    0.166078
    34  H    0.176650
    35  H    0.178839
    36  H    0.146215
    37  H    0.136850
    38  H    0.134196
    39  H    0.134521
    40  H    0.194800
    41  H    0.169975
    42  H    0.186487
    43  H    0.164978
    44  H    0.164699
    45  H    0.190544
    46  H    0.187331
    47  H    0.161613
 Sum of Mulliken charges =  -0.00000

 Dipole moment (field-independent basis, Debye):
    X=              1.9498    Y=             -4.6041    Z=              3.1068  Tot=              5.8866
 Quadrupole moment (field-independent basis, Debye-Ang):
   XX=           -140.1789   YY=           -150.8791   ZZ=           -157.7756
   XY=             17.3526   XZ=             -0.0407   YZ=              3.8896

 Normal termination of Gaussian 16 at Sat Nov  5 12:09:01 2022.
