 Gaussian 16, Revision B.01,
 Gaussian 16:  ES64L-G16RevB.01 20-Dec-2017

 -----------------------------
 #p b3lyp/6-31g(d) opt SCF=XQC
 -----------------------------

 ------------------------------
 Gaussian input prepared by ASE
 ------------------------------
 Symbolic Z-matrix:
 Charge =  0 Multiplicity = 1

 SCF Done:  E(RB3LYP) =  -1218.76178798     A.U. after   15 cycles
 SCF Done:  E(RB3LYP) =  -1218.76879416     A.U. after   15 cycles
 SCF Done:  E(RB3LYP) =  -1218.76955170     A.U. after   13 cycles
 SCF Done:  E(RB3LYP) =  -1218.77198218     A.U. after   13 cycles
 SCF Done:  E(RB3LYP) =  -1218.77248718     A.U. after   12 cycles
 SCF Done:  E(RB3LYP) =  -1218.77274692     A.U. after   12 cycles
 SCF Done:  E(RB3LYP) =  -1218.77280857     A.U. after   11 cycles
 SCF Done:  E(RB3LYP) =  -1218.77283785     A.U. after   10 cycles
 SCF Done:  E(RB3LYP) =  -1218.77285157     A.U. after   10 cycles
 SCF Done:  E(RB3LYP) =  -1218.77286640     A.U. after   10 cycles
 SCF Done:  E(RB3LYP) =  -1218.77288592     A.U. after    9 cycles
 SCF Done:  E(RB3LYP) =  -1218.77288873     A.U. after   10 cycles
 SCF Done:  E(RB3LYP) =  -1218.77289115     A.U. after   10 cycles
 SCF Done:  E(RB3LYP) =  -1218.77289233     A.U. after   10 cycles
 SCF Done:  E(RB3LYP) =  -1218.77289312     A.U. after   10 cycles
 SCF Done:  E(RB3LYP) =  -1218.77289355     A.U. after    9 cycles
 SCF Done:  E(RB3LYP) =  -1218.77289372     A.U. after    8 cycles
 SCF Done:  E(RB3LYP) =  -1218.77289394     A.U. after    8 cycles
 SCF Done:  E(RB3LYP) =  -1218.77289415     A.U. after    8 cycles
 SCF Done:  E(RB3LYP) =  -1218.77289420     A.U. after    7 cycles
 Optimization completed.
    -- Stationary point found.

                         Standard orientation:
 ---------------------------------------------------------------------
 Center     Atomic      Atomic             Coordinates (Angstroms)
 Number     Number       Type             X           Y           Z
 ---------------------------------------------------------------------
      1          6           0       -0.428904    4.101657   -2.155861
      2          6           0       -0.607894    3.808410   -0.699246
      3          7           0       -1.547874    4.415440   -0.010452
      4          8           0       -1.458213    3.890138    1.288877
      5          6           0       -0.462140    2.981776    1.336238
      6          6           0       -0.254708    2.266221    2.628646
      7          6           0        0.131202    2.889088    0.109365
      8          6           0        1.259348    1.985727   -0.291621
      9          6           0        0.729712    0.660075   -0.850909
     10          8           0       -0.318438    0.601864   -1.481438
     11          7           0        1.407796   -0.504852   -0.540170
     12          6           0        2.758737   -0.739432   -0.190183
     13          6           0        3.837614    0.147011   -0.140981
     14          6           0        5.096276   -0.356180    0.208167
     15          6           0        5.286499   -1.709912    0.482676
     16          6           0        4.204572   -2.594617    0.399599
     17          6           0        2.951235   -2.107460    0.058761
     18          6           0        1.644712   -2.846507   -0.091017
     19          6           0        0.706166   -1.797748   -0.755381
     20          6           0       -0.668018   -1.781871   -0.156342
     21          7           0       -1.012062   -1.500529    1.057819
     22          7           0       -2.401141   -1.657128    1.118682
     23          6           0       -2.778405   -2.031689   -0.065588
     24          6           0       -4.127772   -2.328501   -0.557824
     25          6           0       -5.289658   -1.467627   -0.082724
     26          6           0       -5.164006   -2.874419    0.410879
     27          8           0       -1.728147   -2.141987   -0.931494
     28          1           0       -1.156234    4.849575   -2.481125
     29          1           0        0.578102    4.483785   -2.365337
     30          1           0       -0.570099    3.186696   -2.741176
     31          1           0       -0.707655    2.828120    3.449811
     32          1           0       -0.705879    1.266551    2.599429
     33          1           0        0.812943    2.140179    2.839332
     34          1           0        1.911166    1.797285    0.566055
     35          1           0        1.877151    2.466596   -1.062446
     36          1           0        3.732896    1.195742   -0.386388
     37          1           0        5.939515    0.327636    0.249850
     38          1           0        6.272884   -2.079974    0.745740
     39          1           0        4.344546   -3.655126    0.593394
     40          1           0        1.244361   -3.140318    0.886126
     41          1           0        1.725408   -3.750194   -0.703021
     42          1           0        0.599691   -1.978891   -1.830036
     43          1           0       -4.152209   -2.683290   -1.582896
     44          1           0       -6.058410   -1.232470   -0.813063
     45          1           0       -5.043476   -0.663422    0.603479
     46          1           0       -4.833634   -3.025044    1.433955
     47          1           0       -5.847129   -3.628089    0.029685
 ---------------------------------------------------------------------

 The electronic state is 1-A.
 Alpha  occ. eigenvalues --  -19.23739 -19.21368 -19.13040 -14.39075 -14.35607
 Alpha  occ. eigenvalues --  -14.35507 -14.34949 -10.30299 -10.28394 -10.28365
 Alpha  occ. eigenvalues --  -10.26358 -10.24712 -10.24489 -10.21883 -10.21546
 Alpha  occ. eigenvalues --  -10.21445 -10.21334 -10.20936 -10.20595 -10.20450
 Alpha  occ. eigenvalues --  -10.20399 -10.20193 -10.20127 -10.19883 -10.19149
 Alpha  occ. eigenvalues --  -10.18646 -10.18241  -1.15672  -1.11776  -1.05298
 Alpha  occ. eigenvalues --   -0.97537  -0.97099  -0.88386  -0.86180  -0.85969
 Alpha  occ. eigenvalues --   -0.83849  -0.81683  -0.80233  -0.75974  -0.75318
 Alpha  occ. eigenvalues --   -0.74215  -0.71254  -0.69891  -0.68550  -0.66826
 Alpha  occ. eigenvalues --   -0.65204  -0.61078  -0.60817  -0.60407  -0.58428
 Alpha  occ. eigenvalues --   -0.57683  -0.56537  -0.54850  -0.52489  -0.51525
 Alpha  occ. eigenvalues --   -0.51275  -0.50077  -0.49811  -0.48922  -0.48095
 Alpha  occ. eigenvalues --   -0.47795  -0.46066  -0.45737  -0.45124  -0.44734
 Alpha  occ. eigenvalues --   -0.44554  -0.42759  -0.42231  -0.41869  -0.41550
 Alpha  occ. eigenvalues --   -0.40824  -0.40748  -0.40311  -0.39701  -0.39473
 Alpha  occ. eigenvalues --   -0.39087  -0.38853  -0.37825  -0.37425  -0.36537
 Alpha  occ. eigenvalues --   -0.36448  -0.35620  -0.35173  -0.33898  -0.33064
 Alpha  occ. eigenvalues --   -0.31870  -0.31639  -0.31147  -0.28472  -0.27463
 Alpha  occ. eigenvalues --   -0.27194  -0.26635  -0.26123  -0.24836  -0.23375
 Alpha  occ. eigenvalues --   -0.22186
 Alpha virt. eigenvalues --   -0.02663  -0.01754  -0.00598   0.01000   0.02114
 Alpha virt. eigenvalues --    0.02830   0.06805   0.07857   0.08221   0.09094
 Alpha virt. eigenvalues --    0.09319   0.10412   0.11485   0.12051   0.12279

 Mulliken charges:
               1
     1  C   -0.533870
     2  C    0.324922
     3  N   -0.241648
     4  O   -0.377828
     5  C    0.386462
     6  C   -0.545531
     7  C    0.007966
     8  C   -0.494152
     9  C    0.621286
    10  O   -0.499556
    11  N   -0.586524
    12  C    0.348562
    13  C   -0.163798
    14  C   -0.144961
    15  C   -0.129844
    16  C   -0.202965
    17  C    0.087722
    18  C   -0.363455
    19  C   -0.027343
    20  C    0.547124
    21  N   -0.349889
    22  N   -0.364848
    23  C    0.562566
    24  C   -0.201994
    25  C   -0.299694
    26  C   -0.304647
    27  O   -0.464827
    28  H    0.179227
    29  H    0.154620
    30  H    0.188441
    31  H    0.181110
    32  H    0.213578
    33  H    0.166077
    34  H    0.176651
    35  H    0.178843
    36  H    0.146218
    37  H    0.136850
    38  H    0.134197
    39  H    0.134521
    40  H    0.194802
    41  H    0.169976
    42  H    0.186487
    43  H    0.164979
    44  H    0.164700
    45  H    0.190545
    46  H    0.187330
    47  H    0.161614
 Sum of Mulliken charges =  -0.00000

 Dipole moment (field-independent basis, Debye):
    X=              3.6618    Y=             -4.2889    Z=             -1.6879  Tot=              5.8866
 Quadrupole moment (field-independent basis, Debye-Ang):
   XX=           -135.8046   YY=           -156.7287   ZZ=           -155.6771
   XY=             14.6084   XZ=              5.6488   YZ=              1.3951

 Normal termination of Gaussian 16 at Fri Nov  4 20:24:14 2022.
