 Gaussian 16, Revision B.01,
 Gaussian 16:  ES64L-G16RevB.01 20-Dec-2017

 -----------------------------
 #p b3lyp/6-31g(d) opt SCF=XQC
 -----------------------------

 ------------------------------
 Gaussian input prepared by ASE
 ------------------------------
 Symbolic Z-matrix:
 Charge =  0 Multiplicity = 1

 SCF Done:  E(RB3LYP) =  -1775.67099052     A.U. after   15 cycles
 SCF Done:  E(RB3LYP) =  -1775.67894967     A.U. after   13 cycles
 SCF Done:  E(RB3LYP) =  -1775.68059083     A.U. after   12 cycles
 SCF Done:  E(RB3LYP) =  -1775.68096709     A.U. after   13 cycles
 SCF Done:  E(RB3LYP) =  -1775.68124608     A.U. after   11 cycles
 SCF Done:  E(RB3LYP) =  -1775.68132859     A.U. after   11 cycles
 SCF Done:  E(RB3LYP) =  -1775.68139301     A.U. after   11 cycles
 SCF Done:  E(RB3LYP) =  -1775.68147861     A.U. after   12 cycles
 SCF Done:  E(RB3LYP) =  -1775.68154582     A.U. after   12 cycles
 SCF Done:  E(RB3LYP) =  -1775.68158237     A.U. after   12 cycles
 SCF Done:  E(RB3LYP) =  -1775.68495671     A.U. after    8 cycles
 SCF Done:  E(RB3LYP) =  -1775.68495694     A.U. after    8 cycles
 SCF Done:  E(RB3LYP) =  -1775.68495699     A.U. after    7 cycles
 SCF Done:  E(RB3LYP) =  -1775.68495701     A.U. after    7 cycles
 SCF Done:  E(RB3LYP) =  -1775.68495705     A.U. after    6 cycles
 SCF Done:  E(RB3LYP) =  -1775.68495712     A.U. after    7 cycles
 SCF Done:  E(RB3LYP) =  -1775.68495720     A.U. after    7 cycles
 SCF Done:  E(RB3LYP) =  -1775.68495727     A.U. after    7 cycles
 SCF Done:  E(RB3LYP) =  -1775.68495733     A.U. after    8 cycles
 SCF Done:  E(RB3LYP) =  -1775.68495737     A.U. after    7 cycles
 Optimization completed.
    -- Stationary point found.

                         Standard orientation:
 ---------------------------------------------------------------------
 Center     Atomic      Atomic             Coordinates (Angstroms)
 Number     Number       Type             X           Y           Z
 ---------------------------------------------------------------------
      1          6           0       -2.005722   -0.427355    1.379903
      2          6           0       -2.276153    0.732636    0.473074
      3          6           0       -1.473723    1.808421    0.117088
      4          6           0       -0.031687    2.070120    0.499458
      5          6           0        0.129984    3.391835    1.262731
      6          7           0        0.912168    2.079140   -0.637955
      7          6           0        0.940871    0.857703   -1.445741
      8          6           0        1.551392   -0.298626   -0.719683
      9          6           0        1.207837   -1.617075   -0.616004
     10          6           0        2.250160   -2.260281    0.123908
     11          6           0        3.152865   -1.285209    0.438252
     12         16           0        4.596928   -1.310769    1.441514
     13          6           0        5.865566   -0.905606    0.270307
     14          7           0        6.672185   -1.770559   -0.309546
     15          7           0        7.546710   -1.055006   -1.094209
     16          6           0        7.236700    0.215100   -0.956481
     17          7           0        6.187340    0.381526   -0.103735
     18          6           0        5.563046    1.634447    0.308463
     19          8           0        2.732116   -0.078197   -0.065563
     20          6           0       -2.308267    2.614814   -0.699681
     21          7           0       -3.521962    2.104535   -0.854017
     22          7           0       -3.491991    0.943045   -0.138064
     23          6           0       -4.676301    0.168616   -0.058860
     24          6           0       -5.890265    0.772779    0.288070
     25          6           0       -7.071088    0.037076    0.336054
     26          6           0       -7.022901   -1.321201    0.037840
     27          9           0       -8.154351   -2.046813    0.093302
     28          6           0       -5.841285   -1.958898   -0.320776
     29          6           0       -4.684877   -1.192391   -0.380570
     30          9           0       -3.540437   -1.788414   -0.769668
     31          1           0       -1.160392   -0.203002    2.034869
     32          1           0       -1.765956   -1.339672    0.825125
     33          1           0       -2.872605   -0.644157    2.014230
     34          1           0        0.301472    1.258682    1.157323
     35          1           0        1.176749    3.537060    1.546878
     36          1           0       -0.177958    4.244615    0.644215
     37          1           0       -0.491017    3.398286    2.164082
     38          1           0        0.683371    2.861300   -1.249819
     39          1           0       -0.050783    0.529126   -1.800705
     40          1           0        1.541467    1.082989   -2.337800
     41          1           0        0.325149   -2.077766   -1.038504
     42          1           0        2.330318   -3.305831    0.384750
     43          1           0        7.733476    1.041335   -1.447158
     44          1           0        4.506971    1.644055    0.031783
     45          1           0        5.650709    1.760314    1.390907
     46          1           0        6.082063    2.455287   -0.190487
     47          1           0       -2.069926    3.554194   -1.184463
     48          1           0       -5.889064    1.834493    0.507149
     49          1           0       -8.015859    0.496466    0.603986
     50          1           0       -5.820921   -3.013037   -0.570215
 ---------------------------------------------------------------------

 The electronic state is 1-A.
 Alpha  occ. eigenvalues --  -88.90727 -24.73315 -24.72299 -19.22331 -14.42051
 Alpha  occ. eigenvalues --  -14.41185 -14.35165 -14.34279 -14.33953 -14.33119
 Alpha  occ. eigenvalues --  -10.30200 -10.29661 -10.26654 -10.26600 -10.25476
 Alpha  occ. eigenvalues --  -10.25025 -10.24903 -10.24221 -10.23545 -10.22960
 Alpha  occ. eigenvalues --  -10.22808 -10.22317 -10.21945 -10.21527 -10.20870
 Alpha  occ. eigenvalues --  -10.20143 -10.20079 -10.19590 -10.18603 -10.18338
 Alpha  occ. eigenvalues --   -7.96705  -5.93263  -5.92854  -5.92153  -1.24464
 Alpha  occ. eigenvalues --   -1.23564  -1.11762  -1.06216  -1.05247  -0.92803
 Alpha  occ. eigenvalues --   -0.91829  -0.89657  -0.84464  -0.83562  -0.81541
 Alpha  occ. eigenvalues --   -0.80939  -0.79093  -0.77947  -0.76701  -0.74387
 Alpha  occ. eigenvalues --   -0.73935  -0.72270  -0.71066  -0.66160  -0.65677
 Alpha  occ. eigenvalues --   -0.65127  -0.63181  -0.62701  -0.60940  -0.59431
 Alpha  occ. eigenvalues --   -0.58588  -0.57575  -0.56841  -0.55799  -0.53689
 Alpha  occ. eigenvalues --   -0.53388  -0.51973  -0.51410  -0.50185  -0.49639
 Alpha  occ. eigenvalues --   -0.49063  -0.48581  -0.47482  -0.47268  -0.47112
 Alpha  occ. eigenvalues --   -0.46253  -0.46133  -0.45947  -0.45767  -0.44987
 Alpha  occ. eigenvalues --   -0.44071  -0.43615  -0.43139  -0.42785  -0.42406
 Alpha  occ. eigenvalues --   -0.42050  -0.41522  -0.41208  -0.40892  -0.39610
 Alpha  occ. eigenvalues --   -0.39238  -0.38663  -0.38131  -0.37943  -0.37536
 Alpha  occ. eigenvalues --   -0.36857  -0.36619  -0.36348  -0.35319  -0.30996
 Alpha  occ. eigenvalues --   -0.29334  -0.28930  -0.28857  -0.28461  -0.27470
 Alpha  occ. eigenvalues --   -0.27362  -0.25742  -0.25029  -0.24654  -0.24536
 Alpha  occ. eigenvalues --   -0.22949  -0.22472
 Alpha virt. eigenvalues --   -0.03203  -0.02238  -0.01462  -0.00529   0.01761
 Alpha virt. eigenvalues --    0.03897   0.04501   0.05673   0.06265   0.07638
 Alpha virt. eigenvalues --    0.07775   0.08640   0.09140   0.09362   0.10615

 Mulliken charges:
               1
     1  C   -0.531416
     2  C    0.342613
     3  C   -0.003582
     4  C   -0.070500
     5  C   -0.443134
     6  N   -0.535979
     7  C   -0.222224
     8  C    0.358827
     9  C   -0.211928
    10  C   -0.171067
    11  C    0.104227
    12  S    0.184192
    13  C    0.217126
    14  N   -0.285512
    15  N   -0.299701
    16  C    0.211108
    17  N   -0.378495
    18  C   -0.338301
    19  O   -0.439124
    20  C    0.008906
    21  N   -0.299286
    22  N   -0.416621
    23  C    0.218345
    24  C   -0.133559
    25  C   -0.210565
    26  C    0.401197
    27  F   -0.289467
    28  C   -0.286042
    29  C    0.376034
    30  F   -0.285916
    31  H    0.173727
    32  H    0.183642
    33  H    0.166659
    34  H    0.146326
    35  H    0.157268
    36  H    0.138698
    37  H    0.151753
    38  H    0.294588
    39  H    0.149834
    40  H    0.160277
    41  H    0.149224
    42  H    0.163134
    43  H    0.170236
    44  H    0.221933
    45  H    0.190294
    46  H    0.170852
    47  H    0.135917
    48  H    0.174476
    49  H    0.159829
    50  H    0.171178
 Sum of Mulliken charges =  -0.00000

 Dipole moment (field-independent basis, Debye):
    X=             -4.4560    Y=              4.3585    Z=              1.4037  Tot=              6.3893
 Quadrupole moment (field-independent basis, Debye-Ang):
   XX=           -212.0168   YY=           -174.3666   ZZ=           -177.6521
   XY=             36.4245   XZ=             -0.8655   YZ=             -2.7311

 Normal termination of Gaussian 16 at Fri Nov  4 20:53:25 2022.
