 Gaussian 16, Revision B.01,
 Gaussian 16:  ES64L-G16RevB.01 20-Dec-2017

 -------------------------------------------------------------------
 #p b3lyp/6-31g(d) 6D 10F nosymm GFInput td=(50-50,nstate=2) SCF=XQC
 -------------------------------------------------------------------

 ------------------------------
 Gaussian input prepared by ASE
 ------------------------------
 Symbolic Z-matrix:
 Charge =  0 Multiplicity = 1

                          Input orientation:
 ---------------------------------------------------------------------
 Center     Atomic      Atomic             Coordinates (Angstroms)
 Number     Number       Type             X           Y           Z
 ---------------------------------------------------------------------
      1          6           0       -2.075332    1.060418   -0.954555
      2          6           0       -2.225967   -0.297151   -0.341882
      3          6           0       -1.360148   -1.382501   -0.324412
      4          6           0        0.050153   -1.466363   -0.870469
      5          6           0        0.186977   -2.553758   -1.944949
      6          7           0        1.090893   -1.699480    0.152844
      7          6           0        1.150839   -0.709803    1.230895
      8          6           0        1.656185    0.618742    0.765503
      9          6           0        1.261556    1.902794    1.015629
     10          6           0        2.212442    2.760675    0.377289
     11          6           0        3.115353    1.940313   -0.236071
     12         16           0        4.463178    2.284963   -1.311753
     13          6           0        5.843288    1.677268   -0.378303
     14          7           0        6.669202    2.418338    0.331409
     15          7           0        7.632926    1.582241    0.845886
     16          6           0        7.353928    0.368366    0.425277
     17          7           0        6.239166    0.357036   -0.357799
     18          6           0        5.622398   -0.790681   -1.014918
     19          8           0        2.780900    0.626554   -0.012653
     20          6           0       -2.091998   -2.405935    0.331960
     21          7           0       -3.303382   -2.013876    0.700879
     22          7           0       -3.375258   -0.713878    0.291751
     23          6           0       -4.586788   -0.007868    0.497536
     24          6           0       -5.806166   -0.574394    0.108630
     25          6           0       -7.010181    0.086736    0.334807
     26          6           0       -6.980513    1.333216    0.952527
     27          9           0       -8.135707    1.989023    1.165154
     28          6           0       -5.793407    1.927676    1.363474
     29          6           0       -4.611635    1.232536    1.143052
     30          9           0       -3.457465    1.777259    1.576123
     31          1           0       -1.284454    1.046665   -1.708359
     32          1           0       -1.817513    1.823068   -0.213283
     33          1           0       -3.001695    1.377361   -1.446750
     34          1           0        0.296784   -0.503315   -1.332990
     35          1           0        1.208649   -2.569692   -2.336713
     36          1           0       -0.036675   -3.545996   -1.532559
     37          1           0       -0.510922   -2.375395   -2.769110
     38          1           0        0.943117   -2.617450    0.569968
     39          1           0        0.184269   -0.530391    1.731789
     40          1           0        1.835233   -1.111533    1.990801
     41          1           0        0.405100    2.199720    1.605712
     42          1           0        2.234685    3.841018    0.375568
     43          1           0        7.919183   -0.524138    0.657952
     44          1           0        4.595897   -0.923452   -0.667639
     45          1           0        5.617870   -0.646273   -2.098587
     46          1           0        6.210350   -1.678767   -0.774660
     47          1           0       -1.780817   -3.420482    0.551308
     48          1           0       -5.789420   -1.550028   -0.363696
     49          1           0       -7.959337   -0.344200    0.036788
     50          1           0       -5.785743    2.889786    1.861598
 ---------------------------------------------------------------------

 SCF Done:  E(RB3LYP) =  -1775.68495299     A.U. after   15 cycles

 Excitation energies and oscillator strengths:

 Excited state symmetry could not be determined.
 Excited State   1:      Triplet-?Sym    3.4714 eV  357.15 nm  f=0.0000  <S**2>=2.000
     108 ->115        -0.10253
     111 ->115         0.28676
     112 ->115         0.60499
 This state for optimization and/or second-order correction.
 Total Energy, E(TD-HF/TD-DFT) =  -1775.55737984
 Copying the excited state density for this state as the 1-particle RhoCI density.

 Excited state symmetry could not be determined.
 Excited State   2:      Triplet-?Sym    3.6661 eV  338.19 nm  f=0.0000  <S**2>=2.000
     104 ->113        -0.25337
     106 ->113         0.20627
     106 ->114        -0.29591
     109 ->113        -0.26327
     109 ->114        -0.21453
     110 ->113         0.18333
     110 ->114         0.10176
     111 ->113         0.25284
     111 ->114         0.17360
     112 ->113        -0.13110

 Excited state symmetry could not be determined.
 Excited State   3:      Singlet-?Sym    4.7637 eV  260.27 nm  f=0.1034  <S**2>=0.000
     111 ->113        -0.45754
     112 ->113         0.50182

 Excited state symmetry could not be determined.
 Excited State   4:      Singlet-?Sym    4.9218 eV  251.91 nm  f=0.0089  <S**2>=0.000
     111 ->113         0.47059
     112 ->113         0.48859
     112 ->114         0.12842

 Alpha  occ. eigenvalues --  -88.90727 -24.73315 -24.72299 -19.22331 -14.42051
 Alpha  occ. eigenvalues --  -14.41185 -14.35165 -14.34279 -14.33953 -14.33119
 Alpha  occ. eigenvalues --  -10.30200 -10.29661 -10.26654 -10.26599 -10.25476
 Alpha  occ. eigenvalues --  -10.25025 -10.24903 -10.24221 -10.23545 -10.22960
 Alpha  occ. eigenvalues --  -10.22808 -10.22317 -10.21945 -10.21527 -10.20870
 Alpha  occ. eigenvalues --  -10.20143 -10.20078 -10.19590 -10.18603 -10.18338
 Alpha  occ. eigenvalues --   -7.96705  -5.93263  -5.92854  -5.92153  -1.24464
 Alpha  occ. eigenvalues --   -1.23564  -1.11762  -1.06216  -1.05247  -0.92803
 Alpha  occ. eigenvalues --   -0.91829  -0.89657  -0.84464  -0.83562  -0.81541
 Alpha  occ. eigenvalues --   -0.80939  -0.79093  -0.77947  -0.76701  -0.74387
 Alpha  occ. eigenvalues --   -0.73935  -0.72270  -0.71066  -0.66160  -0.65677
 Alpha  occ. eigenvalues --   -0.65127  -0.63181  -0.62701  -0.60940  -0.59431
 Alpha  occ. eigenvalues --   -0.58588  -0.57575  -0.56841  -0.55799  -0.53689
 Alpha  occ. eigenvalues --   -0.53388  -0.51973  -0.51410  -0.50185  -0.49639
 Alpha  occ. eigenvalues --   -0.49063  -0.48581  -0.47482  -0.47268  -0.47112
 Alpha  occ. eigenvalues --   -0.46253  -0.46133  -0.45947  -0.45767  -0.44987
 Alpha  occ. eigenvalues --   -0.44071  -0.43615  -0.43139  -0.42785  -0.42406
 Alpha  occ. eigenvalues --   -0.42050  -0.41522  -0.41208  -0.40892  -0.39610
 Alpha  occ. eigenvalues --   -0.39238  -0.38663  -0.38131  -0.37943  -0.37536
 Alpha  occ. eigenvalues --   -0.36857  -0.36619  -0.36348  -0.35319  -0.30996
 Alpha  occ. eigenvalues --   -0.29334  -0.28930  -0.28857  -0.28461  -0.27470
 Alpha  occ. eigenvalues --   -0.27362  -0.25742  -0.25029  -0.24654  -0.24536
 Alpha  occ. eigenvalues --   -0.22949  -0.22472
 Alpha virt. eigenvalues --   -0.03203  -0.02238  -0.01462  -0.00529   0.01761
 Alpha virt. eigenvalues --    0.03897   0.04501   0.05673   0.06265   0.07638
 Alpha virt. eigenvalues --    0.07775   0.08640   0.09140   0.09362   0.10615

 Mulliken charges:
               1
     1  C   -0.531409
     2  C    0.342602
     3  C   -0.003567
     4  C   -0.070535
     5  C   -0.443132
     6  N   -0.535970
     7  C   -0.222213
     8  C    0.358818
     9  C   -0.211933
    10  C   -0.171069
    11  C    0.104249
    12  S    0.184181
    13  C    0.217143
    14  N   -0.285516
    15  N   -0.299703
    16  C    0.211113
    17  N   -0.378504
    18  C   -0.338301
    19  O   -0.439126
    20  C    0.008896
    21  N   -0.299281
    22  N   -0.416631
    23  C    0.218342
    24  C   -0.133553
    25  C   -0.210559
    26  C    0.401188
    27  F   -0.289466
    28  C   -0.286043
    29  C    0.376054
    30  F   -0.285919
    31  H    0.173729
    32  H    0.183644
    33  H    0.166658
    34  H    0.146333
    35  H    0.157268
    36  H    0.138699
    37  H    0.151753
    38  H    0.294586
    39  H    0.149832
    40  H    0.160275
    41  H    0.149223
    42  H    0.163132
    43  H    0.170236
    44  H    0.221929
    45  H    0.190294
    46  H    0.170852
    47  H    0.135917
    48  H    0.174476
    49  H    0.159827
    50  H    0.171178
 Sum of Mulliken charges =  -0.00000

 Dipole moment (field-independent basis, Debye):
    X=             -4.4170    Y=             -4.1222    Z=             -2.0788  Tot=              6.3893
 Quadrupole moment (field-independent basis, Debye-Ang):
   XX=           -209.6600   YY=           -180.6562   ZZ=           -178.1847
   XY=            -39.5607   XZ=             -6.1386   YZ=             -0.4970

 Normal termination of Gaussian 16 at Sat Nov  5 12:11:13 2022.
