 Gaussian 16, Revision B.01,
 Gaussian 16:  ES64L-G16RevB.01 20-Dec-2017

 -------------------------------------------------------------------
 #p b3lyp/6-31g(d) 6D 10F nosymm GFInput td=(50-50,nstate=2) SCF=XQC
 -------------------------------------------------------------------

 ------------------------------
 Gaussian input prepared by ASE
 ------------------------------
 Symbolic Z-matrix:
 Charge =  0 Multiplicity = 1

                          Input orientation:
 ---------------------------------------------------------------------
 Center     Atomic      Atomic             Coordinates (Angstroms)
 Number     Number       Type             X           Y           Z
 ---------------------------------------------------------------------
      1          6           0        8.227160    0.179119    2.806576
      2          8           0        6.869246    0.281395    3.207503
      3          6           0        5.900661    0.073677    2.272330
      4          6           0        6.141155   -0.229701    0.925831
      5          6           0        5.066516   -0.423707    0.060271
      6          6           0        3.739814   -0.313757    0.497967
      7          6           0        2.622200   -0.514599   -0.455584
      8          6           0        1.323480   -0.053609   -0.194206
      9          6           0        0.349546   -0.293660   -1.166639
     10          6           0       -1.081770    0.173813   -1.004857
     11          6           0       -1.264370    1.703851   -0.880724
     12          6           0       -2.689353    1.862553   -0.325885
     13          7           0       -2.962254    0.565905    0.352606
     14         16           0       -3.778940    0.605466    1.811857
     15          8           0       -3.733623   -0.770820    2.319467
     16          8           0       -3.342218    1.703425    2.682858
     17          7           0       -5.292343    1.052037    1.260657
     18          6           0       -6.168122    1.786317    2.208903
     19          6           0       -7.536631    1.670810    1.532360
     20          6           0       -7.520897    0.239196    0.970983
     21          6           0       -6.072190    0.049522    0.482951
     22          6           0       -1.791204   -0.338374    0.261206
     23          7           0        0.626367   -0.934638   -2.305384
     24          6           0        1.906326   -1.339031   -2.477606
     25          7           0        2.197526   -2.021104   -3.631959
     26          6           0        1.231102   -2.139326   -4.710035
     27          6           0        3.557516   -2.423044   -3.944507
     28          7           0        2.912034   -1.146521   -1.603352
     29          6           0        3.520040   -0.013439    1.855747
     30          6           0        4.578284    0.175956    2.731110
     31          1           0        8.461772   -0.825111    2.430146
     32          1           0        8.818524    0.376046    3.702521
     33          1           0        8.477249    0.920672    2.036598
     34          1           0        7.152490   -0.314847    0.544732
     35          1           0        5.248547   -0.660527   -0.982097
     36          1           0        1.088853    0.498433    0.707076
     37          1           0       -1.631463   -0.180924   -1.882734
     38          1           0       -0.535312    2.108992   -0.170047
     39          1           0       -1.123958    2.221228   -1.834368
     40          1           0       -3.427376    2.009468   -1.122052
     41          1           0       -2.768233    2.697625    0.375893
     42          1           0       -5.813855    2.812427    2.323464
     43          1           0       -6.184326    1.315190    3.201421
     44          1           0       -8.358585    1.851561    2.231701
     45          1           0       -7.615135    2.401583    0.718601
     46          1           0       -7.740568   -0.475675    1.772412
     47          1           0       -8.251354    0.079449    0.172156
     48          1           0       -5.702870   -0.963513    0.666100
     49          1           0       -5.965155    0.267705   -0.585290
     50          1           0       -2.121687   -1.375471    0.179358
     51          1           0       -1.135686   -0.256278    1.138212
     52          1           0        1.475221   -1.459969   -5.541419
     53          1           0        0.239454   -1.895988   -4.334765
     54          1           0        1.235428   -3.165543   -5.097901
     55          1           0        4.064263   -1.685360   -4.586296
     56          1           0        3.533662   -3.379864   -4.478802
     57          1           0        4.128304   -2.533983   -3.024475
     58          1           0        2.508375    0.047971    2.244641
     59          1           0        4.408370    0.396992    3.780072
 ---------------------------------------------------------------------

 SCF Done:  E(RB3LYP) =  -1715.25267306     A.U. after   15 cycles

 Excitation energies and oscillator strengths:

 Excited state symmetry could not be determined.
 Excited State   1:      Triplet-?Sym    3.0208 eV  410.43 nm  f=0.0000  <S**2>=2.000
     114 ->116        -0.25106
     114 ->119        -0.11331
     115 ->116         0.61986
 This state for optimization and/or second-order correction.
 Total Energy, E(TD-HF/TD-DFT) =  -1715.14166063
 Copying the excited state density for this state as the 1-particle RhoCI density.

 Excited state symmetry could not be determined.
 Excited State   2:      Triplet-?Sym    3.3480 eV  370.32 nm  f=0.0000  <S**2>=2.000
     110 ->117         0.10040
     114 ->116         0.55803
     114 ->119         0.10682
     115 ->116         0.30543
     115 ->117         0.14320
     115 ->118         0.14010

 Excited state symmetry could not be determined.
 Excited State   3:      Singlet-?Sym    3.8234 eV  324.28 nm  f=0.1206  <S**2>=0.000
     114 ->116         0.14162
     115 ->116         0.68219

 Excited state symmetry could not be determined.
 Excited State   4:      Singlet-?Sym    4.1535 eV  298.50 nm  f=0.0050  <S**2>=0.000
     112 ->116        -0.19069
     113 ->116         0.66220

 Alpha  occ. eigenvalues --  -89.11343 -19.18189 -19.12967 -19.12957 -14.35730
 Alpha  occ. eigenvalues --  -14.35689 -14.35517 -14.31580 -14.31404 -10.27810
 Alpha  occ. eigenvalues --  -10.25074 -10.24390 -10.23544 -10.23375 -10.22198
 Alpha  occ. eigenvalues --  -10.22186 -10.22139 -10.22116 -10.20782 -10.20718
 Alpha  occ. eigenvalues --  -10.19988 -10.19564 -10.19532 -10.19511 -10.19283
 Alpha  occ. eigenvalues --  -10.19021 -10.18905 -10.18839 -10.18518 -10.17957
 Alpha  occ. eigenvalues --   -8.13539  -6.10011  -6.09989  -6.09927  -1.10599
 Alpha  occ. eigenvalues --   -1.06772  -0.99234  -0.98684  -0.94083  -0.93292
 Alpha  occ. eigenvalues --   -0.92083  -0.88376  -0.84951  -0.80940  -0.78902
 Alpha  occ. eigenvalues --   -0.77360  -0.75447  -0.74676  -0.73811  -0.73589
 Alpha  occ. eigenvalues --   -0.71796  -0.70099  -0.68654  -0.67446  -0.63745
 Alpha  occ. eigenvalues --   -0.61844  -0.61187  -0.60972  -0.59484  -0.57525
 Alpha  occ. eigenvalues --   -0.56741  -0.55964  -0.54014  -0.53377  -0.52267
 Alpha  occ. eigenvalues --   -0.51031  -0.50116  -0.49849  -0.49150  -0.47582
 Alpha  occ. eigenvalues --   -0.47124  -0.46934  -0.46781  -0.46258  -0.44477
 Alpha  occ. eigenvalues --   -0.44395  -0.43790  -0.43454  -0.43352  -0.42938
 Alpha  occ. eigenvalues --   -0.42245  -0.42079  -0.41816  -0.41551  -0.40847
 Alpha  occ. eigenvalues --   -0.39943  -0.39722  -0.39555  -0.39010  -0.38784
 Alpha  occ. eigenvalues --   -0.38006  -0.37835  -0.36937  -0.36294  -0.36257
 Alpha  occ. eigenvalues --   -0.35966  -0.35591  -0.35350  -0.34242  -0.33710
 Alpha  occ. eigenvalues --   -0.33406  -0.32693  -0.32483  -0.31828  -0.30372
 Alpha  occ. eigenvalues --   -0.29692  -0.29273  -0.28659  -0.28460  -0.25212
 Alpha  occ. eigenvalues --   -0.24996  -0.23656  -0.23540  -0.21702  -0.20213
 Alpha virt. eigenvalues --   -0.03999  -0.00555   0.00558   0.04295   0.06624
 Alpha virt. eigenvalues --    0.08234   0.08705   0.09002   0.09454   0.10039
 Alpha virt. eigenvalues --    0.10261   0.10575   0.11255   0.11621   0.12569

 Mulliken charges:
               1
     1  C   -0.216436
     2  O   -0.504367
     3  C    0.385667
     4  C   -0.200607
     5  C   -0.169420
     6  C    0.089519
     7  C    0.284236
     8  C   -0.249231
     9  C    0.346996
    10  C   -0.203033
    11  C   -0.303817
    12  C   -0.123227
    13  N   -0.575960
    14  S    1.331068
    15  O   -0.545204
    16  O   -0.547387
    17  N   -0.572309
    18  C   -0.112857
    19  C   -0.292445
    20  C   -0.300612
    21  C   -0.118623
    22  C   -0.113267
    23  N   -0.571758
    24  C    0.701424
    25  N   -0.459154
    26  C   -0.313128
    27  C   -0.307621
    28  N   -0.584933
    29  C   -0.179202
    30  C   -0.183312
    31  H    0.154731
    32  H    0.171984
    33  H    0.154154
    34  H    0.132588
    35  H    0.154192
    36  H    0.139214
    37  H    0.159999
    38  H    0.159091
    39  H    0.157567
    40  H    0.156812
    41  H    0.179732
    42  H    0.173953
    43  H    0.160634
    44  H    0.151765
    45  H    0.151906
    46  H    0.156557
    47  H    0.149162
    48  H    0.180072
    49  H    0.155906
    50  H    0.181111
    51  H    0.162473
    52  H    0.144900
    53  H    0.201314
    54  H    0.147682
    55  H    0.145454
    56  H    0.146818
    57  H    0.197825
    58  H    0.138953
    59  H    0.142453
 Sum of Mulliken charges =  -0.00000

 Dipole moment (field-independent basis, Debye):
    X=              0.7027    Y=              0.7900    Z=             -3.8464  Tot=              3.9891
 Quadrupole moment (field-independent basis, Debye-Ang):
   XX=           -127.8782   YY=           -184.2086   ZZ=           -185.1327
   XY=             -7.3553   XZ=              6.8604   YZ=              3.5251

 Normal termination of Gaussian 16 at Sat Nov  5 12:02:06 2022.
