 Gaussian 16, Revision B.01,
 Gaussian 16:  ES64L-G16RevB.01 20-Dec-2017

 -----------------------------
 #p b3lyp/6-31g(d) opt SCF=XQC
 -----------------------------

 ------------------------------
 Gaussian input prepared by ASE
 ------------------------------
 Symbolic Z-matrix:
 Charge =  0 Multiplicity = 1

 SCF Done:  E(RB3LYP) =  -1446.05348092     A.U. after   18 cycles
 SCF Done:  E(RB3LYP) =  -1446.06000274     A.U. after   14 cycles
 SCF Done:  E(RB3LYP) =  -1446.06329977     A.U. after   14 cycles
 SCF Done:  E(RB3LYP) =  -1446.06012946     A.U. after   15 cycles
 SCF Done:  E(RB3LYP) =  -1446.06459031     A.U. after   14 cycles
 SCF Done:  E(RB3LYP) =  -1446.06492672     A.U. after   14 cycles
 SCF Done:  E(RB3LYP) =  -1446.06515074     A.U. after   15 cycles
 SCF Done:  E(RB3LYP) =  -1446.06410002     A.U. after   17 cycles
 SCF Done:  E(RB3LYP) =  -1446.06550276     A.U. after   15 cycles
 SCF Done:  E(RB3LYP) =  -1446.06565408     A.U. after   14 cycles
 SCF Done:  E(RB3LYP) =  -1446.06574906     A.U. after   13 cycles
 SCF Done:  E(RB3LYP) =  -1446.06574463     A.U. after   13 cycles
 SCF Done:  E(RB3LYP) =  -1446.06573212     A.U. after   13 cycles
 SCF Done:  E(RB3LYP) =  -1446.06576994     A.U. after   12 cycles
 SCF Done:  E(RB3LYP) =  -1446.06577327     A.U. after   10 cycles
 SCF Done:  E(RB3LYP) =  -1446.06577455     A.U. after   10 cycles
 SCF Done:  E(RB3LYP) =  -1446.06577500     A.U. after    9 cycles
 SCF Done:  E(RB3LYP) =  -1446.06577516     A.U. after    9 cycles
 SCF Done:  E(RB3LYP) =  -1446.06577522     A.U. after    8 cycles
 Optimization completed.
    -- Stationary point found.

                         Standard orientation:
 ---------------------------------------------------------------------
 Center     Atomic      Atomic             Coordinates (Angstroms)
 Number     Number       Type             X           Y           Z
 ---------------------------------------------------------------------
      1          8           0       -1.845438    0.682428    2.578003
      2          6           0       -1.728417    0.581136    1.358435
      3          6           0       -0.587787   -0.292167    0.782457
      4         16           0        0.628483    0.836760   -0.042178
      5          6           0        2.157302    0.006233    0.324271
      6          7           0        2.090720   -1.140288    1.013551
      7          6           0        3.206605   -1.798208    1.324103
      8          6           0        4.486210   -1.367663    0.967547
      9          6           0        4.585038   -0.184588    0.250925
     10          6           0        3.420671    0.509783   -0.076402
     11          7           0        3.570014    1.746493   -0.833974
     12          8           0        2.541028    2.360897   -1.129341
     13          8           0        4.706530    2.109157   -1.140598
     14          6           0       -1.083651   -1.488373   -0.026055
     15          6           0       -2.018319   -2.333753    0.594256
     16          6           0       -2.508278   -3.460225   -0.063519
     17          6           0       -2.069581   -3.765949   -1.354340
     18          6           0       -1.138236   -2.935124   -1.975369
     19          6           0       -0.649151   -1.804052   -1.316161
     20          7           0       -2.588182    1.201758    0.506535
     21          6           0       -2.650015    1.136549   -0.963987
     22          6           0       -3.566019    2.314972   -1.321701
     23          6           0       -4.555552    2.353773   -0.145504
     24          6           0       -3.682068    2.013583    1.071262
     25          1           0       -0.074538   -0.666344    1.668370
     26          1           0        3.066901   -2.719142    1.886911
     27          1           0        5.366238   -1.938921    1.241848
     28          1           0        5.536113    0.225160   -0.066984
     29          1           0       -2.357980   -2.104018    1.601536
     30          1           0       -3.230763   -4.101686    0.434390
     31          1           0       -2.449184   -4.644981   -1.868230
     32          1           0       -0.786613   -3.163521   -2.978235
     33          1           0        0.074410   -1.164981   -1.812643
     34          1           0       -3.085484    0.183069   -1.290519
     35          1           0       -1.658691    1.225391   -1.414320
     36          1           0       -4.049862    2.181640   -2.293883
     37          1           0       -2.981972    3.242265   -1.358282
     38          1           0       -5.058887    3.318947   -0.037589
     39          1           0       -5.328857    1.587999   -0.281324
     40          1           0       -4.208200    1.450145    1.847018
     41          1           0       -3.265696    2.909658    1.548199
 ---------------------------------------------------------------------

 The electronic state is 1-A.
 Alpha  occ. eigenvalues --  -88.90648 -19.19057 -19.18633 -19.10568 -14.57993
 Alpha  occ. eigenvalues --  -14.36132 -14.36032 -10.29282 -10.28332 -10.26947
 Alpha  occ. eigenvalues --  -10.25863 -10.24152 -10.22741 -10.22518 -10.22456
 Alpha  occ. eigenvalues --  -10.21632 -10.20578 -10.19543 -10.19372 -10.19323
 Alpha  occ. eigenvalues --  -10.19309 -10.19190 -10.19114 -10.19092  -7.96579
 Alpha  occ. eigenvalues --   -5.93095  -5.92647  -5.92137  -1.23159  -1.05828
 Alpha  occ. eigenvalues --   -1.02718  -0.98124  -0.93694  -0.86204  -0.85959
 Alpha  occ. eigenvalues --   -0.83227  -0.80273  -0.78614  -0.75378  -0.74561
 Alpha  occ. eigenvalues --   -0.73971  -0.71953  -0.68893  -0.64745  -0.63228
 Alpha  occ. eigenvalues --   -0.62514  -0.60583  -0.59855  -0.58626  -0.56151
 Alpha  occ. eigenvalues --   -0.55143  -0.54030  -0.53288  -0.52432  -0.51985
 Alpha  occ. eigenvalues --   -0.50342  -0.50298  -0.47736  -0.46869  -0.45783
 Alpha  occ. eigenvalues --   -0.44644  -0.44405  -0.43628  -0.43362  -0.43207
 Alpha  occ. eigenvalues --   -0.42566  -0.42205  -0.41876  -0.40597  -0.40199
 Alpha  occ. eigenvalues --   -0.38275  -0.36506  -0.36013  -0.35606  -0.35541
 Alpha  occ. eigenvalues --   -0.34904  -0.34791  -0.33900  -0.33539  -0.32898
 Alpha  occ. eigenvalues --   -0.31511  -0.31460  -0.31136  -0.29135  -0.28262
 Alpha  occ. eigenvalues --   -0.25561  -0.25270  -0.24573  -0.23474  -0.23293
 Alpha virt. eigenvalues --   -0.09905  -0.04724  -0.01564  -0.00615  -0.00589
 Alpha virt. eigenvalues --    0.01519   0.03639   0.07179   0.08352   0.09444
 Alpha virt. eigenvalues --    0.09630   0.11615   0.12230   0.12747   0.13437

 Mulliken charges:
               1
     1  O   -0.522863
     2  C    0.590065
     3  C   -0.475903
     4  S    0.261856
     5  C    0.065116
     6  N   -0.446470
     7  C    0.072315
     8  C   -0.164774
     9  C   -0.103120
    10  C    0.243619
    11  N    0.383496
    12  O   -0.386500
    13  O   -0.399796
    14  C    0.185873
    15  C   -0.182446
    16  C   -0.129083
    17  C   -0.129211
    18  C   -0.132172
    19  C   -0.195513
    20  N   -0.437849
    21  C   -0.133973
    22  C   -0.293990
    23  C   -0.306486
    24  C   -0.100826
    25  H    0.236584
    26  H    0.166644
    27  H    0.158944
    28  H    0.199830
    29  H    0.153023
    30  H    0.132834
    31  H    0.130223
    32  H    0.130897
    33  H    0.149081
    34  H    0.165354
    35  H    0.175646
    36  H    0.149891
    37  H    0.157313
    38  H    0.151687
    39  H    0.149825
    40  H    0.168685
    41  H    0.162176
 Sum of Mulliken charges =  -0.00000

 Dipole moment (field-independent basis, Debye):
    X=             -0.4301    Y=             -3.4426    Z=             -1.3773  Tot=              3.7328
 Quadrupole moment (field-independent basis, Debye-Ang):
   XX=           -124.7546   YY=           -142.6443   ZZ=           -151.5760
   XY=            -16.6236   XZ=             14.0881   YZ=              0.3607

 Normal termination of Gaussian 16 at Fri Nov  4 19:50:26 2022.
