 Gaussian 16, Revision B.01,
 Gaussian 16:  ES64L-G16RevB.01 20-Dec-2017

 -------------------------------------------------------------------
 #p b3lyp/6-31g(d) 6D 10F nosymm GFInput td=(50-50,nstate=2) SCF=XQC
 -------------------------------------------------------------------

 ------------------------------
 Gaussian input prepared by ASE
 ------------------------------
 Symbolic Z-matrix:
 Charge =  0 Multiplicity = 1

                          Input orientation:
 ---------------------------------------------------------------------
 Center     Atomic      Atomic             Coordinates (Angstroms)
 Number     Number       Type             X           Y           Z
 ---------------------------------------------------------------------
      1          8           0       -1.363896   -1.678940   -2.155963
      2          6           0       -1.283716   -0.934430   -1.180989
      3          6           0        0.106276   -0.408550   -0.748764
      4         16           0        0.528448   -1.193291    0.875972
      5          6           0        2.285684   -1.400173    0.700841
      6          7           0        2.852111   -0.962304   -0.431185
      7          6           0        4.163554   -1.101750   -0.618725
      8          6           0        5.022844   -1.687787    0.312979
      9          6           0        4.463919   -2.147963    1.495697
     10          6           0        3.091303   -2.006138    1.697829
     11          7           0        2.546086   -2.499781    2.956687
     12          8           0        1.332316   -2.371408    3.140608
     13          8           0        3.319917   -3.012124    3.766566
     14          6           0        0.240952    1.109185   -0.842709
     15          6           0       -0.095538    1.704302   -2.069765
     16          6           0        0.017631    3.081435   -2.249664
     17          6           0        0.473900    3.890801   -1.206166
     18          6           0        0.814893    3.307754    0.013314
     19          6           0        0.698719    1.926832    0.193978
     20          7           0       -2.388071   -0.547933   -0.487360
     21          6           0       -2.494668    0.386667    0.646513
     22          6           0       -3.901864    0.106314    1.191405
     23          6           0       -4.702345   -0.234978   -0.076220
     24          6           0       -3.707309   -1.041203   -0.924234
     25          1           0        0.789644   -0.858486   -1.469070
     26          1           0        4.545003   -0.722492   -1.564795
     27          1           0        6.085473   -1.777667    0.116084
     28          1           0        5.053841   -2.616443    2.274171
     29          1           0       -0.444796    1.078000   -2.887400
     30          1           0       -0.247491    3.522062   -3.207228
     31          1           0        0.564522    4.964744   -1.345132
     32          1           0        1.174006    3.925939    0.832112
     33          1           0        0.966064    1.486658    1.149604
     34          1           0       -2.403142    1.424893    0.301417
     35          1           0       -1.714790    0.209527    1.390709
     36          1           0       -4.306983    0.957673    1.746459
     37          1           0       -3.873834   -0.756503    1.867484
     38          1           0       -5.619169   -0.794555    0.130808
     39          1           0       -4.985246    0.686264   -0.599800
     40          1           0       -3.827060   -0.894534   -2.001370
     41          1           0       -3.777188   -2.119618   -0.734695
 ---------------------------------------------------------------------

 SCF Done:  E(RB3LYP) =  -1446.06577625     A.U. after   18 cycles

 Excitation energies and oscillator strengths:

 Excited state symmetry could not be determined.
 Excited State   1:      Triplet-?Sym    2.6144 eV  474.24 nm  f=0.0000  <S**2>=2.000
      80 -> 91        -0.12355
      81 -> 91        -0.26446
      83 -> 91         0.12935
      86 -> 91        -0.19834
      88 -> 91        -0.33724
      90 -> 91         0.47634
 This state for optimization and/or second-order correction.
 Total Energy, E(TD-HF/TD-DFT) =  -1445.96969978
 Copying the excited state density for this state as the 1-particle RhoCI density.

 Excited state symmetry could not be determined.
 Excited State   2:      Triplet-?Sym    2.9211 eV  424.44 nm  f=0.0000  <S**2>=2.000
      80 -> 91        -0.21431
      81 -> 91        -0.36263
      81 -> 93         0.13221
      83 -> 91         0.43883
      88 -> 91         0.11698
      90 -> 91        -0.27543

 Excited state symmetry could not be determined.
 Excited State   3:      Singlet-?Sym    3.1322 eV  395.83 nm  f=0.0500  <S**2>=0.000
      90 -> 91         0.70022

 Excited state symmetry could not be determined.
 Excited State   4:      Singlet-?Sym    3.2289 eV  383.99 nm  f=0.0009  <S**2>=0.000
      89 -> 91         0.70615

 Alpha  occ. eigenvalues --  -88.90648 -19.19057 -19.18633 -19.10568 -14.57993
 Alpha  occ. eigenvalues --  -14.36133 -14.36033 -10.29282 -10.28332 -10.26947
 Alpha  occ. eigenvalues --  -10.25863 -10.24152 -10.22741 -10.22518 -10.22456
 Alpha  occ. eigenvalues --  -10.21632 -10.20578 -10.19543 -10.19372 -10.19323
 Alpha  occ. eigenvalues --  -10.19309 -10.19190 -10.19114 -10.19092  -7.96579
 Alpha  occ. eigenvalues --   -5.93095  -5.92646  -5.92137  -1.23159  -1.05828
 Alpha  occ. eigenvalues --   -1.02718  -0.98124  -0.93694  -0.86204  -0.85959
 Alpha  occ. eigenvalues --   -0.83227  -0.80273  -0.78614  -0.75378  -0.74561
 Alpha  occ. eigenvalues --   -0.73971  -0.71952  -0.68893  -0.64745  -0.63228
 Alpha  occ. eigenvalues --   -0.62514  -0.60583  -0.59855  -0.58626  -0.56151
 Alpha  occ. eigenvalues --   -0.55143  -0.54030  -0.53288  -0.52432  -0.51985
 Alpha  occ. eigenvalues --   -0.50342  -0.50298  -0.47736  -0.46869  -0.45783
 Alpha  occ. eigenvalues --   -0.44644  -0.44405  -0.43628  -0.43362  -0.43207
 Alpha  occ. eigenvalues --   -0.42566  -0.42205  -0.41876  -0.40597  -0.40199
 Alpha  occ. eigenvalues --   -0.38275  -0.36506  -0.36013  -0.35606  -0.35541
 Alpha  occ. eigenvalues --   -0.34904  -0.34791  -0.33901  -0.33539  -0.32898
 Alpha  occ. eigenvalues --   -0.31511  -0.31460  -0.31136  -0.29135  -0.28262
 Alpha  occ. eigenvalues --   -0.25561  -0.25270  -0.24573  -0.23474  -0.23293
 Alpha virt. eigenvalues --   -0.09905  -0.04724  -0.01564  -0.00615  -0.00589
 Alpha virt. eigenvalues --    0.01519   0.03640   0.07179   0.08352   0.09444
 Alpha virt. eigenvalues --    0.09630   0.11615   0.12230   0.12747   0.13437

 Mulliken charges:
               1
     1  O   -0.522868
     2  C    0.590042
     3  C   -0.475857
     4  S    0.261878
     5  C    0.065114
     6  N   -0.446479
     7  C    0.072312
     8  C   -0.164764
     9  C   -0.103132
    10  C    0.243622
    11  N    0.383497
    12  O   -0.386503
    13  O   -0.399795
    14  C    0.185854
    15  C   -0.182451
    16  C   -0.129082
    17  C   -0.129206
    18  C   -0.132179
    19  C   -0.195516
    20  N   -0.437850
    21  C   -0.133959
    22  C   -0.293992
    23  C   -0.306502
    24  C   -0.100808
    25  H    0.236580
    26  H    0.166644
    27  H    0.158944
    28  H    0.199831
    29  H    0.153024
    30  H    0.132834
    31  H    0.130223
    32  H    0.130898
    33  H    0.149080
    34  H    0.165351
    35  H    0.175640
    36  H    0.149891
    37  H    0.157313
    38  H    0.151690
    39  H    0.149827
    40  H    0.168684
    41  H    0.162174
 Sum of Mulliken charges =  -0.00000

 Dipole moment (field-independent basis, Debye):
    X=              1.2999    Y=              3.4291    Z=             -0.6965  Tot=              3.7328
 Quadrupole moment (field-independent basis, Debye-Ang):
   XX=           -112.4629   YY=           -148.1646   ZZ=           -160.1918
   XY=             -5.0084   XZ=             -7.6659   YZ=              3.1945

 Normal termination of Gaussian 16 at Sat Nov  5 12:02:44 2022.
