 Gaussian 16, Revision B.01,
 Gaussian 16:  ES64L-G16RevB.01 20-Dec-2017

 -------------------------------------------------------------------
 #p b3lyp/6-31g(d) 6D 10F nosymm GFInput td=(50-50,nstate=2) SCF=XQC
 -------------------------------------------------------------------

 ------------------------------
 Gaussian input prepared by ASE
 ------------------------------
 Symbolic Z-matrix:
 Charge =  0 Multiplicity = 1

                          Input orientation:
 ---------------------------------------------------------------------
 Center     Atomic      Atomic             Coordinates (Angstroms)
 Number     Number       Type             X           Y           Z
 ---------------------------------------------------------------------
      1          8           0       -0.853922    1.193295    0.529218
      2          6           0       -1.342967    0.110601    0.226861
      3          7           0       -0.582121   -0.982862   -0.112663
      4          6           0        0.813150   -1.025160   -0.150926
      5          6           0        1.761029   -0.045977    0.218266
      6          6           0        2.990032   -0.653139   -0.011923
      7          6           0        4.355614   -0.163219    0.177132
      8          6           0        4.629998    1.212851    0.194034
      9          6           0        5.943022    1.639632    0.374538
     10          7           0        6.987432    0.813962    0.528197
     11          6           0        6.720877   -0.497589    0.511955
     12          6           0        5.444617   -1.032351    0.348274
     13          7           0        2.706299   -1.905872   -0.473479
     14          7           0        1.383522   -2.152005   -0.585164
     15          6           0       -2.832055   -0.099254    0.192582
     16          6           0       -3.449763   -1.352567    0.301717
     17          6           0       -4.840726   -1.457890    0.279549
     18          6           0       -5.627601   -0.316033    0.145955
     19          6           0       -5.015331    0.937771    0.048554
     20          6           0       -5.863586    2.167948   -0.145017
     21          9           0       -6.130593    2.383688   -1.454348
     22          9           0       -5.258294    3.278355    0.323704
     23          9           0       -7.055540    2.054898    0.483517
     24          6           0       -3.627271    1.047393    0.080550
     25          1           0       -1.033549   -1.812893   -0.472215
     26          1           0        1.559596    0.933431    0.616437
     27          1           0        3.833717    1.936787    0.053355
     28          1           0        6.170189    2.704201    0.389923
     29          1           0        7.573977   -1.160936    0.645383
     30          1           0        5.305923   -2.109407    0.385127
     31          1           0        3.353349   -2.585242   -0.843382
     32          1           0       -2.857873   -2.252829    0.443798
     33          1           0       -5.311127   -2.431656    0.378006
     34          1           0       -6.709850   -0.392267    0.132859
     35          1           0       -3.140170    2.014333    0.029331
 ---------------------------------------------------------------------

 SCF Done:  E(RB3LYP) =  -1210.09063395     A.U. after   15 cycles

 Excitation energies and oscillator strengths:

 Excited state symmetry could not be determined.
 Excited State   1:      Triplet-?Sym    3.1471 eV  393.97 nm  f=0.0000  <S**2>=2.000
      81 -> 89         0.16228
      84 -> 87        -0.35888
      85 -> 86         0.32061
      85 -> 87         0.43956
      85 -> 90        -0.14044
 This state for optimization and/or second-order correction.
 Total Energy, E(TD-HF/TD-DFT) =  -1209.97498134
 Copying the excited state density for this state as the 1-particle RhoCI density.

 Excited state symmetry could not be determined.
 Excited State   2:      Triplet-?Sym    3.5076 eV  353.47 nm  f=0.0000  <S**2>=2.000
      79 -> 86        -0.31507
      79 -> 88        -0.21334
      80 -> 86        -0.17235
      80 -> 88         0.23842
      82 -> 86         0.28882
      82 -> 88        -0.11330
      84 -> 86         0.15478
      85 -> 86         0.29390
      85 -> 87        -0.12432

 Excited state symmetry could not be determined.
 Excited State   3:      Singlet-?Sym    4.2186 eV  293.90 nm  f=0.2474  <S**2>=0.000
      85 -> 86         0.58200
      85 -> 87        -0.39657

 Excited state symmetry could not be determined.
 Excited State   4:      Singlet-?Sym    4.3750 eV  283.39 nm  f=0.0296  <S**2>=0.000
      84 -> 86         0.22043
      84 -> 87         0.17270
      85 -> 86         0.35950
      85 -> 87         0.51857

 Alpha  occ. eigenvalues --  -24.72722 -24.72697 -24.72126 -19.13005 -14.42255
 Alpha  occ. eigenvalues --  -14.38887 -14.36209 -14.33620 -10.43594 -10.30819
 Alpha  occ. eigenvalues --  -10.26045 -10.24556 -10.23438 -10.23214 -10.23042
 Alpha  occ. eigenvalues --  -10.22710 -10.22502 -10.22448 -10.22196 -10.21872
 Alpha  occ. eigenvalues --  -10.21743 -10.21245 -10.20841 -10.19255  -1.30292
 Alpha  occ. eigenvalues --   -1.21764  -1.21266  -1.06458  -1.04844  -0.95181
 Alpha  occ. eigenvalues --   -0.94722  -0.88793  -0.85156  -0.81799  -0.79733
 Alpha  occ. eigenvalues --   -0.78201  -0.77884  -0.76961  -0.70463  -0.68114
 Alpha  occ. eigenvalues --   -0.66133  -0.64291  -0.63556  -0.62359  -0.61715
 Alpha  occ. eigenvalues --   -0.58414  -0.58172  -0.58035  -0.57865  -0.55807
 Alpha  occ. eigenvalues --   -0.52239  -0.51550  -0.49694  -0.48870  -0.48546
 Alpha  occ. eigenvalues --   -0.47365  -0.47247  -0.46088  -0.45902  -0.45539
 Alpha  occ. eigenvalues --   -0.45223  -0.44452  -0.43647  -0.43158  -0.42775
 Alpha  occ. eigenvalues --   -0.42159  -0.41504  -0.41310  -0.40823  -0.40322
 Alpha  occ. eigenvalues --   -0.39893  -0.38415  -0.37930  -0.37228  -0.36501
 Alpha  occ. eigenvalues --   -0.33509  -0.31584  -0.30775  -0.28214  -0.27943
 Alpha  occ. eigenvalues --   -0.27209  -0.26649  -0.26231  -0.24813  -0.23108
 Alpha virt. eigenvalues --   -0.05827  -0.05353  -0.03520  -0.02005   0.02118
 Alpha virt. eigenvalues --    0.04363   0.06231   0.06776   0.08755   0.10117
 Alpha virt. eigenvalues --    0.10585   0.12359   0.13092   0.13840   0.14793

 Mulliken charges:
               1
     1  O   -0.510967
     2  C    0.586736
     3  N   -0.735117
     4  C    0.534511
     5  C   -0.274362
     6  C    0.332455
     7  C    0.145008
     8  C   -0.180484
     9  C    0.037285
    10  N   -0.406125
    11  C    0.039625
    12  C   -0.191493
    13  N   -0.489563
    14  N   -0.361847
    15  C    0.053493
    16  C   -0.174132
    17  C   -0.138159
    18  C   -0.147811
    19  C   -0.017151
    20  C    0.790988
    21  F   -0.259823
    22  F   -0.263823
    23  F   -0.270818
    24  C   -0.188213
    25  H    0.345833
    26  H    0.182400
    27  H    0.153399
    28  H    0.148497
    29  H    0.145585
    30  H    0.129253
    31  H    0.345092
    32  H    0.142814
    33  H    0.148767
    34  H    0.161617
    35  H    0.186533
 Sum of Mulliken charges =  -0.00000

 Dipole moment (field-independent basis, Debye):
    X=             -0.2396    Y=             -4.6849    Z=             -0.7599  Tot=              4.7522
 Quadrupole moment (field-independent basis, Debye-Ang):
   XX=           -142.1803   YY=           -127.7497   ZZ=           -137.2747
   XY=              5.1425   XZ=             -4.4057   YZ=             -0.3641

 Normal termination of Gaussian 16 at Sat Nov  5 11:50:45 2022.
