 Gaussian 16, Revision B.01,
 Gaussian 16:  ES64L-G16RevB.01 20-Dec-2017

 -----------------------------
 #p b3lyp/6-31g(d) opt SCF=XQC
 -----------------------------

 ------------------------------
 Gaussian input prepared by ASE
 ------------------------------
 Symbolic Z-matrix:
 Charge =  0 Multiplicity = 1

 SCF Done:  E(RB3LYP) =  -1210.08606533     A.U. after   15 cycles
 SCF Done:  E(RB3LYP) =  -1210.08997295     A.U. after   12 cycles
 SCF Done:  E(RB3LYP) =  -1210.09037127     A.U. after   12 cycles
 SCF Done:  E(RB3LYP) =  -1210.09044756     A.U. after   11 cycles
 SCF Done:  E(RB3LYP) =  -1210.09054249     A.U. after   12 cycles
 SCF Done:  E(RB3LYP) =  -1210.09058171     A.U. after   10 cycles
 SCF Done:  E(RB3LYP) =  -1210.09061558     A.U. after   11 cycles
 SCF Done:  E(RB3LYP) =  -1210.09062175     A.U. after    9 cycles
 SCF Done:  E(RB3LYP) =  -1210.09062856     A.U. after   10 cycles
 SCF Done:  E(RB3LYP) =  -1210.09063067     A.U. after   10 cycles
 SCF Done:  E(RB3LYP) =  -1210.09063123     A.U. after    8 cycles
 SCF Done:  E(RB3LYP) =  -1210.09063208     A.U. after    9 cycles
 SCF Done:  E(RB3LYP) =  -1210.09063242     A.U. after    8 cycles
 SCF Done:  E(RB3LYP) =  -1210.09063314     A.U. after    9 cycles
 SCF Done:  E(RB3LYP) =  -1210.09063359     A.U. after    9 cycles
 SCF Done:  E(RB3LYP) =  -1210.09063371     A.U. after    7 cycles
 SCF Done:  E(RB3LYP) =  -1210.09063374     A.U. after    6 cycles
 Optimization completed.
    -- Stationary point found.

                         Standard orientation:
 ---------------------------------------------------------------------
 Center     Atomic      Atomic             Coordinates (Angstroms)
 Number     Number       Type             X           Y           Z
 ---------------------------------------------------------------------
      1          8           0       -0.431005   -0.888734   -0.419913
      2          6           0       -0.778634    0.263524   -0.186964
      3          7           0        0.112662    1.263724    0.121283
      4          6           0        1.499801    1.123777    0.200615
      5          6           0        2.317440    0.009955   -0.089974
      6          6           0        3.610449    0.461273    0.147769
      7          6           0        4.902768   -0.213693    0.025668
      8          6           0        4.991746   -1.612847    0.085595
      9          6           0        6.240194   -2.217935   -0.032732
     10          7           0        7.388676   -1.546462   -0.194745
     11          6           0        7.298878   -0.212238   -0.251886
     12          6           0        6.101644    0.493993   -0.154573
     13          7           0        3.485049    1.763276    0.537565
     14          7           0        2.204537    2.187168    0.595856
     15          6           0       -2.226891    0.669294   -0.209301
     16          6           0       -2.669342    1.985461   -0.399595
     17          6           0       -4.034009    2.274184   -0.425793
     18          6           0       -4.968957    1.254730   -0.260137
     19          6           0       -4.531676   -0.061831   -0.081702
     20          6           0       -5.540651   -1.157423    0.146309
     21          9           0       -5.865532   -1.265998    1.455832
     22          9           0       -5.077521   -2.361299   -0.247741
     23          9           0       -6.691408   -0.921959   -0.523693
     24          6           0       -3.170221   -0.354952   -0.065191
     25          1           0       -0.232730    2.163978    0.425034
     26          1           0        1.997016   -0.954189   -0.445094
     27          1           0        4.102973   -2.217007    0.237289
     28          1           0        6.323845   -3.302448    0.011786
     29          1           0        8.235701    0.324848   -0.391574
     30          1           0        6.108576    1.576424   -0.249118
     31          1           0        4.207707    2.370203    0.893167
     32          1           0       -1.959560    2.791014   -0.567773
     33          1           0       -4.368002    3.294800   -0.586988
     34          1           0       -6.031406    1.473497   -0.284383
     35          1           0       -2.817633   -1.373529    0.049025
 ---------------------------------------------------------------------

 The electronic state is 1-A.
 Alpha  occ. eigenvalues --  -24.72722 -24.72697 -24.72126 -19.13005 -14.42255
 Alpha  occ. eigenvalues --  -14.38887 -14.36209 -14.33620 -10.43594 -10.30819
 Alpha  occ. eigenvalues --  -10.26045 -10.24556 -10.23438 -10.23214 -10.23042
 Alpha  occ. eigenvalues --  -10.22710 -10.22502 -10.22448 -10.22196 -10.21872
 Alpha  occ. eigenvalues --  -10.21743 -10.21245 -10.20841 -10.19255  -1.30292
 Alpha  occ. eigenvalues --   -1.21764  -1.21266  -1.06458  -1.04844  -0.95181
 Alpha  occ. eigenvalues --   -0.94722  -0.88793  -0.85156  -0.81799  -0.79733
 Alpha  occ. eigenvalues --   -0.78201  -0.77884  -0.76961  -0.70463  -0.68114
 Alpha  occ. eigenvalues --   -0.66133  -0.64291  -0.63556  -0.62359  -0.61715
 Alpha  occ. eigenvalues --   -0.58415  -0.58172  -0.58036  -0.57865  -0.55807
 Alpha  occ. eigenvalues --   -0.52239  -0.51550  -0.49694  -0.48870  -0.48546
 Alpha  occ. eigenvalues --   -0.47365  -0.47247  -0.46088  -0.45902  -0.45539
 Alpha  occ. eigenvalues --   -0.45223  -0.44452  -0.43647  -0.43158  -0.42775
 Alpha  occ. eigenvalues --   -0.42159  -0.41504  -0.41310  -0.40823  -0.40322
 Alpha  occ. eigenvalues --   -0.39893  -0.38415  -0.37930  -0.37228  -0.36501
 Alpha  occ. eigenvalues --   -0.33509  -0.31584  -0.30775  -0.28214  -0.27943
 Alpha  occ. eigenvalues --   -0.27209  -0.26649  -0.26231  -0.24813  -0.23108
 Alpha virt. eigenvalues --   -0.05827  -0.05353  -0.03520  -0.02005   0.02118
 Alpha virt. eigenvalues --    0.04363   0.06231   0.06776   0.08755   0.10117
 Alpha virt. eigenvalues --    0.10585   0.12359   0.13092   0.13840   0.14793

 Mulliken charges:
               1
     1  O   -0.510967
     2  C    0.586733
     3  N   -0.735097
     4  C    0.534504
     5  C   -0.274363
     6  C    0.332441
     7  C    0.145024
     8  C   -0.180493
     9  C    0.037296
    10  N   -0.406127
    11  C    0.039617
    12  C   -0.191492
    13  N   -0.489559
    14  N   -0.361849
    15  C    0.053486
    16  C   -0.174135
    17  C   -0.138157
    18  C   -0.147811
    19  C   -0.017143
    20  C    0.790971
    21  F   -0.259817
    22  F   -0.263823
    23  F   -0.270815
    24  C   -0.188214
    25  H    0.345833
    26  H    0.182398
    27  H    0.153399
    28  H    0.148497
    29  H    0.145586
    30  H    0.129253
    31  H    0.345092
    32  H    0.142815
    33  H    0.148767
    34  H    0.161617
    35  H    0.186534
 Sum of Mulliken charges =  -0.00000

 Dipole moment (field-independent basis, Debye):
    X=              0.3682    Y=              4.7094    Z=              0.5187  Tot=              4.7522
 Quadrupole moment (field-independent basis, Debye-Ang):
   XX=           -143.0738   YY=           -124.8257   ZZ=           -136.8530
   XY=             -0.0844   XZ=              4.6426   YZ=             -1.1062

 Normal termination of Gaussian 16 at Fri Nov  4 19:32:38 2022.
