 Gaussian 16, Revision B.01,
 Gaussian 16:  ES64L-G16RevB.01 20-Dec-2017

 -----------------------------
 #p b3lyp/6-31g(d) opt SCF=XQC
 -----------------------------

 ------------------------------
 Gaussian input prepared by ASE
 ------------------------------
 Symbolic Z-matrix:
 Charge =  0 Multiplicity = 1

 SCF Done:  E(RB3LYP) =  -1443.79324552     A.U. after   16 cycles
 SCF Done:  E(RB3LYP) =  -1443.80367758     A.U. after   17 cycles
 SCF Done:  E(RB3LYP) =  -1443.80769342     A.U. after   14 cycles
 SCF Done:  E(RB3LYP) =  -1443.80507334     A.U. after   17 cycles
 SCF Done:  E(RB3LYP) =  -1443.81022876     A.U. after   15 cycles
 SCF Done:  E(RB3LYP) =  -1443.81109768     A.U. after   13 cycles
 SCF Done:  E(RB3LYP) =  -1443.81197932     A.U. after   15 cycles
 SCF Done:  E(RB3LYP) =  -1443.81211535     A.U. after   14 cycles
 SCF Done:  E(RB3LYP) =  -1443.81215393     A.U. after   12 cycles
 SCF Done:  E(RB3LYP) =  -1443.81216586     A.U. after   12 cycles
 SCF Done:  E(RB3LYP) =  -1443.81217171     A.U. after   11 cycles
 SCF Done:  E(RB3LYP) =  -1443.81217410     A.U. after   11 cycles
 SCF Done:  E(RB3LYP) =  -1443.81217471     A.U. after    9 cycles
 SCF Done:  E(RB3LYP) =  -1443.81217489     A.U. after    8 cycles
 SCF Done:  E(RB3LYP) =  -1443.81217493     A.U. after    8 cycles
 SCF Done:  E(RB3LYP) =  -1443.81217494     A.U. after    8 cycles
 SCF Done:  E(RB3LYP) =  -1443.81217493     A.U. after    8 cycles
 SCF Done:  E(RB3LYP) =  -1443.81217492     A.U. after    7 cycles
 Optimization completed.
    -- Stationary point found.

                         Standard orientation:
 ---------------------------------------------------------------------
 Center     Atomic      Atomic             Coordinates (Angstroms)
 Number     Number       Type             X           Y           Z
 ---------------------------------------------------------------------
      1          6           0       -3.341126    3.239617    0.886706
      2          6           0       -3.897738    2.227303   -0.120370
      3          6           0       -2.840960    1.769913   -1.168862
      4          6           0       -2.350850    0.451795   -0.608296
      5          6           0       -1.263279   -0.330617   -0.943914
      6          6           0       -1.082622   -1.550353   -0.264879
      7         16           0        0.326581   -2.565882   -0.643913
      8          8           0        0.010899   -3.961120   -0.335139
      9          8           0        0.849856   -2.145528   -1.942992
     10          7           0        1.537477   -2.205797    0.517358
     11          6           0        2.062475   -0.930265    0.789860
     12          6           0        2.434584   -0.612966    2.108049
     13          6           0        3.000930    0.623234    2.411006
     14          6           0        3.185106    1.583660    1.418491
     15          6           0        2.799147    1.252427    0.122201
     16          7           0        2.968631    2.258245   -0.943801
     17          8           0        3.520429    3.317472   -0.646074
     18          8           0        2.539724    1.985101   -2.064078
     19          6           0        2.261481    0.017159   -0.223418
     20          6           0       -1.982911   -1.975555    0.719687
     21          6           0       -3.081356   -1.187823    1.056619
     22          6           0       -3.256913    0.030235    0.387600
     23          7           0       -4.279430    0.949652    0.526218
     24          1           0       -2.437529    2.851858    1.371405
     25          1           0       -4.078261    3.468305    1.666131
     26          1           0       -3.084827    4.179966    0.385331
     27          1           0       -4.777880    2.653047   -0.613812
     28          1           0       -2.047376    2.512948   -1.299311
     29          1           0       -3.311352    1.619224   -2.149147
     30          1           0       -0.567142   -0.031350   -1.720199
     31          1           0        1.438438   -2.823697    1.316344
     32          1           0        2.281947   -1.345225    2.897307
     33          1           0        3.288337    0.843017    3.434780
     34          1           0        3.608813    2.557385    1.626257
     35          1           0        2.022850   -0.203459   -1.254877
     36          1           0       -1.832006   -2.934433    1.205089
     37          1           0       -3.786840   -1.520656    1.812478
     38          1           0       -4.772272    0.998497    1.409788
 ---------------------------------------------------------------------

 The electronic state is 1-A.
 Alpha  occ. eigenvalues --  -89.12003 -19.18065 -19.18053 -19.14831 -19.14761
 Alpha  occ. eigenvalues --  -14.57142 -14.38519 -14.36566 -10.26463 -10.25536
 Alpha  occ. eigenvalues --  -10.24711 -10.24608 -10.22446 -10.22210 -10.22036
 Alpha  occ. eigenvalues --  -10.21782 -10.21602 -10.21555 -10.21472 -10.20943
 Alpha  occ. eigenvalues --  -10.20828 -10.20752 -10.19761  -8.14463  -6.11002
 Alpha  occ. eigenvalues --   -6.10873  -6.10745  -1.22352  -1.11664  -1.05058
 Alpha  occ. eigenvalues --   -1.00853  -0.96981  -0.95298  -0.88312  -0.86736
 Alpha  occ. eigenvalues --   -0.80627  -0.80400  -0.78029  -0.76818  -0.75744
 Alpha  occ. eigenvalues --   -0.70986  -0.70529  -0.67655  -0.64079  -0.62504
 Alpha  occ. eigenvalues --   -0.61265  -0.61073  -0.59153  -0.56430  -0.55048
 Alpha  occ. eigenvalues --   -0.53984  -0.53068  -0.51523  -0.51084  -0.50751
 Alpha  occ. eigenvalues --   -0.50222  -0.49480  -0.48300  -0.46769  -0.45972
 Alpha  occ. eigenvalues --   -0.45653  -0.45403  -0.44150  -0.42760  -0.42321
 Alpha  occ. eigenvalues --   -0.42080  -0.40944  -0.40221  -0.39833  -0.39248
 Alpha  occ. eigenvalues --   -0.38746  -0.37849  -0.36441  -0.35599  -0.34731
 Alpha  occ. eigenvalues --   -0.33860  -0.32409  -0.32176  -0.31003  -0.30876
 Alpha  occ. eigenvalues --   -0.30681  -0.30372  -0.29043  -0.28273  -0.26767
 Alpha  occ. eigenvalues --   -0.24498  -0.21650
 Alpha virt. eigenvalues --   -0.08864  -0.03475  -0.02266  -0.01794   0.00161
 Alpha virt. eigenvalues --    0.05403   0.06449   0.06998   0.08039   0.09129
 Alpha virt. eigenvalues --    0.09831   0.10664   0.11258   0.11949   0.12230

 Mulliken charges:
               1
     1  C   -0.453277
     2  C    0.035086
     3  C   -0.352528
     4  C    0.116651
     5  C   -0.224654
     6  C   -0.156232
     7  S    1.219380
     8  O   -0.538316
     9  O   -0.536202
    10  N   -0.782102
    11  C    0.324123
    12  C   -0.160592
    13  C   -0.144502
    14  C   -0.155218
    15  C    0.265666
    16  N    0.380403
    17  O   -0.394165
    18  O   -0.391383
    19  C   -0.205333
    20  C   -0.160729
    21  C   -0.178442
    22  C    0.333506
    23  N   -0.654793
    24  H    0.159302
    25  H    0.145037
    26  H    0.158640
    27  H    0.148257
    28  H    0.168281
    29  H    0.174541
    30  H    0.182284
    31  H    0.356137
    32  H    0.139187
    33  H    0.149909
    34  H    0.179663
    35  H    0.229722
    36  H    0.169483
    37  H    0.136131
    38  H    0.317078
 Sum of Mulliken charges =  -0.00000

 Dipole moment (field-independent basis, Debye):
    X=             -4.6805    Y=              2.4684    Z=              6.9831  Tot=              8.7615
 Quadrupole moment (field-independent basis, Debye-Ang):
   XX=           -128.9830   YY=           -154.9931   ZZ=           -134.7734
   XY=            -14.4711   XZ=              7.2500   YZ=             -5.5361

 Normal termination of Gaussian 16 at Fri Nov  4 19:42:03 2022.
