 Gaussian 16, Revision B.01,
 Gaussian 16:  ES64L-G16RevB.01 20-Dec-2017

 -------------------------------------------------------------------
 #p b3lyp/6-31g(d) 6D 10F nosymm GFInput td=(50-50,nstate=2) SCF=XQC
 -------------------------------------------------------------------

 ------------------------------
 Gaussian input prepared by ASE
 ------------------------------
 Symbolic Z-matrix:
 Charge =  0 Multiplicity = 1

                          Input orientation:
 ---------------------------------------------------------------------
 Center     Atomic      Atomic             Coordinates (Angstroms)
 Number     Number       Type             X           Y           Z
 ---------------------------------------------------------------------
      1          6           0       -3.439978   -2.135524    0.166018
      2          6           0       -3.685813   -0.834291    0.937481
      3          6           0       -2.472397   -0.411424    1.817326
      4          6           0       -1.766309    0.614332    0.956429
      5          6           0       -0.514847    1.187973    1.067771
      6          6           0       -0.140787    2.163829    0.124762
      7         16           0        1.476443    2.896887    0.214282
      8          8           0        1.434790    4.228966   -0.390299
      9          8           0        2.007549    2.656720    1.555313
     10          7           0        2.483188    2.037737   -0.877875
     11          6           0        2.704929    0.649330   -0.873644
     12          6           0        2.890239   -0.015736   -2.098436
     13          6           0        3.157931   -1.382404   -2.134206
     14          6           0        3.219914   -2.126106   -0.957562
     15          6           0        3.022185   -1.449357    0.243255
     16          7           0        3.066538   -2.217347    1.502214
     17          8           0        3.357517   -3.411288    1.432071
     18          8           0        2.800015   -1.623735    2.546330
     19          6           0        2.785827   -0.080888    0.319749
     20          6           0       -1.011739    2.559432   -0.897797
     21          6           0       -2.275018    1.982871   -1.008829
     22          6           0       -2.644602    1.005347   -0.076131
     23          7           0       -3.844779    0.328768    0.032947
     24          1           0       -2.519289   -2.070858   -0.425529
     25          1           0       -4.271514   -2.354743   -0.514909
     26          1           0       -3.344828   -2.980630    0.857440
     27          1           0       -4.590862   -0.938460    1.545288
     28          1           0       -1.843710   -1.267305    2.083993
     29          1           0       -2.816726    0.045147    2.754298
     30          1           0        0.166040    0.913345    1.866368
     31          1           0        2.448771    2.477754   -1.791761
     32          1           0        2.828344    0.547087   -3.026783
     33          1           0        3.305875   -1.873221   -3.091406
     34          1           0        3.411551   -3.191050   -0.954895
     35          1           0        2.686224    0.401498    1.282509
     36          1           0       -0.704951    3.334904   -1.592317
     37          1           0       -2.956274    2.295860   -1.794793
     38          1           0       -4.409447    0.204117   -0.798669
 ---------------------------------------------------------------------

 SCF Done:  E(RB3LYP) =  -1443.81216967     A.U. after   16 cycles

 Excitation energies and oscillator strengths:

 Excited state symmetry could not be determined.
 Excited State   1:      Triplet-?Sym    2.7274 eV  454.59 nm  f=0.0000  <S**2>=2.000
      79 -> 88         0.26171
      80 -> 88        -0.41141
      80 -> 92         0.11894
      86 -> 88         0.36995
      87 -> 88        -0.32219
      80 <- 88        -0.10179
 This state for optimization and/or second-order correction.
 Total Energy, E(TD-HF/TD-DFT) =  -1443.71194103
 Copying the excited state density for this state as the 1-particle RhoCI density.

 Excited state symmetry could not be determined.
 Excited State   2:      Triplet-?Sym    2.8905 eV  428.94 nm  f=0.0000  <S**2>=2.000
      79 -> 88         0.25741
      80 -> 88        -0.36949
      80 -> 92         0.10808
      84 -> 88        -0.12942
      86 -> 88        -0.21891
      87 -> 88         0.45206

 Excited state symmetry could not be determined.
 Excited State   3:      Singlet-?Sym    3.0115 eV  411.70 nm  f=0.0025  <S**2>=0.000
      87 -> 88         0.70565

 Excited state symmetry could not be determined.
 Excited State   4:      Singlet-?Sym    3.6744 eV  337.43 nm  f=0.0225  <S**2>=0.000
      86 -> 88         0.68717

 Alpha  occ. eigenvalues --  -89.12003 -19.18065 -19.18053 -19.14831 -19.14761
 Alpha  occ. eigenvalues --  -14.57142 -14.38519 -14.36566 -10.26463 -10.25536
 Alpha  occ. eigenvalues --  -10.24711 -10.24608 -10.22445 -10.22210 -10.22036
 Alpha  occ. eigenvalues --  -10.21782 -10.21602 -10.21555 -10.21472 -10.20943
 Alpha  occ. eigenvalues --  -10.20828 -10.20752 -10.19761  -8.14463  -6.11002
 Alpha  occ. eigenvalues --   -6.10873  -6.10745  -1.22352  -1.11664  -1.05058
 Alpha  occ. eigenvalues --   -1.00853  -0.96981  -0.95298  -0.88312  -0.86736
 Alpha  occ. eigenvalues --   -0.80627  -0.80400  -0.78029  -0.76818  -0.75744
 Alpha  occ. eigenvalues --   -0.70986  -0.70529  -0.67655  -0.64079  -0.62504
 Alpha  occ. eigenvalues --   -0.61265  -0.61073  -0.59153  -0.56430  -0.55048
 Alpha  occ. eigenvalues --   -0.53984  -0.53068  -0.51523  -0.51084  -0.50751
 Alpha  occ. eigenvalues --   -0.50222  -0.49480  -0.48299  -0.46769  -0.45972
 Alpha  occ. eigenvalues --   -0.45653  -0.45403  -0.44150  -0.42760  -0.42321
 Alpha  occ. eigenvalues --   -0.42080  -0.40944  -0.40221  -0.39833  -0.39248
 Alpha  occ. eigenvalues --   -0.38746  -0.37849  -0.36441  -0.35599  -0.34731
 Alpha  occ. eigenvalues --   -0.33860  -0.32409  -0.32176  -0.31003  -0.30876
 Alpha  occ. eigenvalues --   -0.30681  -0.30372  -0.29043  -0.28273  -0.26767
 Alpha  occ. eigenvalues --   -0.24498  -0.21650
 Alpha virt. eigenvalues --   -0.08864  -0.03475  -0.02266  -0.01794   0.00161
 Alpha virt. eigenvalues --    0.05403   0.06449   0.06998   0.08039   0.09129
 Alpha virt. eigenvalues --    0.09831   0.10664   0.11258   0.11949   0.12230

 Mulliken charges:
               1
     1  C   -0.453269
     2  C    0.035080
     3  C   -0.352530
     4  C    0.116668
     5  C   -0.224677
     6  C   -0.156264
     7  S    1.219477
     8  O   -0.538323
     9  O   -0.536215
    10  N   -0.782105
    11  C    0.324084
    12  C   -0.160584
    13  C   -0.144504
    14  C   -0.155207
    15  C    0.265658
    16  N    0.380400
    17  O   -0.394163
    18  O   -0.391381
    19  C   -0.205320
    20  C   -0.160727
    21  C   -0.178439
    22  C    0.333494
    23  N   -0.654792
    24  H    0.159302
    25  H    0.145035
    26  H    0.158638
    27  H    0.148258
    28  H    0.168280
    29  H    0.174541
    30  H    0.182284
    31  H    0.356135
    32  H    0.139185
    33  H    0.149909
    34  H    0.179664
    35  H    0.229719
    36  H    0.169481
    37  H    0.136132
    38  H    0.317079
 Sum of Mulliken charges =  -0.00000

 Dipole moment (field-independent basis, Debye):
    X=             -5.6635    Y=             -2.7915    Z=             -6.0742  Tot=              8.7615
 Quadrupole moment (field-independent basis, Debye-Ang):
   XX=           -132.0731   YY=           -162.6591   ZZ=           -134.8002
   XY=              1.6030   XZ=            -14.8725   YZ=             -1.4813

 Normal termination of Gaussian 16 at Sat Nov  5 11:52:36 2022.
