 Gaussian 16, Revision B.01,
 Gaussian 16:  ES64L-G16RevB.01 20-Dec-2017

 -----------------------------
 #p b3lyp/6-31g(d) opt SCF=XQC
 -----------------------------

 ------------------------------
 Gaussian input prepared by ASE
 ------------------------------
 Symbolic Z-matrix:
 Charge =  0 Multiplicity = 1

 SCF Done:  E(RB3LYP) =  -2061.17556644     A.U. after   15 cycles
 SCF Done:  E(RB3LYP) =  -2061.18303324     A.U. after   12 cycles
 SCF Done:  E(RB3LYP) =  -2061.17879845     A.U. after   13 cycles
 SCF Done:  E(RB3LYP) =  -2061.18359590     A.U. after   12 cycles
 SCF Done:  E(RB3LYP) =  -2061.18404263     A.U. after   13 cycles
 SCF Done:  E(RB3LYP) =  -2061.18463317     A.U. after   13 cycles
 SCF Done:  E(RB3LYP) =  -2061.18485599     A.U. after   12 cycles
 SCF Done:  E(RB3LYP) =  -2061.18490086     A.U. after   11 cycles
 SCF Done:  E(RB3LYP) =  -2061.18493075     A.U. after   10 cycles
 SCF Done:  E(RB3LYP) =  -2061.18495707     A.U. after   10 cycles
 SCF Done:  E(RB3LYP) =  -2061.18496221     A.U. after    9 cycles
 SCF Done:  E(RB3LYP) =  -2061.18496407     A.U. after    9 cycles
 SCF Done:  E(RB3LYP) =  -2061.18496493     A.U. after    8 cycles
 SCF Done:  E(RB3LYP) =  -2061.18496530     A.U. after    8 cycles
 SCF Done:  E(RB3LYP) =  -2061.18496537     A.U. after    7 cycles
 SCF Done:  E(RB3LYP) =  -2061.18496543     A.U. after    8 cycles
 SCF Done:  E(RB3LYP) =  -2061.18496546     A.U. after    7 cycles
 Optimization completed.
    -- Stationary point found.

                         Standard orientation:
 ---------------------------------------------------------------------
 Center     Atomic      Atomic             Coordinates (Angstroms)
 Number     Number       Type             X           Y           Z
 ---------------------------------------------------------------------
      1          6           0       -9.882270    0.540219   -1.903658
      2          6           0       -9.623507    0.130196   -0.461248
      3          8           0       -8.233328    0.301764   -0.104662
      4          6           0       -7.398991   -0.721795   -0.411780
      5          8           0       -7.768584   -1.747567   -0.954118
      6          6           0       -5.995786   -0.447821   -0.008021
      7          6           0       -5.030409   -1.432521   -0.263961
      8          6           0       -3.706569   -1.228370    0.092057
      9          6           0       -3.313843   -0.028964    0.715228
     10          7           0       -1.951403    0.096821    1.043519
     11          6           0       -1.306016    1.160297    1.619808
     12          8           0       -1.837475    2.208961    1.960308
     13          6           0        0.202829    0.953111    1.837820
     14          6           0        1.003058    0.559418    0.569284
     15          6           0        1.099955   -0.951739    0.379612
     16          8           0        0.169430   -1.743795    0.362241
     17          7           0        2.438357   -1.258647    0.273520
     18          6           0        2.922633   -2.600099    0.109183
     19          6           0        3.498013   -2.993354   -1.095446
     20          6           0        3.950437   -4.301958   -1.264276
     21          6           0        3.813805   -5.223840   -0.217946
     22          8           0        4.215279   -6.522356   -0.274378
     23          6           0        4.824039   -6.991690   -1.469212
     24          6           0        3.225546   -4.823140    0.992181
     25          6           0        2.786034   -3.517860    1.155227
     26          6           0        3.249732   -0.103217    0.394862
     27         16           0        4.903455   -0.078509    0.288585
     28          7           0        2.411952    0.946647    0.610845
     29          6           0        2.846450    2.341489    0.575880
     30          6           0        2.889310    2.928017   -0.851573
     31          6           0        3.354813    4.368142   -0.840955
     32          6           0        2.433850    5.423093   -0.802975
     33          6           0        2.867223    6.748960   -0.754664
     34          6           0        4.232509    7.038504   -0.741805
     35          6           0        5.160101    5.995291   -0.778252
     36          6           0        4.723533    4.671239   -0.826864
     37          6           0       -4.274294    0.963109    0.975426
     38          6           0       -5.599941    0.744469    0.612713
     39          1           0      -10.954256    0.473278   -2.123160
     40          1           0       -9.348588   -0.121124   -2.591778
     41          1           0       -9.558666    1.571435   -2.079607
     42          1           0       -9.904993   -0.911716   -0.290612
     43          1           0      -10.163104    0.772073    0.239961
     44          1           0       -5.340024   -2.354598   -0.744560
     45          1           0       -2.962796   -1.995277   -0.110361
     46          1           0       -1.368585   -0.710249    0.810796
     47          1           0        0.567743    1.909746    2.214854
     48          1           0        0.368152    0.206499    2.624313
     49          1           0        0.519660    0.995016   -0.317901
     50          1           0        3.602910   -2.276055   -1.902465
     51          1           0        4.401982   -4.587525   -2.206740
     52          1           0        5.747037   -6.441479   -1.692932
     53          1           0        4.140391   -6.917432   -2.324792
     54          1           0        5.063500   -8.040817   -1.288639
     55          1           0        3.128022   -5.552698    1.789225
     56          1           0        2.334743   -3.207433    2.092167
     57          1           0        2.166343    2.925357    1.203182
     58          1           0        3.839340    2.384178    1.027879
     59          1           0        3.566354    2.311695   -1.453378
     60          1           0        1.892031    2.859918   -1.304550
     61          1           0        1.367762    5.205256   -0.818067
     62          1           0        2.138064    7.554504   -0.730802
     63          1           0        4.571770    8.070258   -0.707051
     64          1           0        6.225041    6.212239   -0.772857
     65          1           0        5.449852    3.861898   -0.858517
     66          1           0       -3.973126    1.883701    1.454350
     67          1           0       -6.340202    1.510585    0.814499
 ---------------------------------------------------------------------

 The electronic state is 1-A.
 Alpha  occ. eigenvalues --  -88.84395 -19.19114 -19.18099 -19.17000 -19.13054
 Alpha  occ. eigenvalues --  -19.12366 -14.41939 -14.40519 -14.37779 -10.33446
 Alpha  occ. eigenvalues --  -10.32419 -10.30635 -10.30615 -10.27802 -10.26378
 Alpha  occ. eigenvalues --  -10.25126 -10.24415 -10.24315 -10.24142 -10.23718
 Alpha  occ. eigenvalues --  -10.22670 -10.21081 -10.21007 -10.20552 -10.20346
 Alpha  occ. eigenvalues --  -10.20334 -10.19971 -10.19493 -10.19441 -10.19416
 Alpha  occ. eigenvalues --  -10.19396 -10.19395 -10.19383 -10.19353 -10.19294
 Alpha  occ. eigenvalues --  -10.19252 -10.18581 -10.17777  -7.90641  -5.87174
 Alpha  occ. eigenvalues --   -5.86642  -5.86211  -1.09256  -1.08889  -1.07759
 Alpha  occ. eigenvalues --   -1.04840  -1.03720  -1.00130  -0.95608  -0.94660
 Alpha  occ. eigenvalues --   -0.86652  -0.86011  -0.85427  -0.82998  -0.80284
 Alpha  occ. eigenvalues --   -0.77960  -0.77503  -0.76655  -0.76323  -0.74917
 Alpha  occ. eigenvalues --   -0.74739  -0.74579  -0.73682  -0.71227  -0.69012
 Alpha  occ. eigenvalues --   -0.66907  -0.66117  -0.64047  -0.63343  -0.62828
 Alpha  occ. eigenvalues --   -0.62311  -0.61046  -0.60929  -0.58783  -0.58267
 Alpha  occ. eigenvalues --   -0.57391  -0.55506  -0.55246  -0.54645  -0.53608
 Alpha  occ. eigenvalues --   -0.53101  -0.52015  -0.51684  -0.50707  -0.49469
 Alpha  occ. eigenvalues --   -0.48709  -0.48144  -0.47959  -0.47459  -0.47165
 Alpha  occ. eigenvalues --   -0.46553  -0.46382  -0.45793  -0.45307  -0.44883
 Alpha  occ. eigenvalues --   -0.44523  -0.44156  -0.43905  -0.43382  -0.43313
 Alpha  occ. eigenvalues --   -0.43204  -0.42573  -0.42273  -0.42221  -0.41727
 Alpha  occ. eigenvalues --   -0.41510  -0.40643  -0.40444  -0.40136  -0.39849
 Alpha  occ. eigenvalues --   -0.39339  -0.38998  -0.38688  -0.38591  -0.38175
 Alpha  occ. eigenvalues --   -0.37637  -0.36966  -0.36376  -0.35959  -0.35837
 Alpha  occ. eigenvalues --   -0.34743  -0.34638  -0.34263  -0.34051  -0.33552
 Alpha  occ. eigenvalues --   -0.33229  -0.30826  -0.30462  -0.29006  -0.28833
 Alpha  occ. eigenvalues --   -0.26732  -0.26607  -0.26145  -0.25379  -0.25374
 Alpha  occ. eigenvalues --   -0.25142  -0.23831  -0.23533  -0.22578  -0.22414
 Alpha virt. eigenvalues --   -0.05545  -0.04176  -0.01701  -0.01364  -0.00577
 Alpha virt. eigenvalues --   -0.00491  -0.00165   0.01025   0.01439   0.07090
 Alpha virt. eigenvalues --    0.07684   0.07853   0.08463   0.08821   0.09430

 Mulliken charges:
               1
     1  C   -0.461502
     2  C   -0.040048
     3  O   -0.479776
     4  C    0.592267
     5  O   -0.500541
     6  C    0.058474
     7  C   -0.161335
     8  C   -0.215847
     9  C    0.364146
    10  N   -0.751544
    11  C    0.590339
    12  O   -0.494721
    13  C   -0.380003
    14  C   -0.061366
    15  C    0.615888
    16  O   -0.503523
    17  N   -0.588066
    18  C    0.269108
    19  C   -0.113729
    20  C   -0.211048
    21  C    0.394025
    22  O   -0.503783
    23  C   -0.220174
    24  C   -0.188705
    25  C   -0.118130
    26  C    0.356075
    27  S   -0.230125
    28  N   -0.438935
    29  C   -0.152898
    30  C   -0.360192
    31  C    0.161173
    32  C   -0.182769
    33  C   -0.127499
    34  C   -0.129084
    35  C   -0.128075
    36  C   -0.182462
    37  C   -0.169222
    38  C   -0.181178
    39  H    0.147792
    40  H    0.177215
    41  H    0.155756
    42  H    0.169957
    43  H    0.149920
    44  H    0.162943
    45  H    0.151491
    46  H    0.398595
    47  H    0.197844
    48  H    0.183865
    49  H    0.199349
    50  H    0.151386
    51  H    0.142561
    52  H    0.158295
    53  H    0.156403
    54  H    0.175890
    55  H    0.150067
    56  H    0.144150
    57  H    0.166666
    58  H    0.203765
    59  H    0.175531
    60  H    0.144637
    61  H    0.126857
    62  H    0.133581
    63  H    0.132133
    64  H    0.133785
    65  H    0.142054
    66  H    0.185528
    67  H    0.156772
 Sum of Mulliken charges =  -0.00000

 Dipole moment (field-independent basis, Debye):
    X=              2.7759    Y=             -0.2568    Z=             -1.6873  Tot=              3.2586
 Quadrupole moment (field-independent basis, Debye-Ang):
   XX=           -230.7450   YY=           -205.6263   ZZ=           -223.6306
   XY=            -19.6227   XZ=             -9.2490   YZ=              3.8023

 Normal termination of Gaussian 16 at Fri Nov  4 20:44:40 2022.
