 Gaussian 16, Revision B.01,
 Gaussian 16:  ES64L-G16RevB.01 20-Dec-2017

 -------------------------------------------------------------------
 #p b3lyp/6-31g(d) 6D 10F nosymm GFInput td=(50-50,nstate=2) SCF=XQC
 -------------------------------------------------------------------

 ------------------------------
 Gaussian input prepared by ASE
 ------------------------------
 Symbolic Z-matrix:
 Charge =  0 Multiplicity = 1

                          Input orientation:
 ---------------------------------------------------------------------
 Center     Atomic      Atomic             Coordinates (Angstroms)
 Number     Number       Type             X           Y           Z
 ---------------------------------------------------------------------
      1          6           0        9.340644    0.707523   -3.238268
      2          6           0        9.287553    0.758567   -1.718334
      3          8           0        7.974784    0.410469   -1.223710
      4          6           0        7.065379    1.414135   -1.162473
      5          8           0        7.309544    2.560373   -1.493321
      6          6           0        5.750760    0.954914   -0.644823
      7          6           0        4.721128    1.899738   -0.525416
      8          6           0        3.475038    1.524915   -0.048188
      9          6           0        3.226831    0.189995    0.322663
     10          7           0        1.935448   -0.105202    0.797033
     11          6           0        1.425423   -1.315681    1.189752
     12          8           0        2.041651   -2.373179    1.196554
     13          6           0       -0.039882   -1.272996    1.656795
     14          6           0       -1.037047   -0.659586    0.639969
     15          6           0       -1.218769    0.844027    0.827280
     16          8           0       -0.332296    1.684248    0.868791
     17          7           0       -2.568497    1.069644    0.982527
     18          6           0       -3.122595    2.374746    1.207710
     19          6           0       -3.887981    2.989402    0.221187
     20          6           0       -4.410050    4.265927    0.429900
     21          6           0       -4.151878    4.932731    1.634916
     22          8           0       -4.606245    6.177543    1.942329
     23          6           0       -5.406009    6.861437    0.987783
     24          6           0       -3.372658    4.310522    2.623192
     25          6           0       -2.864344    3.037609    2.411483
     26          6           0       -3.307771   -0.138512    0.938871
     27         16           0       -4.956412   -0.257620    1.059302
     28          7           0       -2.407746   -1.146721    0.783290
     29          6           0       -2.789297   -2.524574    0.480748
     30          6           0       -3.025184   -2.772182   -1.024749
     31          6           0       -3.428753   -4.206625   -1.289840
     32          6           0       -2.473277   -5.173240   -1.629338
     33          6           0       -2.843744   -6.502997   -1.835665
     34          6           0       -4.179414   -6.885592   -1.702942
     35          6           0       -5.140759   -5.931203   -1.363821
     36          6           0       -4.767113   -4.602910   -1.158653
     37          6           0        4.252521   -0.763313    0.206293
     38          6           0        5.498835   -0.372767   -0.274208
     39          1           0       10.363803    0.899851   -3.581738
     40          1           0        8.684361    1.467905   -3.670486
     41          1           0        9.033520   -0.277127   -3.605996
     42          1           0        9.551864    1.751775   -1.347375
     43          1           0        9.950919    0.014534   -1.269751
     44          1           0        4.919317    2.926897   -0.813043
     45          1           0        2.680657    2.262051    0.040723
     46          1           0        1.293948    0.689449    0.844026
     47          1           0       -0.307039   -2.314121    1.844290
     48          1           0       -0.112608   -0.739010    2.612255
     49          1           0       -0.677157   -0.845683   -0.382950
     50          1           0       -4.086387    2.469058   -0.709768
     51          1           0       -5.009394    4.725252   -0.346944
     52          1           0       -6.330672    6.311501    0.770354
     53          1           0       -4.857247    7.033472    0.052811
     54          1           0       -5.655049    7.821802    1.441979
     55          1           0       -3.183508    4.844509    3.548461
     56          1           0       -2.265142    2.555385    3.177187
     57          1           0       -2.000513   -3.185312    0.852503
     58          1           0       -3.700098   -2.740586    1.042653
     59          1           0       -3.808319   -2.085516   -1.364749
     60          1           0       -2.111160   -2.530957   -1.582209
     61          1           0       -1.430766   -4.881355   -1.739781
     62          1           0       -2.089327   -7.238049   -2.103426
     63          1           0       -4.470128   -7.919873   -1.865952
     64          1           0       -6.183637   -6.219934   -1.262655
     65          1           0       -5.520047   -3.862192   -0.897884
     66          1           0        4.062367   -1.788040    0.491491
     67          1           0        6.289621   -1.109245   -0.363055
 ---------------------------------------------------------------------

 SCF Done:  E(RB3LYP) =  -2061.18496664     A.U. after   15 cycles

 Excitation energies and oscillator strengths:

 Excited state symmetry could not be determined.
 Excited State   1:      Triplet-?Sym    3.2071 eV  386.60 nm  f=0.0000  <S**2>=2.000
     134 ->147         0.21064
     139 ->142        -0.46243
     140 ->142         0.46618
 This state for optimization and/or second-order correction.
 Total Energy, E(TD-HF/TD-DFT) =  -2061.06710964
 Copying the excited state density for this state as the 1-particle RhoCI density.

 Excited state symmetry could not be determined.
 Excited State   2:      Triplet-?Sym    3.2497 eV  381.53 nm  f=0.0000  <S**2>=2.000
     136 ->141        -0.13643
     137 ->141         0.16792
     138 ->141         0.39354
     139 ->141         0.35424
     140 ->141         0.37019

 Excited state symmetry could not be determined.
 Excited State   3:      Singlet-?Sym    3.5281 eV  351.42 nm  f=0.0003  <S**2>=0.000
     137 ->141        -0.12953
     138 ->141         0.17916
     139 ->141         0.43898
     140 ->141         0.49249

 Excited state symmetry could not be determined.
 Excited State   4:      Singlet-?Sym    4.1051 eV  302.02 nm  f=0.0002  <S**2>=0.000
     139 ->141         0.51812
     140 ->141        -0.47637

 Alpha  occ. eigenvalues --  -88.84395 -19.19114 -19.18099 -19.17000 -19.13054
 Alpha  occ. eigenvalues --  -19.12366 -14.41939 -14.40519 -14.37779 -10.33446
 Alpha  occ. eigenvalues --  -10.32419 -10.30635 -10.30615 -10.27802 -10.26378
 Alpha  occ. eigenvalues --  -10.25126 -10.24415 -10.24315 -10.24142 -10.23718
 Alpha  occ. eigenvalues --  -10.22670 -10.21081 -10.21007 -10.20552 -10.20346
 Alpha  occ. eigenvalues --  -10.20334 -10.19971 -10.19493 -10.19441 -10.19416
 Alpha  occ. eigenvalues --  -10.19396 -10.19396 -10.19383 -10.19353 -10.19294
 Alpha  occ. eigenvalues --  -10.19253 -10.18581 -10.17777  -7.90641  -5.87174
 Alpha  occ. eigenvalues --   -5.86642  -5.86211  -1.09256  -1.08889  -1.07759
 Alpha  occ. eigenvalues --   -1.04840  -1.03720  -1.00130  -0.95608  -0.94660
 Alpha  occ. eigenvalues --   -0.86652  -0.86011  -0.85427  -0.82998  -0.80284
 Alpha  occ. eigenvalues --   -0.77960  -0.77503  -0.76655  -0.76323  -0.74917
 Alpha  occ. eigenvalues --   -0.74739  -0.74579  -0.73682  -0.71227  -0.69012
 Alpha  occ. eigenvalues --   -0.66907  -0.66117  -0.64047  -0.63342  -0.62828
 Alpha  occ. eigenvalues --   -0.62311  -0.61046  -0.60929  -0.58784  -0.58267
 Alpha  occ. eigenvalues --   -0.57391  -0.55506  -0.55246  -0.54645  -0.53608
 Alpha  occ. eigenvalues --   -0.53101  -0.52015  -0.51684  -0.50707  -0.49469
 Alpha  occ. eigenvalues --   -0.48709  -0.48144  -0.47959  -0.47459  -0.47165
 Alpha  occ. eigenvalues --   -0.46553  -0.46382  -0.45793  -0.45307  -0.44883
 Alpha  occ. eigenvalues --   -0.44523  -0.44156  -0.43905  -0.43382  -0.43313
 Alpha  occ. eigenvalues --   -0.43204  -0.42573  -0.42273  -0.42221  -0.41727
 Alpha  occ. eigenvalues --   -0.41510  -0.40643  -0.40443  -0.40136  -0.39849
 Alpha  occ. eigenvalues --   -0.39339  -0.38998  -0.38688  -0.38591  -0.38175
 Alpha  occ. eigenvalues --   -0.37637  -0.36966  -0.36376  -0.35960  -0.35837
 Alpha  occ. eigenvalues --   -0.34743  -0.34638  -0.34263  -0.34051  -0.33552
 Alpha  occ. eigenvalues --   -0.33229  -0.30826  -0.30462  -0.29006  -0.28833
 Alpha  occ. eigenvalues --   -0.26732  -0.26607  -0.26145  -0.25379  -0.25374
 Alpha  occ. eigenvalues --   -0.25142  -0.23831  -0.23533  -0.22578  -0.22414
 Alpha virt. eigenvalues --   -0.05544  -0.04176  -0.01701  -0.01364  -0.00577
 Alpha virt. eigenvalues --   -0.00491  -0.00165   0.01025   0.01439   0.07090
 Alpha virt. eigenvalues --    0.07684   0.07853   0.08464   0.08821   0.09430

 Mulliken charges:
               1
     1  C   -0.461500
     2  C   -0.040048
     3  O   -0.479775
     4  C    0.592265
     5  O   -0.500542
     6  C    0.058476
     7  C   -0.161336
     8  C   -0.215849
     9  C    0.364137
    10  N   -0.751537
    11  C    0.590328
    12  O   -0.494711
    13  C   -0.380007
    14  C   -0.061364
    15  C    0.615892
    16  O   -0.503525
    17  N   -0.588055
    18  C    0.269104
    19  C   -0.113731
    20  C   -0.211030
    21  C    0.394011
    22  O   -0.503781
    23  C   -0.220181
    24  C   -0.188704
    25  C   -0.118122
    26  C    0.356067
    27  S   -0.230122
    28  N   -0.438939
    29  C   -0.152902
    30  C   -0.360181
    31  C    0.161177
    32  C   -0.182765
    33  C   -0.127519
    34  C   -0.129070
    35  C   -0.128074
    36  C   -0.182468
    37  C   -0.169215
    38  C   -0.181178
    39  H    0.147791
    40  H    0.177214
    41  H    0.155756
    42  H    0.169956
    43  H    0.149920
    44  H    0.162943
    45  H    0.151492
    46  H    0.398595
    47  H    0.197843
    48  H    0.183866
    49  H    0.199347
    50  H    0.151386
    51  H    0.142557
    52  H    0.158298
    53  H    0.156404
    54  H    0.175891
    55  H    0.150067
    56  H    0.144142
    57  H    0.166667
    58  H    0.203766
    59  H    0.175528
    60  H    0.144636
    61  H    0.126857
    62  H    0.133583
    63  H    0.132133
    64  H    0.133786
    65  H    0.142048
    66  H    0.185528
    67  H    0.156774
 Sum of Mulliken charges =  -0.00000

 Dipole moment (field-independent basis, Debye):
    X=             -3.0068    Y=              0.4332    Z=             -1.1789  Tot=              3.2586
 Quadrupole moment (field-independent basis, Debye-Ang):
   XX=           -225.3461   YY=           -207.9879   ZZ=           -225.8720
   XY=            -22.8327   XZ=              4.6573   YZ=              4.0143

 Normal termination of Gaussian 16 at Sat Nov  5 12:08:05 2022.
