 Gaussian 16, Revision B.01,
 Gaussian 16:  ES64L-G16RevB.01 20-Dec-2017

 -------------------------------------------------------------------
 #p b3lyp/6-31g(d) 6D 10F nosymm GFInput td=(50-50,nstate=2) SCF=XQC
 -------------------------------------------------------------------

 ------------------------------
 Gaussian input prepared by ASE
 ------------------------------
 Symbolic Z-matrix:
 Charge =  0 Multiplicity = 1

                          Input orientation:
 ---------------------------------------------------------------------
 Center     Atomic      Atomic             Coordinates (Angstroms)
 Number     Number       Type             X           Y           Z
 ---------------------------------------------------------------------
      1          6           0       -4.609322   -4.041846    1.007084
      2          6           0       -3.549972   -2.999057    0.739291
      3          6           0       -3.641011   -2.137752   -0.354670
      4          6           0       -2.694076   -1.135078   -0.592593
      5          6           0       -2.874668   -0.271309   -1.824604
      6          6           0       -1.582997   -0.980430    0.276564
      7          5           0       -0.508348    0.163292    0.035962
      8          6           0        1.017309   -0.197062   -0.135836
      9          6           0        1.870639    0.603795    0.568711
     10          6           0        3.286759    0.426785    0.916972
     11          6           0        3.907168   -0.833574    1.021657
     12          6           0        5.243778   -0.943102    1.399571
     13          6           0        5.994340    0.200582    1.683124
     14          6           0        5.390531    1.457769    1.602734
     15          6           0        4.051163    1.566183    1.237947
     16          6           0        1.453475   -1.312105   -1.011311
     17          6           0        0.890640   -2.528387   -1.164341
     18          6           0        1.571352   -3.358517   -2.224946
     19          6           0        2.396289   -2.307665   -3.005302
     20          6           0        2.612134   -1.152232   -2.001552
     21          6           0       -0.936034    1.692919   -0.002427
     22          6           0       -1.676250    2.299386    1.051288
     23          6           0       -2.075929    1.539252    2.299884
     24          6           0       -2.028127    3.649525    0.977466
     25          6           0       -1.702376    4.443687   -0.125633
     26          6           0       -2.114760    5.895488   -0.185488
     27          6           0       -0.990874    3.845072   -1.164467
     28          6           0       -0.591944    2.503781   -1.116358
     29          6           0        0.193018    1.974653   -2.302712
     30          6           0       -1.471852   -1.875671    1.375260
     31          6           0       -0.307147   -1.826683    2.345795
     32          6           0       -2.453520   -2.847969    1.591775
     33          1           0       -4.182196   -4.939000    1.468782
     34          1           0       -5.117461   -4.343537    0.084951
     35          1           0       -5.378691   -3.660991    1.692530
     36          1           0       -4.475746   -2.245007   -1.045313
     37          1           0       -2.904462    0.794130   -1.577593
     38          1           0       -3.804954   -0.524143   -2.343297
     39          1           0       -2.055333   -0.414761   -2.540596
     40          1           0        1.434781    1.504920    1.001429
     41          1           0        3.325357   -1.729315    0.828629
     42          1           0        5.699730   -1.926468    1.481431
     43          1           0        7.037083    0.111949    1.975942
     44          1           0        5.962114    2.353202    1.832638
     45          1           0        3.581657    2.546103    1.189005
     46          1           0        0.058839   -2.905663   -0.580829
     47          1           0        0.860098   -3.900795   -2.861304
     48          1           0        2.218222   -4.125174   -1.768479
     49          1           0        1.807113   -1.948176   -3.857412
     50          1           0        3.335320   -2.706665   -3.402818
     51          1           0        3.580405   -1.241417   -1.493341
     52          1           0        2.609920   -0.166230   -2.481100
     53          1           0       -1.200671    1.183078    2.857179
     54          1           0       -2.686735    0.662174    2.067798
     55          1           0       -2.649018    2.181757    2.975926
     56          1           0       -2.581273    4.092972    1.803928
     57          1           0       -3.204510    6.005224   -0.118183
     58          1           0       -1.788604    6.366201   -1.118391
     59          1           0       -1.684694    6.467928    0.646131
     60          1           0       -0.734664    4.438008   -2.040904
     61          1           0        0.024237    2.601655   -3.184783
     62          1           0        1.270217    1.974576   -2.099195
     63          1           0       -0.078958    0.949332   -2.570227
     64          1           0       -0.490385   -2.486887    3.199747
     65          1           0        0.625599   -2.150581    1.870218
     66          1           0       -0.126770   -0.821003    2.738920
     67          1           0       -2.354956   -3.511127    2.449740
 ---------------------------------------------------------------------

 SCF Done:  E(RB3LYP) =  -1227.24441485     A.U. after   14 cycles

 Excitation energies and oscillator strengths:

 Excited state symmetry could not be determined.
 Excited State   1:      Triplet-?Sym    2.3013 eV  538.75 nm  f=0.0000  <S**2>=2.000
     113 ->114         0.63771
     113 ->115        -0.22843
 This state for optimization and/or second-order correction.
 Total Energy, E(TD-HF/TD-DFT) =  -1227.15984315
 Copying the excited state density for this state as the 1-particle RhoCI density.

 Excited state symmetry could not be determined.
 Excited State   2:      Triplet-?Sym    3.1526 eV  393.28 nm  f=0.0000  <S**2>=2.000
     109 ->119        -0.12114
     110 ->118         0.13103
     111 ->114         0.29273
     111 ->116         0.19809
     112 ->114         0.49145
     112 ->115         0.19108

 Excited state symmetry could not be determined.
 Excited State   3:      Singlet-?Sym    3.4225 eV  362.26 nm  f=0.1914  <S**2>=0.000
     112 ->114        -0.19911
     113 ->114         0.65354
     113 ->115         0.15406

 Excited state symmetry could not be determined.
 Excited State   4:      Singlet-?Sym    3.6498 eV  339.70 nm  f=0.0816  <S**2>=0.000
     112 ->114         0.66930
     113 ->114         0.19025

 Alpha  occ. eigenvalues --  -10.19627 -10.19037 -10.19003 -10.18944 -10.18927
 Alpha  occ. eigenvalues --  -10.18919 -10.18892 -10.18868 -10.18825 -10.18795
 Alpha  occ. eigenvalues --  -10.18764 -10.18752 -10.18703 -10.18252 -10.17952
 Alpha  occ. eigenvalues --  -10.17878 -10.17736 -10.17505 -10.17379 -10.17313
 Alpha  occ. eigenvalues --  -10.17211 -10.17184 -10.17174 -10.17153 -10.17141
 Alpha  occ. eigenvalues --  -10.17105 -10.17096 -10.17011 -10.16996 -10.16070
 Alpha  occ. eigenvalues --  -10.15993  -6.73964  -0.85535  -0.84810  -0.84480
 Alpha  occ. eigenvalues --   -0.83509  -0.78652  -0.77167  -0.77003  -0.76744
 Alpha  occ. eigenvalues --   -0.76571  -0.74333  -0.73400  -0.69606  -0.69145
 Alpha  occ. eigenvalues --   -0.69000  -0.68810  -0.67411  -0.66812  -0.66502
 Alpha  occ. eigenvalues --   -0.66415  -0.61627  -0.60196  -0.57261  -0.56771
 Alpha  occ. eigenvalues --   -0.56014  -0.55960  -0.55617  -0.55478  -0.52005
 Alpha  occ. eigenvalues --   -0.50210  -0.49623  -0.47457  -0.47139  -0.46642
 Alpha  occ. eigenvalues --   -0.46326  -0.45904  -0.45669  -0.44091  -0.42535
 Alpha  occ. eigenvalues --   -0.42217  -0.42019  -0.41842  -0.41639  -0.41373
 Alpha  occ. eigenvalues --   -0.40863  -0.40727  -0.40546  -0.40156  -0.40005
 Alpha  occ. eigenvalues --   -0.39521  -0.39263  -0.39036  -0.38969  -0.38747
 Alpha  occ. eigenvalues --   -0.38457  -0.38407  -0.37465  -0.36523  -0.36438
 Alpha  occ. eigenvalues --   -0.36138  -0.35522  -0.35228  -0.34976  -0.34232
 Alpha  occ. eigenvalues --   -0.33886  -0.33336  -0.33188  -0.32929  -0.32616
 Alpha  occ. eigenvalues --   -0.32335  -0.32263  -0.31887  -0.29853  -0.29416
 Alpha  occ. eigenvalues --   -0.28279  -0.24943  -0.24179  -0.22854  -0.22521
 Alpha  occ. eigenvalues --   -0.22251  -0.21882  -0.20294
 Alpha virt. eigenvalues --   -0.05793  -0.02545   0.00045   0.00111   0.01115
 Alpha virt. eigenvalues --    0.01663   0.02874   0.04408   0.07826   0.08427
 Alpha virt. eigenvalues --    0.09882   0.10255   0.11017   0.11199   0.11466

 Mulliken charges:
               1
     1  C   -0.531093
     2  C    0.195547
     3  C   -0.233832
     4  C    0.107876
     5  C   -0.549207
     6  C   -0.011931
     7  B    0.110187
     8  C    0.027676
     9  C   -0.283053
    10  C    0.169435
    11  C   -0.188847
    12  C   -0.133877
    13  C   -0.127187
    14  C   -0.131886
    15  C   -0.182780
    16  C    0.061178
    17  C   -0.160284
    18  C   -0.304963
    19  C   -0.278920
    20  C   -0.326709
    21  C   -0.011586
    22  C    0.100688
    23  C   -0.545531
    24  C   -0.229558
    25  C    0.195730
    26  C   -0.532261
    27  C   -0.235168
    28  C    0.103827
    29  C   -0.539219
    30  C    0.094398
    31  C   -0.541666
    32  C   -0.234542
    33  H    0.155393
    34  H    0.155026
    35  H    0.164112
    36  H    0.109808
    37  H    0.180386
    38  H    0.148463
    39  H    0.160500
    40  H    0.142619
    41  H    0.148754
    42  H    0.130800
    43  H    0.130262
    44  H    0.130792
    45  H    0.132835
    46  H    0.147040
    47  H    0.140479
    48  H    0.140947
    49  H    0.140784
    50  H    0.132535
    51  H    0.153977
    52  H    0.144444
    53  H    0.158236
    54  H    0.182335
    55  H    0.147901
    56  H    0.110122
    57  H    0.161554
    58  H    0.153814
    59  H    0.160939
    60  H    0.109711
    61  H    0.148857
    62  H    0.171987
    63  H    0.161085
    64  H    0.148239
    65  H    0.171989
    66  H    0.161127
    67  H    0.109711
 Sum of Mulliken charges =  -0.00000

 Dipole moment (field-independent basis, Debye):
    X=              0.3706    Y=              0.1014    Z=              0.0954  Tot=              0.3959
 Quadrupole moment (field-independent basis, Debye-Ang):
   XX=           -180.9016   YY=           -179.2363   ZZ=           -187.5746
   XY=              0.6750   XZ=              1.4831   YZ=             -0.8733

 Normal termination of Gaussian 16 at Sat Nov  5 10:21:16 2022.
