 Gaussian 16, Revision B.01,
 Gaussian 16:  ES64L-G16RevB.01 20-Dec-2017

 -----------------------------
 #p b3lyp/6-31g(d) opt SCF=XQC
 -----------------------------

 ------------------------------
 Gaussian input prepared by ASE
 ------------------------------
 Symbolic Z-matrix:
 Charge =  0 Multiplicity = 1

 SCF Done:  E(RB3LYP) =  -1227.23415069     A.U. after   14 cycles
 SCF Done:  E(RB3LYP) =  -1227.24214632     A.U. after   13 cycles
 SCF Done:  E(RB3LYP) =  -1227.24041891     A.U. after   14 cycles
 SCF Done:  E(RB3LYP) =  -1227.23806348     A.U. after   13 cycles
 SCF Done:  E(RB3LYP) =  -1227.23899068     A.U. after   12 cycles
 SCF Done:  E(RB3LYP) =  -1227.24247683     A.U. after   11 cycles
 SCF Done:  E(RB3LYP) =  -1227.24316390     A.U. after   12 cycles
 SCF Done:  E(RB3LYP) =  -1227.24332975     A.U. after   13 cycles
 SCF Done:  E(RB3LYP) =  -1227.24417957     A.U. after   12 cycles
 SCF Done:  E(RB3LYP) =  -1227.24384827     A.U. after   12 cycles
 SCF Done:  E(RB3LYP) =  -1227.24441571     A.U. after    8 cycles
 SCF Done:  E(RB3LYP) =  -1227.24441707     A.U. after    8 cycles
 SCF Done:  E(RB3LYP) =  -1227.24441747     A.U. after    7 cycles
 SCF Done:  E(RB3LYP) =  -1227.24441772     A.U. after    8 cycles
 SCF Done:  E(RB3LYP) =  -1227.24441788     A.U. after    8 cycles
 SCF Done:  E(RB3LYP) =  -1227.24441800     A.U. after    7 cycles
 SCF Done:  E(RB3LYP) =  -1227.24441808     A.U. after    7 cycles
 SCF Done:  E(RB3LYP) =  -1227.24441812     A.U. after    6 cycles
 SCF Done:  E(RB3LYP) =  -1227.24441817     A.U. after    7 cycles
 SCF Done:  E(RB3LYP) =  -1227.24441820     A.U. after    6 cycles
 Optimization completed.
    -- Stationary point found.

                         Standard orientation:
 ---------------------------------------------------------------------
 Center     Atomic      Atomic             Coordinates (Angstroms)
 Number     Number       Type             X           Y           Z
 ---------------------------------------------------------------------
      1          6           0        4.848783   -3.837575   -1.165538
      2          6           0        3.752223   -2.849901   -0.843974
      3          6           0        3.832137   -2.016181    0.272006
      4          6           0        2.848872   -1.062829    0.560026
      5          6           0        3.021410   -0.226573    1.812013
      6          6           0        1.711793   -0.932763   -0.279009
      7          5           0        0.594964    0.155795    0.018635
      8          6           0       -0.909254   -0.275493    0.214384
      9          6           0       -1.812781    0.506598   -0.447360
     10          6           0       -3.227862    0.277647   -0.768513
     11          6           0       -3.795787   -1.005213   -0.895420
     12          6           0       -5.135064   -1.162474   -1.246058
     13          6           0       -5.940674   -0.045228   -1.479537
     14          6           0       -5.389772    1.234413   -1.376625
     15          6           0       -4.048005    1.391049   -1.039199
     16          6           0       -1.276078   -1.432427    1.067006
     17          6           0       -0.657951   -2.626745    1.172196
     18          6           0       -1.276876   -3.514977    2.223550
     19          6           0       -2.127451   -2.523258    3.052274
     20          6           0       -2.416641   -1.350904    2.087347
     21          6           0        0.957234    1.700986    0.091397
     22          6           0        1.645378    2.368261   -0.960857
     23          6           0        2.047555    1.661309   -2.239533
     24          6           0        1.940498    3.729907   -0.856144
     25          6           0        1.607231    4.478114    0.276444
     26          6           0        1.958078    5.944319    0.368762
     27          6           0        0.947074    3.820348    1.313405
     28          6           0        0.605190    2.464768    1.235704
     29          6           0       -0.127815    1.869087    2.423746
     30          6           0        1.613145   -1.801120   -1.400244
     31          6           0        0.424637   -1.776098   -2.342422
     32          6           0        2.630304   -2.723215   -1.666781
     33          1           0        4.449782   -4.739349   -1.643123
     34          1           0        5.391239   -4.142295   -0.264185
     35          1           0        5.584518   -3.404572   -1.856927
     36          1           0        4.686918   -2.106026    0.940251
     37          1           0        2.999448    0.845604    1.595180
     38          1           0        3.973797   -0.452849    2.302072
     39          1           0        2.226282   -0.425523    2.541891
     40          1           0       -1.426522    1.437580   -0.863674
     41          1           0       -3.171546   -1.879703   -0.741456
     42          1           0       -5.550104   -2.162162   -1.345892
     43          1           0       -6.985314   -0.171152   -1.751169
     44          1           0       -6.004662    2.110068   -1.567680
     45          1           0       -3.620063    2.388802   -0.972667
     46          1           0        0.175185   -2.950963    0.559429
     47          1           0       -0.528003   -4.043146    2.827805
     48          1           0       -1.900844   -4.296173    1.759913
     49          1           0       -1.534170   -2.162199    3.900865
     50          1           0       -3.038716   -2.973790    3.459233
     51          1           0       -3.392001   -1.468139    1.598769
     52          1           0       -2.445436   -0.379457    2.594922
     53          1           0        1.175414    1.282871   -2.786952
     54          1           0        2.700883    0.805638   -2.046654
     55          1           0        2.576214    2.346776   -2.909556
     56          1           0        2.454222    4.219894   -1.681768
     57          1           0        3.040186    6.103380    0.280059
     58          1           0        1.634272    6.374222    1.321960
     59          1           0        1.484107    6.520319   -0.436103
     60          1           0        0.686527    4.376937    2.212117
     61          1           0        0.034783    2.478104    3.319474
     62          1           0       -1.208552    1.827614    2.244683
     63          1           0        0.194314    0.849586    2.655411
     64          1           0        0.615731   -2.403677   -3.218954
     65          1           0       -0.481723   -2.153523   -1.855433
     66          1           0        0.191852   -0.768719   -2.702246
     67          1           0        2.539968   -3.365942   -2.541045
 ---------------------------------------------------------------------

 The electronic state is 1-A.
 Alpha  occ. eigenvalues --  -10.19627 -10.19037 -10.19003 -10.18944 -10.18927
 Alpha  occ. eigenvalues --  -10.18919 -10.18892 -10.18868 -10.18825 -10.18795
 Alpha  occ. eigenvalues --  -10.18764 -10.18752 -10.18703 -10.18253 -10.17952
 Alpha  occ. eigenvalues --  -10.17878 -10.17736 -10.17505 -10.17379 -10.17314
 Alpha  occ. eigenvalues --  -10.17211 -10.17184 -10.17174 -10.17153 -10.17141
 Alpha  occ. eigenvalues --  -10.17105 -10.17097 -10.17011 -10.16996 -10.16070
 Alpha  occ. eigenvalues --  -10.15993  -6.73964  -0.85535  -0.84810  -0.84480
 Alpha  occ. eigenvalues --   -0.83509  -0.78652  -0.77167  -0.77003  -0.76744
 Alpha  occ. eigenvalues --   -0.76571  -0.74333  -0.73400  -0.69606  -0.69145
 Alpha  occ. eigenvalues --   -0.69001  -0.68810  -0.67411  -0.66812  -0.66502
 Alpha  occ. eigenvalues --   -0.66415  -0.61627  -0.60196  -0.57261  -0.56771
 Alpha  occ. eigenvalues --   -0.56014  -0.55960  -0.55617  -0.55478  -0.52005
 Alpha  occ. eigenvalues --   -0.50210  -0.49623  -0.47457  -0.47139  -0.46642
 Alpha  occ. eigenvalues --   -0.46326  -0.45904  -0.45669  -0.44091  -0.42535
 Alpha  occ. eigenvalues --   -0.42217  -0.42019  -0.41842  -0.41639  -0.41373
 Alpha  occ. eigenvalues --   -0.40863  -0.40727  -0.40546  -0.40156  -0.40005
 Alpha  occ. eigenvalues --   -0.39521  -0.39263  -0.39036  -0.38969  -0.38747
 Alpha  occ. eigenvalues --   -0.38457  -0.38407  -0.37465  -0.36523  -0.36438
 Alpha  occ. eigenvalues --   -0.36138  -0.35522  -0.35228  -0.34976  -0.34232
 Alpha  occ. eigenvalues --   -0.33886  -0.33336  -0.33188  -0.32929  -0.32616
 Alpha  occ. eigenvalues --   -0.32335  -0.32263  -0.31887  -0.29853  -0.29416
 Alpha  occ. eigenvalues --   -0.28279  -0.24943  -0.24179  -0.22854  -0.22521
 Alpha  occ. eigenvalues --   -0.22251  -0.21882  -0.20294
 Alpha virt. eigenvalues --   -0.05793  -0.02545   0.00045   0.00111   0.01115
 Alpha virt. eigenvalues --    0.01663   0.02874   0.04408   0.07826   0.08427
 Alpha virt. eigenvalues --    0.09882   0.10255   0.11017   0.11199   0.11466

 Mulliken charges:
               1
     1  C   -0.531091
     2  C    0.195543
     3  C   -0.233817
     4  C    0.107832
     5  C   -0.549207
     6  C   -0.011896
     7  B    0.110183
     8  C    0.027710
     9  C   -0.283057
    10  C    0.169422
    11  C   -0.188838
    12  C   -0.133880
    13  C   -0.127186
    14  C   -0.131881
    15  C   -0.182782
    16  C    0.061119
    17  C   -0.160274
    18  C   -0.304964
    19  C   -0.278918
    20  C   -0.326689
    21  C   -0.011577
    22  C    0.100699
    23  C   -0.545535
    24  C   -0.229557
    25  C    0.195724
    26  C   -0.532258
    27  C   -0.235173
    28  C    0.103820
    29  C   -0.539225
    30  C    0.094390
    31  C   -0.541668
    32  C   -0.234537
    33  H    0.155393
    34  H    0.155025
    35  H    0.164113
    36  H    0.109808
    37  H    0.180387
    38  H    0.148463
    39  H    0.160502
    40  H    0.142619
    41  H    0.148755
    42  H    0.130800
    43  H    0.130262
    44  H    0.130792
    45  H    0.132833
    46  H    0.147041
    47  H    0.140479
    48  H    0.140947
    49  H    0.140783
    50  H    0.132535
    51  H    0.153978
    52  H    0.144443
    53  H    0.158236
    54  H    0.182336
    55  H    0.147901
    56  H    0.110122
    57  H    0.161553
    58  H    0.153813
    59  H    0.160939
    60  H    0.109711
    61  H    0.148859
    62  H    0.171991
    63  H    0.161085
    64  H    0.148239
    65  H    0.171990
    66  H    0.161128
    67  H    0.109712
 Sum of Mulliken charges =  -0.00000

 Dipole moment (field-independent basis, Debye):
    X=             -0.3768    Y=              0.0877    Z=             -0.0840  Tot=              0.3959
 Quadrupole moment (field-independent basis, Debye-Ang):
   XX=           -180.8472   YY=           -179.3622   ZZ=           -187.5902
   XY=             -0.7372   XZ=              1.2305   YZ=              1.1919

 1\1\GINC-NODE25\FOpt\RB3LYP\6-31G(d)\C31H35B1\WYKGROUP\04-Nov-2022\0\\
 #p b3lyp/6-31g(d) opt SCF=XQC\\Gaussian input prepared by ASE\\0,1\C,-
 4.6093220663,-4.0418460549,1.0070838504\C,-3.5499717011,-2.9990568996,
 0.7392913787\C,-3.6410105465,-2.1377517024,-0.3546703186\C,-2.69407626
 49,-1.1350783448,-0.5925929464\C,-2.8746679823,-0.2713091521,-1.824604
 446\C,-1.5829971151,-0.9804299822,0.2765635005\B,-0.5083483923,0.16329
 16194,0.0359618764\C,1.0173087651,-0.1970621515,-0.1358359368\C,1.8706
 389616,0.6037950461,0.568711372\C,3.2867589593,0.426785413,0.916971923

 Normal termination of Gaussian 16 at Fri Nov  4 23:54:11 2022.
