 Gaussian 16, Revision B.01,
 Gaussian 16:  ES64L-G16RevB.01 20-Dec-2017

 -----------------------------
 #p b3lyp/6-31g(d) opt SCF=XQC
 -----------------------------

 ------------------------------
 Gaussian input prepared by ASE
 ------------------------------
 Symbolic Z-matrix:
 Charge =  0 Multiplicity = 1

 SCF Done:  E(RB3LYP) =  -1157.65086704     A.U. after   14 cycles
 SCF Done:  E(RB3LYP) =  -1157.66144765     A.U. after   13 cycles
 SCF Done:  E(RB3LYP) =  -1157.66271924     A.U. after   11 cycles
 SCF Done:  E(RB3LYP) =  -1157.66291661     A.U. after   11 cycles
 SCF Done:  E(RB3LYP) =  -1157.66294674     A.U. after   10 cycles
 SCF Done:  E(RB3LYP) =  -1157.66295221     A.U. after    9 cycles
 SCF Done:  E(RB3LYP) =  -1157.66295252     A.U. after    7 cycles
 Optimization completed.
    -- Stationary point found.

                         Standard orientation:
 ---------------------------------------------------------------------
 Center     Atomic      Atomic             Coordinates (Angstroms)
 Number     Number       Type             X           Y           Z
 ---------------------------------------------------------------------
      1          6           0       -2.977050    3.322246    0.618302
      2          6           0       -3.447183    2.263482   -0.158251
      3          6           0       -2.585272    1.346297   -0.788130
      4          6           0       -1.203291    1.542235   -0.621048
      5          6           0       -0.732669    2.622231    0.159261
      6          6           0       -1.606733    3.510528    0.785472
      7          6           0        0.732669    2.622231    0.159261
      8          6           0        1.606733    3.510528    0.785472
      9          6           0        2.977050    3.322246    0.618302
     10          6           0        3.447183    2.263482   -0.158251
     11          6           0        2.585271    1.346297   -0.788130
     12          6           0        1.203291    1.542235   -0.621048
     13          6           0        0.000000    0.768556   -1.163352
     14          6           0        3.226702    0.242589   -1.617331
     15          6           0        4.064572   -0.798291   -0.799308
     16          6           0        3.142094   -1.639159    0.048789
     17          6           0        2.811515   -1.257658    1.356605
     18          6           0        1.616955   -1.674035    1.951446
     19          6           0        0.737375   -2.461522    1.206141
     20          6           0        1.164640   -3.017681   -0.020713
     21          6           0        2.364337   -2.622561   -0.587168
     22          6           0        0.000000   -3.702933   -0.710982
     23          6           0       -1.164640   -3.017681   -0.020713
     24          6           0       -2.364337   -2.622561   -0.587168
     25          6           0       -3.142094   -1.639159    0.048789
     26          6           0       -2.811515   -1.257658    1.356605
     27          6           0       -1.616955   -1.674035    1.951446
     28          6           0       -0.737375   -2.461522    1.206141
     29          6           0       -4.064572   -0.798291   -0.799308
     30          6           0       -3.226702    0.242589   -1.617331
     31          1           0       -3.683085    4.004459    1.084795
     32          1           0       -4.520686    2.144276   -0.290722
     33          1           0       -1.229960    4.336342    1.383213
     34          1           0        1.229960    4.336342    1.383213
     35          1           0        3.683085    4.004459    1.084795
     36          1           0        4.520686    2.144276   -0.290722
     37          1           0        0.000000    0.729749   -2.262028
     38          1           0        0.000000   -0.272585   -0.817017
     39          1           0        3.897679    0.707848   -2.352840
     40          1           0        2.465940   -0.299748   -2.188682
     41          1           0        4.803834   -0.271963   -0.184746
     42          1           0        4.620060   -1.419801   -1.513506
     43          1           0        3.428984   -0.523059    1.867282
     44          1           0        1.320116   -1.258060    2.910821
     45          1           0        2.623699   -2.943330   -1.595128
     46          1           0        0.000000   -3.561112   -1.797156
     47          1           0        0.000000   -4.788154   -0.527566
     48          1           0       -2.623699   -2.943330   -1.595128
     49          1           0       -3.428984   -0.523059    1.867282
     50          1           0       -1.320116   -1.258060    2.910821
     51          1           0       -4.620060   -1.419801   -1.513506
     52          1           0       -4.803834   -0.271964   -0.184746
     53          1           0       -2.465940   -0.299748   -2.188682
     54          1           0       -3.897679    0.707847   -2.352840
 ---------------------------------------------------------------------

 The electronic state is 1-A.
 Alpha  occ. eigenvalues --  -10.19488 -10.19180 -10.19180 -10.19044 -10.19044
 Alpha  occ. eigenvalues --  -10.19014 -10.19013 -10.18988 -10.18984 -10.18984
 Alpha  occ. eigenvalues --  -10.18831 -10.18831 -10.18830 -10.18828 -10.18789
 Alpha  occ. eigenvalues --  -10.18759 -10.18439 -10.18438 -10.18379 -10.18379
 Alpha  occ. eigenvalues --  -10.18359 -10.18327 -10.18271 -10.18271 -10.18177
 Alpha  occ. eigenvalues --  -10.18177 -10.18092 -10.18092 -10.17994 -10.17994
 Alpha  occ. eigenvalues --   -0.88404  -0.87618  -0.84878  -0.83675  -0.81581
 Alpha  occ. eigenvalues --   -0.79025  -0.78189  -0.77927  -0.76399  -0.73903
 Alpha  occ. eigenvalues --   -0.73224  -0.72445  -0.70576  -0.68440  -0.68346
 Alpha  occ. eigenvalues --   -0.67980  -0.64901  -0.62226  -0.61807  -0.59860
 Alpha  occ. eigenvalues --   -0.58150  -0.57448  -0.57312  -0.56124  -0.55503
 Alpha  occ. eigenvalues --   -0.53762  -0.50802  -0.50004  -0.48111  -0.48038
 Alpha  occ. eigenvalues --   -0.47472  -0.46717  -0.45507  -0.44996  -0.44476
 Alpha  occ. eigenvalues --   -0.43782  -0.43519  -0.43439  -0.42575  -0.42381
 Alpha  occ. eigenvalues --   -0.42224  -0.41289  -0.40820  -0.40501  -0.40088
 Alpha  occ. eigenvalues --   -0.39488  -0.39111  -0.38779  -0.37361  -0.36811
 Alpha  occ. eigenvalues --   -0.36329  -0.36188  -0.35772  -0.35144  -0.35056
 Alpha  occ. eigenvalues --   -0.34211  -0.34171  -0.33148  -0.32917  -0.32507
 Alpha  occ. eigenvalues --   -0.32241  -0.31799  -0.31467  -0.31463  -0.26909
 Alpha  occ. eigenvalues --   -0.25988  -0.24461  -0.24237  -0.23395  -0.22736
 Alpha  occ. eigenvalues --   -0.20597  -0.19429
 Alpha virt. eigenvalues --   -0.02923  -0.02374  -0.01326  -0.00004   0.01186
 Alpha virt. eigenvalues --    0.02109   0.03013   0.04312   0.09597   0.09730
 Alpha virt. eigenvalues --    0.10318   0.10385   0.11187   0.11844   0.12217

 Mulliken charges:
               1
     1  C   -0.133034
     2  C   -0.191454
     3  C    0.121335
     4  C    0.040003
     5  C    0.086637
     6  C   -0.195807
     7  C    0.086637
     8  C   -0.195807
     9  C   -0.133034
    10  C   -0.191454
    11  C    0.121335
    12  C    0.040003
    13  C   -0.434514
    14  C   -0.346338
    15  C   -0.345890
    16  C    0.164664
    17  C   -0.176369
    18  C   -0.182746
    19  C    0.065848
    20  C    0.086526
    21  C   -0.241122
    22  C   -0.406759
    23  C    0.086526
    24  C   -0.241122
    25  C    0.164664
    26  C   -0.176369
    27  C   -0.182746
    28  C    0.065848
    29  C   -0.345890
    30  C   -0.346338
    31  H    0.124275
    32  H    0.117355
    33  H    0.125566
    34  H    0.125566
    35  H    0.124275
    36  H    0.117355
    37  H    0.161363
    38  H    0.196842
    39  H    0.146837
    40  H    0.146816
    41  H    0.145275
    42  H    0.139882
    43  H    0.129977
    44  H    0.131230
    45  H    0.118260
    46  H    0.155105
    47  H    0.172510
    48  H    0.118260
    49  H    0.129977
    50  H    0.131230
    51  H    0.139882
    52  H    0.145275
    53  H    0.146816
    54  H    0.146837
 Sum of Mulliken charges =  -0.00000

 Dipole moment (field-independent basis, Debye):
    X=             -0.0000    Y=              0.1177    Z=             -1.2422  Tot=              1.2478
 Quadrupole moment (field-independent basis, Debye-Ang):
   XX=           -162.4936   YY=           -173.7832   ZZ=           -166.8239
   XY=              0.0000   XZ=              0.0000   YZ=             11.2108

 Normal termination of Gaussian 16 at Fri Nov  4 23:04:41 2022.
