 Gaussian 16, Revision B.01,
 Gaussian 16:  ES64L-G16RevB.01 20-Dec-2017

 -------------------------------------------------------------------
 #p b3lyp/6-31g(d) 6D 10F nosymm GFInput td=(50-50,nstate=2) SCF=XQC
 -------------------------------------------------------------------

 ------------------------------
 Gaussian input prepared by ASE
 ------------------------------
 Symbolic Z-matrix:
 Charge =  0 Multiplicity = 1

                          Input orientation:
 ---------------------------------------------------------------------
 Center     Atomic      Atomic             Coordinates (Angstroms)
 Number     Number       Type             X           Y           Z
 ---------------------------------------------------------------------
      1          6           0        2.446259   -3.280568   -1.901772
      2          6           0        1.689458   -3.669153   -0.796650
      3          6           0        1.168641   -2.743504    0.126816
      4          6           0        1.453525   -1.384621   -0.093317
      5          6           0        2.228689   -0.997678   -1.209629
      6          6           0        2.722644   -1.932432   -2.119268
      7          6           0        2.402069    0.457350   -1.202651
      8          6           0        3.102863    1.258425   -2.103964
      9          6           0        3.150752    2.631639   -1.873416
     10          6           0        2.505203    3.176704   -0.763816
     11          6           0        1.780423    2.390660    0.151440
     12          6           0        1.738273    1.005028   -0.081855
     13          6           0        1.074488   -0.131434    0.698161
     14          6           0        1.132448    3.108208    1.327210
     15          6           0       -0.025827    4.091863    0.945846
     16          6           0       -1.218036    3.307262    0.455608
     17          6           0       -1.373772    2.999415   -0.903136
     18          6           0       -2.114238    1.886586   -1.312406
     19          6           0       -2.679582    1.063460   -0.336637
     20          6           0       -2.703174    1.490102    1.010382
     21          6           0       -1.991975    2.611682    1.400919
     22          6           0       -3.227376    0.375424    1.896458
     23          6           0       -2.978776   -0.822788    0.999288
     24          6           0       -2.551474   -2.083721    1.378399
     25          6           0       -1.961584   -2.932711    0.425679
     26          6           0       -2.039092   -2.584051   -0.929916
     27          6           0       -2.496876   -1.324569   -1.327807
     28          6           0       -2.854075   -0.400914   -0.343660
     29          6           0       -0.987672   -3.980085    0.907131
     30          6           0        0.368878   -3.299790    1.296475
     31          1           0        2.826692   -4.033651   -2.587085
     32          1           0        1.499674   -4.728423   -0.635106
     33          1           0        3.316982   -1.619711   -2.973779
     34          1           0        3.608041    0.822901   -2.962063
     35          1           0        3.698261    3.280691   -2.552003
     36          1           0        2.569454    4.249334   -0.592046
     37          1           0        1.433223   -0.179160    1.736249
     38          1           0       -0.013730   -0.002024    0.752542
     39          1           0        1.906745    3.689180    1.847388
     40          1           0        0.745617    2.384671    2.052597
     41          1           0        0.328117    4.797833    0.185883
     42          1           0       -0.278899    4.677157    1.839326
     43          1           0       -0.804119    3.556925   -1.642306
     44          1           0       -2.108903    1.592027   -2.358711
     45          1           0       -1.896157    2.856395    2.457839
     46          1           0       -2.705920    0.308679    2.857455
     47          1           0       -4.297876    0.501918    2.118658
     48          1           0       -2.517032   -2.354082    2.432848
     49          1           0       -1.615558   -3.252790   -1.674967
     50          1           0       -2.421297   -1.029628   -2.371285
     51          1           0       -1.372195   -4.497949    1.795320
     52          1           0       -0.808668   -4.742236    0.140126
     53          1           0        0.162074   -2.512509    2.029108
     54          1           0        0.984394   -4.051330    1.810263
 ---------------------------------------------------------------------

 SCF Done:  E(RB3LYP) =  -1157.66295308     A.U. after   14 cycles

 Excitation energies and oscillator strengths:

 Excited state symmetry could not be determined.
 Excited State   1:      Triplet-?Sym    2.6715 eV  464.10 nm  f=0.0000  <S**2>=2.000
      96 ->109         0.12717
      97 ->105        -0.11599
     102 ->103         0.63845
     102 ->104         0.14416
 This state for optimization and/or second-order correction.
 Total Energy, E(TD-HF/TD-DFT) =  -1157.56477770
 Copying the excited state density for this state as the 1-particle RhoCI density.

 Excited state symmetry could not be determined.
 Excited State   2:      Triplet-?Sym    3.0316 eV  408.98 nm  f=0.0000  <S**2>=2.000
      95 ->110         0.13286
      99 ->106        -0.15174
     100 ->107         0.13860
     101 ->103        -0.18525
     101 ->104         0.58546
     101 ->105        -0.14418

 Excited state symmetry could not be determined.
 Excited State   3:      Singlet-?Sym    4.0401 eV  306.88 nm  f=0.0816  <S**2>=0.000
     101 ->104         0.10072
     102 ->103         0.57603
     102 ->104        -0.36135
     102 ->105        -0.14169

 Excited state symmetry could not be determined.
 Excited State   4:      Singlet-?Sym    4.1050 eV  302.03 nm  f=0.1004  <S**2>=0.000
      97 ->103         0.11372
     102 ->103         0.36978
     102 ->104         0.54318
     102 ->105         0.17780

 Alpha  occ. eigenvalues --  -10.19488 -10.19180 -10.19180 -10.19044 -10.19044
 Alpha  occ. eigenvalues --  -10.19014 -10.19013 -10.18987 -10.18984 -10.18984
 Alpha  occ. eigenvalues --  -10.18831 -10.18831 -10.18830 -10.18828 -10.18789
 Alpha  occ. eigenvalues --  -10.18759 -10.18439 -10.18439 -10.18379 -10.18379
 Alpha  occ. eigenvalues --  -10.18359 -10.18327 -10.18271 -10.18271 -10.18177
 Alpha  occ. eigenvalues --  -10.18177 -10.18092 -10.18092 -10.17994 -10.17994
 Alpha  occ. eigenvalues --   -0.88404  -0.87618  -0.84878  -0.83675  -0.81581
 Alpha  occ. eigenvalues --   -0.79025  -0.78189  -0.77927  -0.76399  -0.73903
 Alpha  occ. eigenvalues --   -0.73224  -0.72445  -0.70576  -0.68440  -0.68346
 Alpha  occ. eigenvalues --   -0.67980  -0.64901  -0.62226  -0.61807  -0.59860
 Alpha  occ. eigenvalues --   -0.58150  -0.57448  -0.57312  -0.56124  -0.55503
 Alpha  occ. eigenvalues --   -0.53762  -0.50803  -0.50004  -0.48111  -0.48038
 Alpha  occ. eigenvalues --   -0.47472  -0.46717  -0.45507  -0.44996  -0.44476
 Alpha  occ. eigenvalues --   -0.43782  -0.43519  -0.43439  -0.42575  -0.42381
 Alpha  occ. eigenvalues --   -0.42224  -0.41289  -0.40820  -0.40501  -0.40088
 Alpha  occ. eigenvalues --   -0.39488  -0.39111  -0.38779  -0.37361  -0.36811
 Alpha  occ. eigenvalues --   -0.36329  -0.36188  -0.35772  -0.35144  -0.35056
 Alpha  occ. eigenvalues --   -0.34211  -0.34171  -0.33148  -0.32917  -0.32507
 Alpha  occ. eigenvalues --   -0.32241  -0.31799  -0.31467  -0.31463  -0.26909
 Alpha  occ. eigenvalues --   -0.25988  -0.24461  -0.24237  -0.23395  -0.22736
 Alpha  occ. eigenvalues --   -0.20597  -0.19429
 Alpha virt. eigenvalues --   -0.02923  -0.02374  -0.01326  -0.00004   0.01186
 Alpha virt. eigenvalues --    0.02109   0.03013   0.04312   0.09597   0.09730
 Alpha virt. eigenvalues --    0.10318   0.10385   0.11187   0.11844   0.12217

 Mulliken charges:
               1
     1  C   -0.133041
     2  C   -0.191462
     3  C    0.121341
     4  C    0.040051
     5  C    0.086588
     6  C   -0.195783
     7  C    0.086605
     8  C   -0.195793
     9  C   -0.133040
    10  C   -0.191458
    11  C    0.121352
    12  C    0.040028
    13  C   -0.434521
    14  C   -0.346344
    15  C   -0.345889
    16  C    0.164649
    17  C   -0.176375
    18  C   -0.182739
    19  C    0.065858
    20  C    0.086494
    21  C   -0.241093
    22  C   -0.406757
    23  C    0.086499
    24  C   -0.241110
    25  C    0.164651
    26  C   -0.176376
    27  C   -0.182742
    28  C    0.065875
    29  C   -0.345879
    30  C   -0.346347
    31  H    0.124275
    32  H    0.117355
    33  H    0.125567
    34  H    0.125567
    35  H    0.124275
    36  H    0.117354
    37  H    0.161360
    38  H    0.196835
    39  H    0.146837
    40  H    0.146816
    41  H    0.145275
    42  H    0.139881
    43  H    0.129979
    44  H    0.131230
    45  H    0.118260
    46  H    0.155106
    47  H    0.172510
    48  H    0.118260
    49  H    0.129979
    50  H    0.131229
    51  H    0.139881
    52  H    0.145274
    53  H    0.146814
    54  H    0.146837
 Sum of Mulliken charges =  -0.00000

 Dipole moment (field-independent basis, Debye):
    X=              0.5551    Y=             -0.0715    Z=              1.1152  Tot=              1.2478
 Quadrupole moment (field-independent basis, Debye-Ang):
   XX=           -180.2439   YY=           -162.7524   ZZ=           -160.4063
   XY=              2.1439   XZ=             -5.9988   YZ=              0.7048

 Normal termination of Gaussian 16 at Sat Nov  5 10:05:16 2022.
