 Gaussian 16, Revision B.01,
 Gaussian 16:  ES64L-G16RevB.01 20-Dec-2017

 -----------------------------
 #p b3lyp/6-31g(d) opt SCF=XQC
 -----------------------------

 ------------------------------
 Gaussian input prepared by ASE
 ------------------------------
 Symbolic Z-matrix:
 Charge =  0 Multiplicity = 1

 SCF Done:  E(RB3LYP) =  -1199.73934065     A.U. after   14 cycles
 SCF Done:  E(RB3LYP) =  -1199.74851574     A.U. after   14 cycles
 SCF Done:  E(RB3LYP) =  -1199.74975178     A.U. after   12 cycles
 SCF Done:  E(RB3LYP) =  -1199.74996076     A.U. after   12 cycles
 SCF Done:  E(RB3LYP) =  -1199.74999425     A.U. after   11 cycles
 SCF Done:  E(RB3LYP) =  -1199.75001613     A.U. after   11 cycles
 SCF Done:  E(RB3LYP) =  -1199.75002503     A.U. after    9 cycles
 SCF Done:  E(RB3LYP) =  -1199.75002840     A.U. after   10 cycles
 SCF Done:  E(RB3LYP) =  -1199.75003014     A.U. after   10 cycles
 SCF Done:  E(RB3LYP) =  -1199.75003081     A.U. after    8 cycles
 SCF Done:  E(RB3LYP) =  -1199.75003093     A.U. after    7 cycles
 Optimization completed.
    -- Stationary point found.

                         Standard orientation:
 ---------------------------------------------------------------------
 Center     Atomic      Atomic             Coordinates (Angstroms)
 Number     Number       Type             X           Y           Z
 ---------------------------------------------------------------------
      1          6           0       -0.362684    5.085500    0.534173
      2          6           0       -0.510249    4.491501   -0.719901
      3          6           0        0.186816    3.318381   -0.993795
      4          6           0        1.006758    2.772025    0.001206
      5          6           0        1.836955    1.525189   -0.247107
      6          7           0        1.128389    0.491626   -1.004469
      7          6           0        2.039921   -0.511061   -1.605484
      8          6           0        2.825079   -1.347118   -0.607438
      9          6           0        4.136875   -1.020939   -0.241100
     10          6           0        4.796519   -1.813718    0.697219
     11          6           0        4.124324   -2.906959    1.239765
     12          6           0        2.819033   -3.156200    0.810635
     13          7           0        2.177579   -2.405418   -0.090264
     14          6           0       -0.064373   -0.031138   -0.421497
     15          6           0       -0.300489   -0.022870    0.925290
     16          6           0       -1.505936   -0.553994    1.485035
     17          6           0       -1.743121   -0.552598    2.877931
     18          6           0       -2.903131   -1.114943    3.368461
     19          6           0       -3.814436   -1.675365    2.450508
     20          7           0       -3.629978   -1.691224    1.139899
     21          6           0       -2.497089   -1.139688    0.650538
     22          6           0       -2.285276   -1.116556   -0.792007
     23          7           0       -3.256539   -1.621015   -1.586970
     24          6           0       -3.105806   -1.536888   -2.897964
     25          6           0       -2.004644   -0.920046   -3.520350
     26          6           0       -1.000307   -0.414325   -2.720227
     27          6           0       -1.095486   -0.529906   -1.315630
     28          7           0        1.150474    3.335160    1.209950
     29          6           0        0.478761    4.467257    1.457456
     30          1           0       -0.887774    6.000019    0.793181
     31          1           0       -1.158115    4.935348   -1.471268
     32          1           0        0.097409    2.817469   -1.952057
     33          1           0        2.711112    1.804173   -0.852488
     34          1           0        2.234017    1.184490    0.720007
     35          1           0        2.729499    0.029671   -2.265116
     36          1           0        1.443178   -1.190750   -2.216076
     37          1           0        4.632617   -0.164355   -0.689869
     38          1           0        5.815985   -1.583277    0.995195
     39          1           0        4.596204   -3.555666    1.971649
     40          1           0        2.262270   -4.004956    1.205016
     41          1           0        0.437819    0.377644    1.612276
     42          1           0       -1.005980   -0.110503    3.544295
     43          1           0       -3.117777   -1.131911    4.433111
     44          1           0       -4.736521   -2.131042    2.810837
     45          1           0       -3.905829   -1.964485   -3.502167
     46          1           0       -1.957808   -0.839744   -4.602583
     47          1           0       -0.146870    0.095364   -3.154225
     48          1           0        0.618997    4.895355    2.448966
 ---------------------------------------------------------------------

 The electronic state is 1-A.
 Alpha  occ. eigenvalues --  -14.35019 -14.33142 -14.32938 -14.31644 -14.31455
 Alpha  occ. eigenvalues --  -10.23050 -10.22996 -10.22613 -10.22539 -10.22344
 Alpha  occ. eigenvalues --  -10.22318 -10.22044 -10.21907 -10.21475 -10.21461
 Alpha  occ. eigenvalues --  -10.21404 -10.21153 -10.20922 -10.20443 -10.20342
 Alpha  occ. eigenvalues --  -10.20020 -10.19960 -10.19921 -10.19819 -10.19756
 Alpha  occ. eigenvalues --  -10.19683 -10.19247 -10.19026 -10.18545  -0.95561
 Alpha  occ. eigenvalues --   -0.94340  -0.94224  -0.92978  -0.91944  -0.83178
 Alpha  occ. eigenvalues --   -0.80710  -0.80272  -0.79867  -0.79088  -0.78648
 Alpha  occ. eigenvalues --   -0.76934  -0.73943  -0.73366  -0.70964  -0.67324
 Alpha  occ. eigenvalues --   -0.64767  -0.63574  -0.63272  -0.63020  -0.62151
 Alpha  occ. eigenvalues --   -0.60914  -0.59548  -0.58721  -0.54271  -0.53031
 Alpha  occ. eigenvalues --   -0.52071  -0.51902  -0.50362  -0.49518  -0.49081
 Alpha  occ. eigenvalues --   -0.48924  -0.47837  -0.47073  -0.46159  -0.45701
 Alpha  occ. eigenvalues --   -0.45484  -0.44899  -0.43679  -0.42278  -0.41771
 Alpha  occ. eigenvalues --   -0.41652  -0.41301  -0.41082  -0.40437  -0.39830
 Alpha  occ. eigenvalues --   -0.39498  -0.39268  -0.39028  -0.38389  -0.38323
 Alpha  occ. eigenvalues --   -0.37472  -0.36775  -0.36173  -0.35646  -0.34692
 Alpha  occ. eigenvalues --   -0.32762  -0.28990  -0.28950  -0.28616  -0.28244
 Alpha  occ. eigenvalues --   -0.26431  -0.26253  -0.25673  -0.25603  -0.24650
 Alpha  occ. eigenvalues --   -0.24491  -0.23175  -0.23040  -0.20147
 Alpha virt. eigenvalues --   -0.04363  -0.03984  -0.02833  -0.02349  -0.01618
 Alpha virt. eigenvalues --   -0.01223   0.00485   0.03237   0.07423   0.07996
 Alpha virt. eigenvalues --    0.09520   0.10420   0.10649   0.11172   0.12440

 Mulliken charges:
               1
     1  C   -0.139215
     2  C   -0.103407
     3  C   -0.147060
     4  C    0.293880
     5  C   -0.205146
     6  N   -0.499446
     7  C   -0.222830
     8  C    0.296700
     9  C   -0.167847
    10  C   -0.102078
    11  C   -0.140570
    12  C    0.038356
    13  N   -0.450167
    14  C    0.272775
    15  C   -0.262574
    16  C    0.167389
    17  C   -0.160955
    18  C   -0.148958
    19  C    0.037724
    20  N   -0.478454
    21  C    0.221133
    22  C    0.193479
    23  N   -0.474256
    24  C    0.041970
    25  C   -0.148175
    26  C   -0.165854
    27  C    0.130991
    28  N   -0.476815
    29  C    0.036958
    30  H    0.138569
    31  H    0.144942
    32  H    0.146372
    33  H    0.153373
    34  H    0.163728
    35  H    0.145330
    36  H    0.176783
    37  H    0.135114
    38  H    0.145528
    39  H    0.140962
    40  H    0.147089
    41  H    0.147845
    42  H    0.140539
    43  H    0.133745
    44  H    0.136616
    45  H    0.138489
    46  H    0.133475
    47  H    0.153975
    48  H    0.139975
 Sum of Mulliken charges =  -0.00000

 Dipole moment (field-independent basis, Debye):
    X=              4.5899    Y=              2.5430    Z=             -0.1818  Tot=              5.2504
 Quadrupole moment (field-independent basis, Debye-Ang):
   XX=           -162.6647   YY=           -158.4710   ZZ=           -145.0795
   XY=            -13.7821   XZ=             -1.4896   YZ=             -6.8851

 1\1\GINC-NODE12\FOpt\RB3LYP\6-31G(d)\C24H19N5\WYKGROUP\04-Nov-2022\0\\
 #p b3lyp/6-31g(d) opt SCF=XQC\\Gaussian input prepared by ASE\\0,1\C,2
 .2187579007,4.4432657542,0.8788469145\C,1.8326824811,4.0929767087,-0.4
 155845858\C,1.7918907394,2.7458682981,-0.7630945563\C,2.1335949454,1.7
 891460215,0.200626167\C,2.1630112937,0.3063772507,-0.1249791364\N,1.04
 38719865,-0.1313347732,-0.9615505885\C,1.2912578374,-1.4358144176,-1.6
 208102508\C,1.4461153948,-2.6159631555,-0.6748554159\C,2.7048067729,-3
 .0785277123,-0.2709547725\C,2.7809352491,-4.150833817,0.6169842169\C,1

 Normal termination of Gaussian 16 at Fri Nov  4 23:08:14 2022.
