 Gaussian 16, Revision B.01,
 Gaussian 16:  ES64L-G16RevB.01 20-Dec-2017

 -------------------------------------------------------------------
 #p b3lyp/6-31g(d) 6D 10F nosymm GFInput td=(50-50,nstate=2) SCF=XQC
 -------------------------------------------------------------------

 ------------------------------
 Gaussian input prepared by ASE
 ------------------------------
 Symbolic Z-matrix:
 Charge =  0 Multiplicity = 1

                          Input orientation:
 ---------------------------------------------------------------------
 Center     Atomic      Atomic             Coordinates (Angstroms)
 Number     Number       Type             X           Y           Z
 ---------------------------------------------------------------------
      1          6           0        2.218758    4.443266    0.878847
      2          6           0        1.832682    4.092977   -0.415585
      3          6           0        1.791891    2.745868   -0.763095
      4          6           0        2.133595    1.789146    0.200626
      5          6           0        2.163011    0.306377   -0.124979
      6          7           0        1.043872   -0.131335   -0.961551
      7          6           0        1.291258   -1.435814   -1.620810
      8          6           0        1.446115   -2.615963   -0.674855
      9          6           0        2.704807   -3.078528   -0.270955
     10          6           0        2.780935   -4.150834    0.616984
     11          6           0        1.596989   -4.726582    1.073236
     12          6           0        0.388627   -4.199933    0.612196
     13          7           0        0.303089   -3.174641   -0.241160
     14          6           0       -0.267887    0.052002   -0.430989
     15          6           0       -0.526290    0.117065    0.910148
     16          6           0       -1.852100    0.301555    1.416803
     17          6           0       -2.117365    0.359034    2.803435
     18          6           0       -3.418744    0.496249    3.239393
     19          6           0       -4.442650    0.573292    2.273541
     20          7           0       -4.233401    0.528178    0.967343
     21          6           0       -2.960678    0.396668    0.531470
     22          6           0       -2.700931    0.376158   -0.903259
     23          7           0       -3.750575    0.526267   -1.743206
     24          6           0       -3.515184    0.583194   -3.043149
     25          6           0       -2.227096    0.530600   -3.607488
     26          6           0       -1.149306    0.363221   -2.761913
     27          6           0       -1.359785    0.244750   -1.370161
     28          7           0        2.501851    2.118108    1.447626
     29          6           0        2.542846    3.418459    1.766227
     30          1           0        2.263703    5.481033    1.195344
     31          1           0        1.567615    4.857251   -1.141469
     32          1           0        1.490870    2.426136   -1.755228
     33          1           0        3.076348    0.094284   -0.698825
     34          1           0        2.263631   -0.246067    0.820391
     35          1           0        2.194935   -1.325422   -2.232532
     36          1           0        0.451168   -1.646362   -2.284754
     37          1           0        3.607682   -2.609280   -0.652416
     38          1           0        3.745953   -4.530290    0.942495
     39          1           0        1.604144   -5.565073    1.763183
     40          1           0       -0.558485   -4.626468    0.939236
     41          1           0        0.276875    0.012872    1.632318
     42          1           0       -1.291567    0.291331    3.507949
     43          1           0       -3.659251    0.543309    4.297591
     44          1           0       -5.480394    0.676665    2.589955
     45          1           0       -4.388784    0.694081   -3.685385
     46          1           0       -2.091883    0.629028   -4.680754
     47          1           0       -0.136137    0.346356   -3.148821
     48          1           0        2.845243    3.647810    2.787002
 ---------------------------------------------------------------------

 SCF Done:  E(RB3LYP) =  -1199.75002932     A.U. after   14 cycles

 Excitation energies and oscillator strengths:

 Excited state symmetry could not be determined.
 Excited State   1:      Triplet-?Sym    2.6804 eV  462.56 nm  f=0.0000  <S**2>=2.000
      96 ->100        -0.13839
      97 ->101         0.20316
      99 ->100         0.55194
      99 ->101        -0.27546
 This state for optimization and/or second-order correction.
 Total Energy, E(TD-HF/TD-DFT) =  -1199.65152705
 Copying the excited state density for this state as the 1-particle RhoCI density.

 Excited state symmetry could not be determined.
 Excited State   2:      Triplet-?Sym    3.2756 eV  378.51 nm  f=0.0000  <S**2>=2.000
      96 ->100        -0.10112
      96 ->101        -0.11167
      99 ->100         0.27168
      99 ->101         0.61348

 Excited state symmetry could not be determined.
 Excited State   3:      Singlet-?Sym    3.6572 eV  339.02 nm  f=0.0421  <S**2>=0.000
      99 ->100         0.58296
      99 ->101         0.36993

 Excited state symmetry could not be determined.
 Excited State   4:      Singlet-?Sym    3.8134 eV  325.13 nm  f=0.0911  <S**2>=0.000
      97 ->100        -0.22366
      99 ->100        -0.35693
      99 ->101         0.54602

 Alpha  occ. eigenvalues --  -14.35019 -14.33142 -14.32938 -14.31644 -14.31455
 Alpha  occ. eigenvalues --  -10.23051 -10.22996 -10.22613 -10.22538 -10.22344
 Alpha  occ. eigenvalues --  -10.22318 -10.22044 -10.21907 -10.21475 -10.21461
 Alpha  occ. eigenvalues --  -10.21404 -10.21153 -10.20922 -10.20443 -10.20342
 Alpha  occ. eigenvalues --  -10.20020 -10.19960 -10.19921 -10.19819 -10.19756
 Alpha  occ. eigenvalues --  -10.19683 -10.19247 -10.19026 -10.18545  -0.95561
 Alpha  occ. eigenvalues --   -0.94340  -0.94224  -0.92978  -0.91944  -0.83178
 Alpha  occ. eigenvalues --   -0.80710  -0.80272  -0.79867  -0.79088  -0.78648
 Alpha  occ. eigenvalues --   -0.76934  -0.73943  -0.73366  -0.70964  -0.67324
 Alpha  occ. eigenvalues --   -0.64767  -0.63574  -0.63272  -0.63020  -0.62151
 Alpha  occ. eigenvalues --   -0.60914  -0.59548  -0.58721  -0.54271  -0.53031
 Alpha  occ. eigenvalues --   -0.52071  -0.51903  -0.50362  -0.49517  -0.49081
 Alpha  occ. eigenvalues --   -0.48924  -0.47837  -0.47073  -0.46159  -0.45701
 Alpha  occ. eigenvalues --   -0.45484  -0.44899  -0.43679  -0.42278  -0.41771
 Alpha  occ. eigenvalues --   -0.41652  -0.41301  -0.41082  -0.40437  -0.39830
 Alpha  occ. eigenvalues --   -0.39498  -0.39268  -0.39028  -0.38389  -0.38323
 Alpha  occ. eigenvalues --   -0.37472  -0.36775  -0.36173  -0.35646  -0.34692
 Alpha  occ. eigenvalues --   -0.32762  -0.28990  -0.28950  -0.28616  -0.28244
 Alpha  occ. eigenvalues --   -0.26431  -0.26253  -0.25673  -0.25603  -0.24650
 Alpha  occ. eigenvalues --   -0.24491  -0.23175  -0.23040  -0.20147
 Alpha virt. eigenvalues --   -0.04363  -0.03984  -0.02833  -0.02349  -0.01618
 Alpha virt. eigenvalues --   -0.01223   0.00485   0.03237   0.07423   0.07996
 Alpha virt. eigenvalues --    0.09520   0.10420   0.10649   0.11172   0.12440

 Mulliken charges:
               1
     1  C   -0.139206
     2  C   -0.103419
     3  C   -0.147055
     4  C    0.293885
     5  C   -0.205157
     6  N   -0.499468
     7  C   -0.222847
     8  C    0.296708
     9  C   -0.167833
    10  C   -0.102104
    11  C   -0.140551
    12  C    0.038353
    13  N   -0.450172
    14  C    0.272835
    15  C   -0.262585
    16  C    0.167388
    17  C   -0.160947
    18  C   -0.148966
    19  C    0.037733
    20  N   -0.478458
    21  C    0.221130
    22  C    0.193473
    23  N   -0.474273
    24  C    0.041992
    25  C   -0.148195
    26  C   -0.165821
    27  C    0.130975
    28  N   -0.476814
    29  C    0.036956
    30  H    0.138569
    31  H    0.144943
    32  H    0.146370
    33  H    0.153373
    34  H    0.163729
    35  H    0.145334
    36  H    0.176787
    37  H    0.135115
    38  H    0.145531
    39  H    0.140961
    40  H    0.147090
    41  H    0.147839
    42  H    0.140537
    43  H    0.133745
    44  H    0.136616
    45  H    0.138489
    46  H    0.133474
    47  H    0.153970
    48  H    0.139975
 Sum of Mulliken charges =  -0.00000

 Dipole moment (field-independent basis, Debye):
    X=              5.2372    Y=             -0.3696    Z=              0.0520  Tot=              5.2505
 Quadrupole moment (field-independent basis, Debye-Ang):
   XX=           -175.7369   YY=           -146.5970   ZZ=           -146.1742
   XY=             -2.9217   XZ=             -6.5953   YZ=             -5.1829

 Normal termination of Gaussian 16 at Sat Nov  5 10:01:53 2022.
