 Gaussian 16, Revision B.01,
 Gaussian 16:  ES64L-G16RevB.01 20-Dec-2017

 -----------------------------
 #p b3lyp/6-31g(d) opt SCF=XQC
 -----------------------------

 ------------------------------
 Gaussian input prepared by ASE
 ------------------------------
 Symbolic Z-matrix:
 Charge =  0 Multiplicity = 1

 SCF Done:  E(RB3LYP) =  -1091.69568248     A.U. after   14 cycles
 SCF Done:  E(RB3LYP) =  -1091.70388332     A.U. after   13 cycles
 SCF Done:  E(RB3LYP) =  -1091.70540124     A.U. after   11 cycles
 SCF Done:  E(RB3LYP) =  -1091.70570345     A.U. after   12 cycles
 SCF Done:  E(RB3LYP) =  -1091.70579933     A.U. after   11 cycles
 SCF Done:  E(RB3LYP) =  -1091.70585347     A.U. after   10 cycles
 SCF Done:  E(RB3LYP) =  -1091.70588267     A.U. after   10 cycles
 SCF Done:  E(RB3LYP) =  -1091.70589434     A.U. after   10 cycles
 SCF Done:  E(RB3LYP) =  -1091.70589864     A.U. after    9 cycles
 SCF Done:  E(RB3LYP) =  -1091.70591338     A.U. after   10 cycles
 SCF Done:  E(RB3LYP) =  -1091.70609816     A.U. after    7 cycles
 SCF Done:  E(RB3LYP) =  -1091.70609851     A.U. after    7 cycles
 SCF Done:  E(RB3LYP) =  -1091.70609878     A.U. after    7 cycles
 SCF Done:  E(RB3LYP) =  -1091.70609908     A.U. after    7 cycles
 SCF Done:  E(RB3LYP) =  -1091.70609943     A.U. after    9 cycles
 SCF Done:  E(RB3LYP) =  -1091.70609991     A.U. after    8 cycles
 SCF Done:  E(RB3LYP) =  -1091.70610046     A.U. after    9 cycles
 SCF Done:  E(RB3LYP) =  -1091.70610065     A.U. after    8 cycles
 SCF Done:  E(RB3LYP) =  -1091.70610070     A.U. after    7 cycles
 SCF Done:  E(RB3LYP) =  -1091.70610073     A.U. after    6 cycles
 Optimization completed.
    -- Stationary point found.

                         Standard orientation:
 ---------------------------------------------------------------------
 Center     Atomic      Atomic             Coordinates (Angstroms)
 Number     Number       Type             X           Y           Z
 ---------------------------------------------------------------------
      1          6           0       -7.802956    0.750747   -0.340168
      2          6           0       -6.329378    0.436705   -0.236479
      3          6           0       -5.811602   -0.246204    0.872937
      4          6           0       -4.450868   -0.511147    0.988246
      5          6           0       -3.551824   -0.111152   -0.013685
      6          6           0       -2.105892   -0.422836    0.129075
      7          6           0       -1.214622   -0.350724   -0.933217
      8          6           0        0.138052   -0.660459   -0.670468
      9          7           0        1.063404   -0.606956   -1.679294
     10          6           0        2.512744   -0.770362   -1.546209
     11          6           0        2.921894   -2.191147   -1.122600
     12          6           0        4.429130   -2.234576   -0.911113
     13          8           0        4.846292   -1.355968    0.136531
     14          6           0        4.306765   -0.095836    0.123040
     15          6           0        4.931016    0.852343    0.942531
     16          6           0        4.450657    2.154062    0.996588
     17          6           0        3.339462    2.547977    0.234700
     18          6           0        2.812294    3.962959    0.302836
     19          6           0        2.732336    1.584360   -0.571801
     20          6           0        3.185106    0.261557   -0.640615
     21          7           0        0.546126   -1.027561    0.551991
     22          6           0       -0.395705   -1.081946    1.508388
     23          6           0        0.074283   -1.505455    2.876012
     24          7           0       -1.689598   -0.798163    1.364480
     25          6           0       -4.067222    0.576769   -1.122931
     26          6           0       -5.429992    0.842724   -1.230624
     27          1           0       -8.052799    1.669974    0.206832
     28          1           0       -8.110470    0.897687   -1.380855
     29          1           0       -8.414778   -0.052771    0.084384
     30          1           0       -6.487266   -0.576366    1.659252
     31          1           0       -4.058494   -1.034301    1.852931
     32          1           0       -1.533655   -0.085350   -1.935571
     33          1           0        0.727048   -0.266456   -2.566960
     34          1           0        2.887513   -0.614767   -2.567740
     35          1           0        2.627133   -2.913161   -1.892999
     36          1           0        2.411934   -2.449308   -0.191642
     37          1           0        4.763126   -3.229399   -0.605268
     38          1           0        4.962779   -1.964980   -1.836639
     39          1           0        5.793312    0.542263    1.524927
     40          1           0        4.948700    2.878835    1.637192
     41          1           0        2.031412    4.134122   -0.445335
     42          1           0        3.607018    4.699221    0.129723
     43          1           0        2.378389    4.185171    1.286592
     44          1           0        1.858594    1.861163   -1.157713
     45          1           0        0.489866   -2.519205    2.838073
     46          1           0        0.876606   -0.844717    3.222099
     47          1           0       -0.753813   -1.480703    3.586465
     48          1           0       -3.402825    0.928739   -1.906669
     49          1           0       -5.801261    1.380665   -2.100216
 ---------------------------------------------------------------------

 The electronic state is 1-A.
 Alpha  occ. eigenvalues --  -19.16534 -14.36045 -14.31202 -14.30821 -10.26587
 Alpha  occ. eigenvalues --  -10.24658 -10.23963 -10.23927 -10.23529 -10.23144
 Alpha  occ. eigenvalues --  -10.19695 -10.19189 -10.18963 -10.18714 -10.18641
 Alpha  occ. eigenvalues --  -10.18554 -10.18432 -10.18417 -10.18330 -10.18278
 Alpha  occ. eigenvalues --  -10.18123 -10.17887 -10.17883 -10.17684 -10.17582
 Alpha  occ. eigenvalues --  -10.16805  -1.05371  -0.98176  -0.93674  -0.86915
 Alpha  occ. eigenvalues --   -0.84903  -0.84405  -0.80709  -0.78429  -0.76717
 Alpha  occ. eigenvalues --   -0.75867  -0.74055  -0.73484  -0.70960  -0.69834
 Alpha  occ. eigenvalues --   -0.68792  -0.66013  -0.62797  -0.62242  -0.61966
 Alpha  occ. eigenvalues --   -0.59992  -0.59410  -0.56894  -0.55028  -0.53368
 Alpha  occ. eigenvalues --   -0.52042  -0.50582  -0.49609  -0.48798  -0.47376
 Alpha  occ. eigenvalues --   -0.46368  -0.45623  -0.45300  -0.44018  -0.43835
 Alpha  occ. eigenvalues --   -0.43400  -0.42950  -0.41907  -0.41853  -0.41438
 Alpha  occ. eigenvalues --   -0.41119  -0.40867  -0.40830  -0.39813  -0.38806
 Alpha  occ. eigenvalues --   -0.38461  -0.38343  -0.37792  -0.37698  -0.37608
 Alpha  occ. eigenvalues --   -0.36070  -0.34743  -0.34371  -0.34172  -0.33902
 Alpha  occ. eigenvalues --   -0.33460  -0.31655  -0.31297  -0.29638  -0.28146
 Alpha  occ. eigenvalues --   -0.28041  -0.24694  -0.24257  -0.23117  -0.22875
 Alpha  occ. eigenvalues --   -0.21843  -0.20258
 Alpha virt. eigenvalues --   -0.03917  -0.00323   0.00269   0.01018   0.02093
 Alpha virt. eigenvalues --    0.03687   0.06529   0.09642   0.09966   0.10924
 Alpha virt. eigenvalues --    0.11228   0.12607   0.13068   0.13356   0.13480

 Mulliken charges:
               1
     1  C   -0.531265
     2  C    0.186878
     3  C   -0.185516
     4  C   -0.156524
     5  C    0.086352
     6  C    0.272351
     7  C   -0.252020
     8  C    0.584416
     9  N   -0.676298
    10  C   -0.021612
    11  C   -0.296573
    12  C   -0.041620
    13  O   -0.526706
    14  C    0.313842
    15  C   -0.182848
    16  C   -0.184537
    17  C    0.187262
    18  C   -0.531150
    19  C   -0.256342
    20  C    0.158114
    21  N   -0.533478
    22  C    0.440234
    23  C   -0.505679
    24  N   -0.536010
    25  C   -0.173678
    26  C   -0.191861
    27  H    0.167687
    28  H    0.155945
    29  H    0.159556
    30  H    0.123485
    31  H    0.159290
    32  H    0.126657
    33  H    0.323838
    34  H    0.142860
    35  H    0.135676
    36  H    0.195844
    37  H    0.154334
    38  H    0.133128
    39  H    0.134223
    40  H    0.119858
    41  H    0.150202
    42  H    0.155239
    43  H    0.162231
    44  H    0.107703
    45  H    0.163514
    46  H    0.172984
    47  H    0.165793
    48  H    0.123551
    49  H    0.120666
 Sum of Mulliken charges =  -0.00000

 Dipole moment (field-independent basis, Debye):
    X=             -0.7620    Y=              0.3693    Z=             -3.4349  Tot=              3.5378
 Quadrupole moment (field-independent basis, Debye-Ang):
   XX=           -144.3050   YY=           -146.6020   ZZ=           -140.8181
   XY=             -4.1203   XZ=             -1.3393   YZ=              0.8628

 Normal termination of Gaussian 16 at Fri Nov  4 23:36:24 2022.
