 Gaussian 16, Revision B.01,
 Gaussian 16:  ES64L-G16RevB.01 20-Dec-2017

 -------------------------------------------------------------------
 #p b3lyp/6-31g(d) 6D 10F nosymm GFInput td=(50-50,nstate=2) SCF=XQC
 -------------------------------------------------------------------

 ------------------------------
 Gaussian input prepared by ASE
 ------------------------------
 Symbolic Z-matrix:
 Charge =  0 Multiplicity = 1

                          Input orientation:
 ---------------------------------------------------------------------
 Center     Atomic      Atomic             Coordinates (Angstroms)
 Number     Number       Type             X           Y           Z
 ---------------------------------------------------------------------
      1          6           0        7.290197   -0.722723   -2.325010
      2          6           0        5.928835   -0.605780   -1.681717
      3          6           0        5.473630   -1.569923   -0.771510
      4          6           0        4.208616   -1.483608   -0.199341
      5          6           0        3.349623   -0.416512   -0.508502
      6          6           0        2.010381   -0.341921    0.131120
      7          6           0        1.242080    0.814684    0.130138
      8          6           0       -0.019914    0.758636    0.761747
      9          7           0       -0.822333    1.868604    0.792819
     10          6           0       -2.198652    1.939200    1.288562
     11          6           0       -2.304694    1.707684    2.805346
     12          6           0       -3.773244    1.697019    3.207367
     13          8           0       -4.491133    0.633636    2.576983
     14          6           0       -4.263882    0.458658    1.236482
     15          6           0       -5.174614   -0.359401    0.557037
     16          6           0       -5.021307   -0.597366   -0.802379
     17          6           0       -3.960744   -0.025429   -1.522441
     18          6           0       -3.790224   -0.294002   -3.000113
     19          6           0       -3.064288    0.783466   -0.822684
     20          6           0       -3.184453    1.034436    0.549218
     21          7           0       -0.454889   -0.361007    1.355794
     22          6           0        0.369097   -1.421255    1.315558
     23          6           0       -0.127529   -2.670913    1.995529
     24          7           0        1.568050   -1.472510    0.736518
     25          6           0        3.801336    0.547296   -1.423010
     26          6           0        5.067292    0.453105   -1.995685
     27          1           0        7.259351   -1.381568   -3.203406
     28          1           0        7.660790    0.251186   -2.661682
     29          1           0        8.026069   -1.144808   -1.631795
     30          1           0        6.122673   -2.401998   -0.506528
     31          1           0        3.862499   -2.237365    0.498786
     32          1           0        1.592049    1.738099   -0.319024
     33          1           0       -0.485128    2.669484    0.281048
     34          1           0       -2.491537    2.981208    1.097185
     35          1           0       -1.770578    2.498362    3.345021
     36          1           0       -1.847692    0.747359    3.054976
     37          1           0       -3.894374    1.531911    4.281069
     38          1           0       -4.256388    2.653953    2.952588
     39          1           0       -5.995672   -0.794091    1.118994
     40          1           0       -5.739104   -1.234007   -1.315382
     41          1           0       -2.998089    0.327921   -3.429727
     42          1           0       -4.713158   -0.090246   -3.557172
     43          1           0       -3.524901   -1.341963   -3.191969
     44          1           0       -2.223997    1.223292   -1.355413
     45          1           0       -0.287454   -2.484356    3.063920
     46          1           0       -1.093888   -2.971603    1.576235
     47          1           0        0.593445   -3.481193    1.874110
     48          1           0        3.157800    1.373320   -1.711277
     49          1           0        5.390050    1.213028   -2.704033
 ---------------------------------------------------------------------

 SCF Done:  E(RB3LYP) =  -1091.70609967     A.U. after   14 cycles

 Excitation energies and oscillator strengths:

 Excited state symmetry could not be determined.
 Excited State   1:      Triplet-?Sym    3.1613 eV  392.20 nm  f=0.0000  <S**2>=2.000
      87 -> 94        -0.14133
      87 -> 96         0.14167
      89 -> 93        -0.14114
      90 -> 93        -0.37976
      91 -> 93         0.49070
      92 -> 93         0.10623
 This state for optimization and/or second-order correction.
 Total Energy, E(TD-HF/TD-DFT) =  -1091.58992559
 Copying the excited state density for this state as the 1-particle RhoCI density.

 Excited state symmetry could not be determined.
 Excited State   2:      Triplet-?Sym    3.5930 eV  345.07 nm  f=0.0000  <S**2>=2.000
      88 -> 95         0.28262
      89 -> 95         0.27197
      92 -> 95         0.20357
      92 -> 96         0.12324
      92 -> 97        -0.48895

 Excited state symmetry could not be determined.
 Excited State   3:      Singlet-?Sym    3.9719 eV  312.15 nm  f=0.0200  <S**2>=0.000
      89 -> 93         0.13557
      92 -> 93         0.68575

 Excited state symmetry could not be determined.
 Excited State   4:      Singlet-?Sym    4.2261 eV  293.38 nm  f=0.0017  <S**2>=0.000
      88 -> 93        -0.32040
      89 -> 93         0.55288
      90 -> 93        -0.21797
      92 -> 93        -0.15953

 Alpha  occ. eigenvalues --  -19.16534 -14.36045 -14.31202 -14.30821 -10.26587
 Alpha  occ. eigenvalues --  -10.24658 -10.23963 -10.23927 -10.23529 -10.23144
 Alpha  occ. eigenvalues --  -10.19695 -10.19189 -10.18963 -10.18714 -10.18641
 Alpha  occ. eigenvalues --  -10.18554 -10.18432 -10.18417 -10.18330 -10.18278
 Alpha  occ. eigenvalues --  -10.18123 -10.17887 -10.17883 -10.17684 -10.17582
 Alpha  occ. eigenvalues --  -10.16805  -1.05371  -0.98176  -0.93674  -0.86915
 Alpha  occ. eigenvalues --   -0.84903  -0.84405  -0.80709  -0.78429  -0.76717
 Alpha  occ. eigenvalues --   -0.75867  -0.74055  -0.73484  -0.70960  -0.69834
 Alpha  occ. eigenvalues --   -0.68792  -0.66013  -0.62797  -0.62242  -0.61966
 Alpha  occ. eigenvalues --   -0.59992  -0.59411  -0.56894  -0.55028  -0.53368
 Alpha  occ. eigenvalues --   -0.52042  -0.50582  -0.49609  -0.48798  -0.47376
 Alpha  occ. eigenvalues --   -0.46368  -0.45623  -0.45300  -0.44018  -0.43835
 Alpha  occ. eigenvalues --   -0.43400  -0.42950  -0.41907  -0.41853  -0.41438
 Alpha  occ. eigenvalues --   -0.41119  -0.40867  -0.40830  -0.39813  -0.38806
 Alpha  occ. eigenvalues --   -0.38461  -0.38343  -0.37792  -0.37698  -0.37608
 Alpha  occ. eigenvalues --   -0.36070  -0.34743  -0.34371  -0.34172  -0.33902
 Alpha  occ. eigenvalues --   -0.33460  -0.31655  -0.31297  -0.29638  -0.28146
 Alpha  occ. eigenvalues --   -0.28041  -0.24694  -0.24257  -0.23117  -0.22875
 Alpha  occ. eigenvalues --   -0.21843  -0.20258
 Alpha virt. eigenvalues --   -0.03917  -0.00323   0.00268   0.01018   0.02093
 Alpha virt. eigenvalues --    0.03687   0.06529   0.09642   0.09966   0.10924
 Alpha virt. eigenvalues --    0.11228   0.12607   0.13068   0.13356   0.13480

 Mulliken charges:
               1
     1  C   -0.531268
     2  C    0.186874
     3  C   -0.185514
     4  C   -0.156517
     5  C    0.086346
     6  C    0.272363
     7  C   -0.252031
     8  C    0.584428
     9  N   -0.676296
    10  C   -0.021612
    11  C   -0.296558
    12  C   -0.041646
    13  O   -0.526695
    14  C    0.313833
    15  C   -0.182856
    16  C   -0.184539
    17  C    0.187265
    18  C   -0.531147
    19  C   -0.256348
    20  C    0.158130
    21  N   -0.533502
    22  C    0.440270
    23  C   -0.505679
    24  N   -0.536032
    25  C   -0.173675
    26  C   -0.191861
    27  H    0.167687
    28  H    0.155946
    29  H    0.159557
    30  H    0.123484
    31  H    0.159290
    32  H    0.126656
    33  H    0.323838
    34  H    0.142857
    35  H    0.135676
    36  H    0.195842
    37  H    0.154337
    38  H    0.133134
    39  H    0.134224
    40  H    0.119858
    41  H    0.150202
    42  H    0.155240
    43  H    0.162231
    44  H    0.107703
    45  H    0.163515
    46  H    0.172983
    47  H    0.165793
    48  H    0.123551
    49  H    0.120665
 Sum of Mulliken charges =  -0.00000

 Dipole moment (field-independent basis, Debye):
    X=              1.0058    Y=              3.2580    Z=             -0.9431  Tot=              3.5378
 Quadrupole moment (field-independent basis, Debye-Ang):
   XX=           -146.7118   YY=           -140.2174   ZZ=           -145.2372
   XY=             -1.3418   XZ=             -3.6750   YZ=              1.6081

 Normal termination of Gaussian 16 at Sat Nov  5 09:53:27 2022.
