 Gaussian 16, Revision B.01,
 Gaussian 16:  ES64L-G16RevB.01 20-Dec-2017

 -------------------------------------------------------------------
 #p b3lyp/6-31g(d) 6D 10F nosymm GFInput td=(50-50,nstate=2) SCF=XQC
 -------------------------------------------------------------------

 ------------------------------
 Gaussian input prepared by ASE
 ------------------------------
 Symbolic Z-matrix:
 Charge =  0 Multiplicity = 1

                          Input orientation:
 ---------------------------------------------------------------------
 Center     Atomic      Atomic             Coordinates (Angstroms)
 Number     Number       Type             X           Y           Z
 ---------------------------------------------------------------------
      1          6           0       -4.653323   -2.376162    1.365343
      2          8           0       -3.365385   -1.802016    1.233173
      3          6           0       -2.415687   -2.112074    2.180008
      4          6           0       -2.619003   -2.946954    3.272159
      5          6           0       -1.577819   -3.180854    4.182882
      6          6           0       -0.342324   -2.577582    3.984677
      7          6           0       -0.130308   -1.739267    2.883993
      8          6           0       -1.158284   -1.487281    1.967956
      9          7           0       -1.010901   -0.675030    0.851420
     10          6           0        0.026072    0.355043    0.763337
     11          6           0        1.296714   -0.188184    0.247404
     12          6           0        2.350060   -0.648881   -0.139031
     13          6           0        3.585567   -1.201485   -0.599921
     14          6           0        4.717536   -0.382006   -0.772704
     15          6           0        5.918284   -0.926102   -1.221890
     16          6           0        6.011279   -2.290910   -1.504693
     17          6           0        4.893768   -3.112014   -1.335636
     18          6           0        3.688990   -2.576171   -0.887572
     19          6           0       -0.508335    1.532330   -0.052899
     20          6           0       -1.462350    2.390682    0.561461
     21          6           0       -2.009773    3.444625   -0.129803
     22          6           0       -1.640073    3.704512   -1.477881
     23          6           0       -2.183007    4.784190   -2.223488
     24          6           0       -1.798916    5.003130   -3.527855
     25          6           0       -0.851949    4.150694   -4.146450
     26          6           0       -0.306556    3.095874   -3.449016
     27          6           0       -0.681495    2.842819   -2.102349
     28          6           0       -0.134683    1.762160   -1.358167
     29          1           0       -5.238668   -2.004100    0.522115
     30          1           0       -4.610507   -3.472556    1.322066
     31          1           0       -5.135233   -2.072839    2.304587
     32          1           0       -3.584081   -3.416446    3.428570
     33          1           0       -1.746589   -3.835168    5.033071
     34          1           0        0.473944   -2.757753    4.678804
     35          1           0        0.849066   -1.302120    2.719659
     36          1           0       -1.869282   -0.473879    0.358399
     37          1           0        0.223971    0.733631    1.781397
     38          1           0        4.641897    0.678230   -0.551144
     39          1           0        6.784584   -0.282802   -1.351103
     40          1           0        6.949710   -2.712455   -1.854539
     41          1           0        4.960757   -4.174550   -1.553542
     42          1           0        2.818211   -3.210591   -0.754132
     43          1           0       -1.754875    2.203597    1.592014
     44          1           0       -2.732761    4.098997    0.351651
     45          1           0       -2.909805    5.437292   -1.745873
     46          1           0       -2.221914    5.832468   -4.088345
     47          1           0       -0.556672    4.333586   -5.176093
     48          1           0        0.421114    2.439875   -3.920877
     49          1           0        0.599038    1.114496   -1.830214
 ---------------------------------------------------------------------

 SCF Done:  E(RB3LYP) =  -1133.32689271     A.U. after   15 cycles

 Excitation energies and oscillator strengths:

 Excited state symmetry could not be determined.
 Excited State   1:      Triplet-?Sym    2.7511 eV  450.67 nm  f=0.0000  <S**2>=2.000
      89 ->103        -0.12405
      92 -> 99         0.17822
      93 -> 97        -0.11800
      94 -> 97         0.10080
      95 -> 97         0.64948
      95 <- 97         0.10235
 This state for optimization and/or second-order correction.
 Total Energy, E(TD-HF/TD-DFT) =  -1133.22579146
 Copying the excited state density for this state as the 1-particle RhoCI density.

 Excited state symmetry could not be determined.
 Excited State   2:      Triplet-?Sym    3.2212 eV  384.91 nm  f=0.0000  <S**2>=2.000
      91 ->100        -0.25318
      93 -> 98         0.53160
      94 -> 98        -0.30477
      95 -> 98         0.18270

 Excited state symmetry could not be determined.
 Excited State   3:      Singlet-?Sym    3.3604 eV  368.95 nm  f=0.0577  <S**2>=0.000
      96 -> 97         0.70440

 Excited state symmetry could not be determined.
 Excited State   4:      Singlet-?Sym    3.7107 eV  334.12 nm  f=0.0014  <S**2>=0.000
      96 -> 98         0.70445

 Alpha  occ. eigenvalues --  -19.17593 -14.33653 -10.25074 -10.23990 -10.23399
 Alpha  occ. eigenvalues --  -10.21656 -10.21246 -10.20275 -10.19885 -10.19836
 Alpha  occ. eigenvalues --  -10.19389 -10.19371 -10.19302 -10.19302 -10.19274
 Alpha  occ. eigenvalues --  -10.19243 -10.19207 -10.19179 -10.19170 -10.19149
 Alpha  occ. eigenvalues --  -10.19093 -10.19028 -10.18314 -10.18072 -10.17778
 Alpha  occ. eigenvalues --  -10.17181 -10.17099 -10.17036  -1.05994  -0.93161
 Alpha  occ. eigenvalues --   -0.87344  -0.85807  -0.83651  -0.81991  -0.78542
 Alpha  occ. eigenvalues --   -0.77330  -0.76362  -0.74627  -0.74194  -0.73316
 Alpha  occ. eigenvalues --   -0.72217  -0.71644  -0.68942  -0.67595  -0.62770
 Alpha  occ. eigenvalues --   -0.61416  -0.60628  -0.60555  -0.59630  -0.58792
 Alpha  occ. eigenvalues --   -0.58436  -0.53717  -0.53480  -0.51533  -0.51153
 Alpha  occ. eigenvalues --   -0.50633  -0.49400  -0.49128  -0.47703  -0.46670
 Alpha  occ. eigenvalues --   -0.46106  -0.45218  -0.44850  -0.44552  -0.44151
 Alpha  occ. eigenvalues --   -0.43643  -0.43085  -0.42851  -0.42182  -0.41733
 Alpha  occ. eigenvalues --   -0.40860  -0.40465  -0.39667  -0.38854  -0.37653
 Alpha  occ. eigenvalues --   -0.37316  -0.36906  -0.36764  -0.35679  -0.34797
 Alpha  occ. eigenvalues --   -0.34278  -0.34013  -0.33134  -0.32829  -0.32343
 Alpha  occ. eigenvalues --   -0.31194  -0.29912  -0.28997  -0.28458  -0.26199
 Alpha  occ. eigenvalues --   -0.25231  -0.24380  -0.22395  -0.22219  -0.21589
 Alpha  occ. eigenvalues --   -0.18066
 Alpha virt. eigenvalues --   -0.03919  -0.02503  -0.01335  -0.00074   0.02114
 Alpha virt. eigenvalues --    0.02702   0.03439   0.05181   0.08202   0.09409
 Alpha virt. eigenvalues --    0.09631   0.09724   0.09915   0.10565   0.11819

 Mulliken charges:
               1
     1  C   -0.210908
     2  O   -0.536682
     3  C    0.330444
     4  C   -0.203156
     5  C   -0.146262
     6  C   -0.140438
     7  C   -0.195894
     8  C    0.312625
     9  N   -0.659593
    10  C   -0.193562
    11  C    0.012974
    12  C    0.053173
    13  C    0.007149
    14  C   -0.137616
    15  C   -0.132515
    16  C   -0.124397
    17  C   -0.133133
    18  C   -0.135129
    19  C    0.099622
    20  C   -0.162832
    21  C   -0.199728
    22  C    0.144363
    23  C   -0.194256
    24  C   -0.133326
    25  C   -0.137747
    26  C   -0.186631
    27  C    0.130946
    28  C   -0.243707
    29  H    0.166753
    30  H    0.153825
    31  H    0.151306
    32  H    0.125666
    33  H    0.118231
    34  H    0.120503
    35  H    0.136131
    36  H    0.343367
    37  H    0.168155
    38  H    0.140510
    39  H    0.133122
    40  H    0.132181
    41  H    0.134105
    42  H    0.147503
    43  H    0.136365
    44  H    0.132360
    45  H    0.130176
    46  H    0.130940
    47  H    0.131516
    48  H    0.134719
    49  H    0.148781
 Sum of Mulliken charges =  -0.00000

 Dipole moment (field-independent basis, Debye):
    X=             -1.2290    Y=              0.5962    Z=             -0.8597  Tot=              1.6140
 Quadrupole moment (field-independent basis, Debye-Ang):
   XX=           -136.1590   YY=           -150.5505   ZZ=           -156.3747
   XY=             -1.5254   XZ=             -6.4104   YZ=             -2.1983

 Normal termination of Gaussian 16 at Sat Nov  5 10:04:41 2022.
