 Gaussian 16, Revision B.01,
 Gaussian 16:  ES64L-G16RevB.01 20-Dec-2017

 -----------------------------
 #p b3lyp/6-31g(d) opt SCF=XQC
 -----------------------------

 ------------------------------
 Gaussian input prepared by ASE
 ------------------------------
 Symbolic Z-matrix:
 Charge =  0 Multiplicity = 1

 SCF Done:  E(RB3LYP) =  -1133.31940919     A.U. after   16 cycles
 SCF Done:  E(RB3LYP) =  -1133.32466562     A.U. after   12 cycles
 SCF Done:  E(RB3LYP) =  -1133.32481335     A.U. after   11 cycles
 SCF Done:  E(RB3LYP) =  -1133.32485771     A.U. after   12 cycles
 SCF Done:  E(RB3LYP) =  -1133.32495863     A.U. after   10 cycles
 SCF Done:  E(RB3LYP) =  -1133.32497767     A.U. after   12 cycles
 SCF Done:  E(RB3LYP) =  -1133.32504501     A.U. after   11 cycles
 SCF Done:  E(RB3LYP) =  -1133.32507033     A.U. after   11 cycles
 SCF Done:  E(RB3LYP) =  -1133.32509931     A.U. after   12 cycles
 SCF Done:  E(RB3LYP) =  -1133.32513953     A.U. after   12 cycles
 SCF Done:  E(RB3LYP) =  -1133.32687752     A.U. after   11 cycles
 SCF Done:  E(RB3LYP) =  -1133.32688875     A.U. after   11 cycles
 SCF Done:  E(RB3LYP) =  -1133.32688600     A.U. after   10 cycles
 SCF Done:  E(RB3LYP) =  -1133.32688589     A.U. after   11 cycles
 SCF Done:  E(RB3LYP) =  -1133.32688925     A.U. after   10 cycles
 SCF Done:  E(RB3LYP) =  -1133.32688935     A.U. after   10 cycles
 SCF Done:  E(RB3LYP) =  -1133.32688975     A.U. after    9 cycles
 SCF Done:  E(RB3LYP) =  -1133.32688947     A.U. after   10 cycles
 SCF Done:  E(RB3LYP) =  -1133.32688992     A.U. after   10 cycles
 SCF Done:  E(RB3LYP) =  -1133.32688992     A.U. after    7 cycles
 Optimization completed.
    -- Stationary point found.

                         Standard orientation:
 ---------------------------------------------------------------------
 Center     Atomic      Atomic             Coordinates (Angstroms)
 Number     Number       Type             X           Y           Z
 ---------------------------------------------------------------------
      1          6           0        0.871667    5.040539    1.952610
      2          8           0        0.821261    3.790974    1.287822
      3          6           0        1.862408    3.457681    0.451467
      4          6           0        2.970012    4.257302    0.196564
      5          6           0        3.966636    3.818261   -0.687842
      6          6           0        3.842653    2.579082   -1.303257
      7          6           0        2.731488    1.767396   -1.046924
      8          6           0        1.722690    2.190295   -0.173517
      9          7           0        0.601321    1.430175    0.131239
     10          6           0        0.112928    0.366661   -0.748837
     11          6           0        0.774667   -0.922159   -0.471602
     12          6           0        1.350889   -1.969506   -0.266316
     13          6           0        2.033028   -3.200218   -0.012737
     14          6           0        1.709145   -4.362449   -0.738735
     15          6           0        2.377158   -5.558325   -0.487249
     16          6           0        3.375943   -5.615943    0.487655
     17          6           0        3.704697   -4.467877    1.212560
     18          6           0        3.041312   -3.268078    0.968058
     19          6           0       -1.411651    0.300794   -0.653138
     20          6           0       -2.164340    1.325119   -1.292332
     21          6           0       -3.536061    1.345090   -1.212982
     22          6           0       -4.240191    0.344858   -0.488228
     23          6           0       -5.656385    0.331777   -0.385104
     24          6           0       -6.301858   -0.655146    0.326360
     25          6           0       -5.558494   -1.676075    0.967582
     26          6           0       -4.183925   -1.691213    0.884846
     27          6           0       -3.487872   -0.687905    0.158892
     28          6           0       -2.070132   -0.678764    0.056108
     29          1           0       -0.037026    5.099902    2.554975
     30          1           0        1.748393    5.110457    2.610065
     31          1           0        0.890531    5.875803    1.239587
     32          1           0        3.066204    5.225818    0.675090
     33          1           0        4.828535    4.450362   -0.880218
     34          1           0        4.612116    2.224952   -1.983760
     35          1           0        2.662836    0.786422   -1.505457
     36          1           0       -0.106338    1.915220    0.664437
     37          1           0        0.357821    0.640448   -1.789993
     38          1           0        0.932877   -4.313839   -1.496334
     39          1           0        2.117722   -6.448216   -1.054516
     40          1           0        3.895624   -6.550414    0.681154
     41          1           0        4.481347   -4.506945    1.971665
     42          1           0        3.293945   -2.373297    1.528500
     43          1           0       -1.639012    2.097009   -1.849850
     44          1           0       -4.102170    2.128546   -1.711413
     45          1           0       -6.224669    1.116842   -0.878683
     46          1           0       -7.386144   -0.654135    0.398481
     47          1           0       -6.079015   -2.449430    1.525958
     48          1           0       -3.610301   -2.473929    1.375560
     49          1           0       -1.501071   -1.467800    0.540088
 ---------------------------------------------------------------------

 The electronic state is 1-A.
 Alpha  occ. eigenvalues --  -19.17593 -14.33653 -10.25074 -10.23990 -10.23399
 Alpha  occ. eigenvalues --  -10.21656 -10.21246 -10.20275 -10.19885 -10.19836
 Alpha  occ. eigenvalues --  -10.19389 -10.19371 -10.19302 -10.19302 -10.19274
 Alpha  occ. eigenvalues --  -10.19243 -10.19207 -10.19179 -10.19170 -10.19149
 Alpha  occ. eigenvalues --  -10.19093 -10.19028 -10.18314 -10.18072 -10.17778
 Alpha  occ. eigenvalues --  -10.17181 -10.17099 -10.17036  -1.05994  -0.93161
 Alpha  occ. eigenvalues --   -0.87344  -0.85808  -0.83651  -0.81991  -0.78542
 Alpha  occ. eigenvalues --   -0.77330  -0.76362  -0.74627  -0.74194  -0.73316
 Alpha  occ. eigenvalues --   -0.72217  -0.71644  -0.68942  -0.67595  -0.62770
 Alpha  occ. eigenvalues --   -0.61416  -0.60628  -0.60555  -0.59630  -0.58792
 Alpha  occ. eigenvalues --   -0.58436  -0.53717  -0.53480  -0.51533  -0.51153
 Alpha  occ. eigenvalues --   -0.50633  -0.49400  -0.49128  -0.47703  -0.46670
 Alpha  occ. eigenvalues --   -0.46106  -0.45218  -0.44850  -0.44552  -0.44151
 Alpha  occ. eigenvalues --   -0.43643  -0.43085  -0.42851  -0.42182  -0.41733
 Alpha  occ. eigenvalues --   -0.40860  -0.40465  -0.39667  -0.38854  -0.37653
 Alpha  occ. eigenvalues --   -0.37316  -0.36906  -0.36764  -0.35679  -0.34797
 Alpha  occ. eigenvalues --   -0.34278  -0.34013  -0.33134  -0.32829  -0.32343
 Alpha  occ. eigenvalues --   -0.31194  -0.29912  -0.28997  -0.28458  -0.26199
 Alpha  occ. eigenvalues --   -0.25231  -0.24380  -0.22395  -0.22219  -0.21589
 Alpha  occ. eigenvalues --   -0.18066
 Alpha virt. eigenvalues --   -0.03919  -0.02503  -0.01335  -0.00074   0.02114
 Alpha virt. eigenvalues --    0.02702   0.03439   0.05181   0.08203   0.09409
 Alpha virt. eigenvalues --    0.09632   0.09724   0.09915   0.10565   0.11819

 Mulliken charges:
               1
     1  C   -0.210909
     2  O   -0.536681
     3  C    0.330423
     4  C   -0.203141
     5  C   -0.146262
     6  C   -0.140445
     7  C   -0.195878
     8  C    0.312628
     9  N   -0.659596
    10  C   -0.193556
    11  C    0.012984
    12  C    0.053155
    13  C    0.007133
    14  C   -0.137609
    15  C   -0.132513
    16  C   -0.124400
    17  C   -0.133136
    18  C   -0.135115
    19  C    0.099625
    20  C   -0.162825
    21  C   -0.199732
    22  C    0.144367
    23  C   -0.194258
    24  C   -0.133324
    25  C   -0.137745
    26  C   -0.186637
    27  C    0.130953
    28  C   -0.243717
    29  H    0.166752
    30  H    0.153825
    31  H    0.151307
    32  H    0.125665
    33  H    0.118231
    34  H    0.120504
    35  H    0.136128
    36  H    0.343369
    37  H    0.168154
    38  H    0.140511
    39  H    0.133122
    40  H    0.132182
    41  H    0.134105
    42  H    0.147501
    43  H    0.136363
    44  H    0.132360
    45  H    0.130176
    46  H    0.130939
    47  H    0.131516
    48  H    0.134719
    49  H    0.148782
 Sum of Mulliken charges =  -0.00000

 Dipole moment (field-independent basis, Debye):
    X=             -1.3329    Y=              0.5846    Z=              0.6976  Tot=              1.6140
 Quadrupole moment (field-independent basis, Debye-Ang):
   XX=           -149.6190   YY=           -135.6641   ZZ=           -157.7650
   XY=             -4.5248   XZ=              2.1949   YZ=              2.7853

 Normal termination of Gaussian 16 at Sat Nov  5 00:02:33 2022.
