 Gaussian 16, Revision B.01,
 Gaussian 16:  ES64L-G16RevB.01 20-Dec-2017

 -----------------------------
 #p b3lyp/6-31g(d) opt SCF=XQC
 -----------------------------

 ------------------------------
 Gaussian input prepared by ASE
 ------------------------------
 Symbolic Z-matrix:
 Charge =  0 Multiplicity = 1

 SCF Done:  E(RB3LYP) =  -2661.20874446     A.U. after   16 cycles
 SCF Done:  E(RB3LYP) =  -2661.22111574     A.U. after   13 cycles
 SCF Done:  E(RB3LYP) =  -2661.22173962     A.U. after   11 cycles
 SCF Done:  E(RB3LYP) =  -2661.22185031     A.U. after   11 cycles
 SCF Done:  E(RB3LYP) =  -2661.22187300     A.U. after   10 cycles
 SCF Done:  E(RB3LYP) =  -2661.22188598     A.U. after   10 cycles
 SCF Done:  E(RB3LYP) =  -2661.22188963     A.U. after   10 cycles
 SCF Done:  E(RB3LYP) =  -2661.22189073     A.U. after    9 cycles
 SCF Done:  E(RB3LYP) =  -2661.22189137     A.U. after    9 cycles
 SCF Done:  E(RB3LYP) =  -2661.22189152     A.U. after    9 cycles
 SCF Done:  E(RB3LYP) =  -2661.22189156     A.U. after    7 cycles
 SCF Done:  E(RB3LYP) =  -2661.22189157     A.U. after    6 cycles
 Optimization completed.
    -- Stationary point found.

                         Standard orientation:
 ---------------------------------------------------------------------
 Center     Atomic      Atomic             Coordinates (Angstroms)
 Number     Number       Type             X           Y           Z
 ---------------------------------------------------------------------
      1          6           0        4.285990    7.607328   -0.898786
      2          6           0        3.824312    7.051503   -2.093364
      3          6           0        2.974727    5.946569   -2.072510
      4          6           0        2.567928    5.367975   -0.857535
      5          6           0        1.664446    4.191117   -0.836132
      6          6           0        1.764032    3.174848   -1.802043
      7          6           0        0.913776    2.074641   -1.792472
      8          6           0       -0.067754    1.939179   -0.797445
      9          7           0       -0.930698    0.811388   -0.779777
     10          6           0       -2.305588    0.965413   -0.472795
     11          6           0       -2.983180    0.006776    0.298703
     12          6           0       -4.335513    0.151522    0.586674
     13          6           0       -5.065309    1.265595    0.135948
     14          6           0       -6.496076    1.456128    0.467173
     15          6           0       -7.038271    2.733491    0.699805
     16          6           0       -8.391849    2.940374    0.997003
     17          6           0       -9.282151    1.872812    1.080739
     18          6           0       -8.784976    0.584337    0.860018
     19          6           0       -7.419592    0.406907    0.565406
     20          8           0       -7.123395   -0.926412    0.362748
     21          6           0       -8.303276   -1.613687    0.530494
     22          6           0       -8.448363   -2.989250    0.415289
     23          6           0       -9.730096   -3.502683    0.621794
     24          6           0      -10.812476   -2.661581    0.930746
     25          6           0      -10.642868   -1.282476    1.041442
     26          6           0       -9.366088   -0.746033    0.838842
     27          6           0       -4.377119    2.219243   -0.635150
     28          6           0       -3.029557    2.074512   -0.942049
     29          6           0       -0.406068   -0.484050   -1.056250
     30          6           0       -1.102437   -1.350265   -1.929688
     31          6           0       -0.608941   -2.614887   -2.221339
     32          6           0        0.599970   -3.035471   -1.654163
     33          6           0        1.394420   -4.240139   -1.753611
     34          6           0        1.238937   -5.448939   -2.442775
     35          6           0        2.207198   -6.439198   -2.302573
     36          6           0        3.324958   -6.235119   -1.475539
     37          6           0        3.504560   -5.041334   -0.778774
     38          6           0        2.535832   -4.046909   -0.933140
     39          7           0        2.463390   -2.777529   -0.344951
     40          6           0        3.421305   -2.218546    0.545210
     41          6           0        3.025191   -1.816794    1.835082
     42          6           0        3.945614   -1.263099    2.718043
     43          6           0        5.275310   -1.132088    2.311899
     44         16           0        6.600777   -0.471153    3.272894
     45          6           0        7.735590   -0.738836    1.943311
     46          6           0        9.099226   -0.437843    1.954217
     47          6           0        9.849912   -0.715411    0.814768
     48          6           0        9.249576   -1.285117   -0.319005
     49          6           0        7.891785   -1.583205   -0.324849
     50          6           0        7.114047   -1.312589    0.811301
     51          6           0        5.693245   -1.540654    1.025055
     52          6           0        4.747805   -2.075611    0.139962
     53          6           0        1.288388   -2.156475   -0.779603
     54          6           0        0.799802   -0.887216   -0.469257
     55          6           0       -0.170424    2.942416    0.179656
     56          6           0        0.674292    4.047090    0.150577
     57          6           0        3.042926    5.938579    0.336269
     58          6           0        3.890180    7.045305    0.316360
     59          1           0        4.947454    8.469324   -0.914650
     60          1           0        4.118442    7.485117   -3.045769
     61          1           0        2.599856    5.540902   -3.008190
     62          1           0        2.530282    3.239921   -2.569462
     63          1           0        1.011966    1.306538   -2.552855
     64          1           0       -2.441046   -0.853624    0.677222
     65          1           0       -4.827509   -0.602975    1.190115
     66          1           0       -6.370323    3.589113    0.670637
     67          1           0       -8.745214    3.952486    1.172765
     68          1           0      -10.330872    2.035580    1.311931
     69          1           0       -7.603156   -3.625682    0.175146
     70          1           0       -9.891559   -4.573922    0.541203
     71          1           0      -11.796527   -3.094922    1.085084
     72          1           0      -11.485015   -0.638940    1.280547
     73          1           0       -4.916436    3.072764   -1.036234
     74          1           0       -2.532870    2.815958   -1.559397
     75          1           0       -2.030286   -1.010038   -2.376801
     76          1           0       -1.152996   -3.263944   -2.902410
     77          1           0        0.370410   -5.612738   -3.075474
     78          1           0        2.097386   -7.380607   -2.833373
     79          1           0        4.065606   -7.023567   -1.372581
     80          1           0        4.365434   -4.893490   -0.134953
     81          1           0        1.991807   -1.952260    2.137419
     82          1           0        3.632274   -0.952570    3.710243
     83          1           0        9.564737    0.003295    2.830683
     84          1           0       10.912015   -0.487155    0.805863
     85          1           0        9.850968   -1.494498   -1.198909
     86          1           0        7.433222   -2.024120   -1.205941
     87          1           0        5.034509   -2.374331   -0.863574
     88          1           0        1.332967   -0.220927    0.199042
     89          1           0       -0.923305    2.856818    0.956693
     90          1           0        0.554226    4.820107    0.904520
     91          1           0        2.765605    5.492882    1.287584
     92          1           0        4.249984    7.463303    1.253063
 ---------------------------------------------------------------------

 The electronic state is 1-A.
 Alpha  occ. eigenvalues --  -88.90766 -19.20672 -14.38236 -14.36434 -10.24586
 Alpha  occ. eigenvalues --  -10.24549 -10.24158 -10.23305 -10.23093 -10.22863
 Alpha  occ. eigenvalues --  -10.22800 -10.22790 -10.22630 -10.22350 -10.21342
 Alpha  occ. eigenvalues --  -10.20995 -10.20933 -10.20678 -10.20567 -10.20441
 Alpha  occ. eigenvalues --  -10.20347 -10.20251 -10.20101 -10.19771 -10.19727
 Alpha  occ. eigenvalues --  -10.19690 -10.19609 -10.19572 -10.19520 -10.19486
 Alpha  occ. eigenvalues --  -10.19464 -10.19380 -10.19349 -10.19101 -10.19096
 Alpha  occ. eigenvalues --  -10.18980 -10.18860 -10.18855 -10.18834 -10.18828
 Alpha  occ. eigenvalues --  -10.18763 -10.18753 -10.18731 -10.18724 -10.18711
 Alpha  occ. eigenvalues --  -10.18703 -10.18675 -10.18666 -10.18634 -10.18625
 Alpha  occ. eigenvalues --  -10.18607 -10.18594 -10.18556 -10.18553 -10.18522
 Alpha  occ. eigenvalues --  -10.18409 -10.18222 -10.18066  -7.96865  -5.93319
 Alpha  occ. eigenvalues --   -5.92968  -5.92451  -1.10204  -0.99011  -0.96278
 Alpha  occ. eigenvalues --   -0.90475  -0.86637  -0.86525  -0.86150  -0.85799
 Alpha  occ. eigenvalues --   -0.84708  -0.84432  -0.84309  -0.83211  -0.81478
 Alpha  occ. eigenvalues --   -0.79066  -0.78513  -0.78159  -0.77179  -0.76357
 Alpha  occ. eigenvalues --   -0.75741  -0.74943  -0.74751  -0.74537  -0.74262
 Alpha  occ. eigenvalues --   -0.73826  -0.73680  -0.72758  -0.72480  -0.72096
 Alpha  occ. eigenvalues --   -0.71921  -0.70101  -0.69246  -0.65121  -0.64792
 Alpha  occ. eigenvalues --   -0.64383  -0.63001  -0.62380  -0.61862  -0.61258
 Alpha  occ. eigenvalues --   -0.60692  -0.60377  -0.59802  -0.59530  -0.59428
 Alpha  occ. eigenvalues --   -0.58902  -0.58892  -0.57753  -0.57520  -0.57089
 Alpha  occ. eigenvalues --   -0.56144  -0.54021  -0.53266  -0.52958  -0.52567
 Alpha  occ. eigenvalues --   -0.51978  -0.51412  -0.51115  -0.50759  -0.49527
 Alpha  occ. eigenvalues --   -0.49197  -0.48125  -0.47870  -0.47319  -0.47101
 Alpha  occ. eigenvalues --   -0.46690  -0.46145  -0.45797  -0.45735  -0.45559
 Alpha  occ. eigenvalues --   -0.45236  -0.45049  -0.44699  -0.44406  -0.43956
 Alpha  occ. eigenvalues --   -0.43860  -0.43669  -0.43536  -0.43432  -0.43201
 Alpha  occ. eigenvalues --   -0.42974  -0.42806  -0.42761  -0.42173  -0.42058
 Alpha  occ. eigenvalues --   -0.41997  -0.41686  -0.41547  -0.41480  -0.41295
 Alpha  occ. eigenvalues --   -0.40685  -0.39841  -0.38849  -0.37950  -0.37801
 Alpha  occ. eigenvalues --   -0.37626  -0.37562  -0.37209  -0.37057  -0.36854
 Alpha  occ. eigenvalues --   -0.36705  -0.36276  -0.36155  -0.35944  -0.35568
 Alpha  occ. eigenvalues --   -0.35392  -0.35343  -0.35092  -0.34911  -0.34543
 Alpha  occ. eigenvalues --   -0.34363  -0.34058  -0.33947  -0.33711  -0.33554
 Alpha  occ. eigenvalues --   -0.33068  -0.32983  -0.32919  -0.31603  -0.30641
 Alpha  occ. eigenvalues --   -0.29391  -0.28763  -0.27980  -0.27029  -0.26701
 Alpha  occ. eigenvalues --   -0.25496  -0.25311  -0.24901  -0.24674  -0.24611
 Alpha  occ. eigenvalues --   -0.23596  -0.23220  -0.22424  -0.22114  -0.21956
 Alpha  occ. eigenvalues --   -0.21515  -0.19742  -0.17468
 Alpha virt. eigenvalues --   -0.04415  -0.03995  -0.03172  -0.02311  -0.01865
 Alpha virt. eigenvalues --   -0.00925  -0.00834  -0.00645   0.00217   0.00841
 Alpha virt. eigenvalues --    0.00992   0.01017   0.01113   0.02233   0.02388

 Mulliken charges:
               1
     1  C   -0.127647
     2  C   -0.133667
     3  C   -0.174808
     4  C    0.089911
     5  C    0.095098
     6  C   -0.187534
     7  C   -0.168188
     8  C    0.286694
     9  N   -0.660825
    10  C    0.296641
    11  C   -0.178091
    12  C   -0.174323
    13  C    0.107944
    14  C    0.043930
    15  C   -0.197043
    16  C   -0.143562
    17  C   -0.195816
    18  C    0.103103
    19  C    0.228372
    20  O   -0.557150
    21  C    0.328157
    22  C   -0.202278
    23  C   -0.137268
    24  C   -0.144463
    25  C   -0.191778
    26  C    0.074419
    27  C   -0.187112
    28  C   -0.175205
    29  C    0.275390
    30  C   -0.182001
    31  C   -0.208565
    32  C    0.067681
    33  C    0.057493
    34  C   -0.198167
    35  C   -0.145019
    36  C   -0.142177
    37  C   -0.179691
    38  C    0.314513
    39  N   -0.741758
    40  C    0.250793
    41  C   -0.133909
    42  C   -0.193663
    43  C   -0.138733
    44  S    0.220759
    45  C   -0.144412
    46  C   -0.182008
    47  C   -0.112765
    48  C   -0.147454
    49  C   -0.162711
    50  C    0.105866
    51  C    0.100849
    52  C   -0.196782
    53  C    0.319772
    54  C   -0.236393
    55  C   -0.171038
    56  C   -0.188609
    57  C   -0.174333
    58  C   -0.133583
    59  H    0.127947
    60  H    0.128920
    61  H    0.130557
    62  H    0.134368
    63  H    0.145443
    64  H    0.144041
    65  H    0.146623
    66  H    0.132636
    67  H    0.129777
    68  H    0.133282
    69  H    0.147064
    70  H    0.133393
    71  H    0.130124
    72  H    0.135204
    73  H    0.134359
    74  H    0.145309
    75  H    0.142665
    76  H    0.134321
    77  H    0.129213
    78  H    0.123867
    79  H    0.126682
    80  H    0.139445
    81  H    0.154258
    82  H    0.150395
    83  H    0.144871
    84  H    0.136271
    85  H    0.135764
    86  H    0.138418
    87  H    0.154850
    88  H    0.155049
    89  H    0.144711
    90  H    0.133681
    91  H    0.130669
    92  H    0.128967
 Sum of Mulliken charges =  -0.00000

 Dipole moment (field-independent basis, Debye):
    X=              1.3728    Y=              0.1847    Z=              0.2966  Tot=              1.4166
 Quadrupole moment (field-independent basis, Debye-Ang):
   XX=           -289.0023   YY=           -320.0756   ZZ=           -327.7301
   XY=              3.4369   XZ=             -5.8872   YZ=              5.2264

 Normal termination of Gaussian 16 at Fri Nov  4 23:53:57 2022.
