 Gaussian 16, Revision B.01,
 Gaussian 16:  ES64L-G16RevB.01 20-Dec-2017

 -------------------------------------------------------------------
 #p b3lyp/6-31g(d) 6D 10F nosymm GFInput td=(50-50,nstate=2) SCF=XQC
 -------------------------------------------------------------------

 ------------------------------
 Gaussian input prepared by ASE
 ------------------------------
 Symbolic Z-matrix:
 Charge =  0 Multiplicity = 1

                          Input orientation:
 ---------------------------------------------------------------------
 Center     Atomic      Atomic             Coordinates (Angstroms)
 Number     Number       Type             X           Y           Z
 ---------------------------------------------------------------------
      1          6           0       -1.408145    7.494300   -4.246375
      2          6           0       -1.234382    7.603916   -2.865471
      3          6           0       -0.843252    6.495602   -2.115963
      4          6           0       -0.619010    5.249707   -2.727424
      5          6           0       -0.203764    4.070090   -1.928796
      6          6           0       -0.708977    3.847276   -0.636194
      7          6           0       -0.316022    2.748798    0.120386
      8          6           0        0.593851    1.813215   -0.397926
      9          7           0        0.988983    0.685169    0.369068
     10          6           0        2.338615    0.253005    0.365657
     11          6           0        2.656907   -1.115145    0.379209
     12          6           0        3.981311   -1.537639    0.390844
     13          6           0        5.044041   -0.617277    0.369540
     14          6           0        6.460028   -1.050019    0.340839
     15          6           0        7.438486   -0.334144   -0.373229
     16          6           0        8.787000   -0.713697   -0.400612
     17          6           0        9.232448   -1.839422    0.287617
     18          6           0        8.292410   -2.583092    1.008276
     19          6           0        6.943704   -2.178756    1.015678
     20          8           0        6.175306   -3.023084    1.792347
     21          6           0        7.032021   -3.979382    2.286448
     22          6           0        6.663053   -5.027709    3.117935
     23          6           0        7.679377   -5.898322    3.515701
     24          6           0        9.005950   -5.714850    3.090269
     25          6           0        9.353172   -4.654454    2.254837
     26          6           0        8.349980   -3.769455    1.843294
     27          6           0        4.714093    0.749685    0.355667
     28          6           0        3.393273    1.181500    0.360804
     29          6           0        0.018323   -0.025042    1.132778
     30          6           0        0.312634   -0.402693    2.462783
     31          6           0       -0.618563   -1.088950    3.230761
     32          6           0       -1.870508   -1.401386    2.687563
     33          6           0       -3.051344   -2.065633    3.194187
     34          6           0       -3.376328   -2.664492    4.417327
     35          6           0       -4.630287   -3.248030    4.575021
     36          6           0       -5.559044   -3.244333    3.520308
     37          6           0       -5.261609   -2.654787    2.292778
     38          6           0       -4.006350   -2.060176    2.144774
     39          7           0       -3.451842   -1.420355    1.028670
     40          6           0       -4.100246   -1.219454   -0.220994
     41          6           0       -3.527070   -1.739793   -1.396918
     42          6           0       -4.142821   -1.549335   -2.628971
     43          6           0       -5.351554   -0.851658   -2.678203
     44         16           0       -6.301892   -0.509439   -4.126289
     45          6           0       -7.515871    0.341902   -3.162587
     46          6           0       -8.675552    0.947376   -3.651217
     47          6           0       -9.526892    1.578100   -2.747709
     48          6           0       -9.226324    1.604432   -1.376806
     49          6           0       -8.070799    0.999997   -0.895238
     50          6           0       -7.196950    0.358227   -1.786005
     51          6           0       -5.947374   -0.332303   -1.506524
     52          6           0       -5.301639   -0.513863   -0.276285
     53          6           0       -2.152732   -1.016593    1.352013
     54          6           0       -1.223572   -0.335860    0.565050
     55          6           0        1.097719    2.018730   -1.692388
     56          6           0        0.710651    3.130115   -2.433804
     57          6           0       -0.799847    5.155733   -4.118411
     58          6           0       -1.188114    6.264271   -4.869058
     59          1           0       -1.712026    8.358340   -4.831110
     60          1           0       -1.394350    8.558165   -2.370064
     61          1           0       -0.684047    6.600961   -1.046315
     62          1           0       -1.433609    4.540668   -0.218556
     63          1           0       -0.720585    2.603762    1.116930
     64          1           0        1.857548   -1.848961    0.375666
     65          1           0        4.193205   -2.600914    0.394746
     66          1           0        7.125651    0.534186   -0.945270
     67          1           0        9.490919   -0.120601   -0.977556
     68          1           0       10.278187   -2.132079    0.264367
     69          1           0        5.634596   -5.155716    3.438841
     70          1           0        7.437575   -6.733240    4.167284
     71          1           0        9.771844   -6.411441    3.419099
     72          1           0       10.381309   -4.519478    1.930434
     73          1           0        5.507308    1.491584    0.380689
     74          1           0        3.171647    2.243700    0.373927
     75          1           0        1.279292   -0.142678    2.880554
     76          1           0       -0.378524   -1.363141    4.254640
     77          1           0       -2.656104   -2.677014    5.231329
     78          1           0       -4.893611   -3.714626    5.520012
     79          1           0       -6.529656   -3.712448    3.660271
     80          1           0       -5.979988   -2.663070    1.479556
     81          1           0       -2.600503   -2.300776   -1.330503
     82          1           0       -3.693337   -1.950816   -3.532213
     83          1           0       -8.908964    0.927978   -4.711706
     84          1           0      -10.433173    2.054637   -3.110762
     85          1           0       -9.902142    2.101355   -0.686820
     86          1           0       -7.843984    1.024086    0.167298
     87          1           0       -5.722564   -0.104166    0.636671
     88          1           0       -1.447809   -0.044066   -0.454462
     89          1           0        1.802902    1.307623   -2.110701
     90          1           0        1.137065    3.276552   -3.422302
     91          1           0       -0.659956    4.197317   -4.610775
     92          1           0       -1.328777    6.163792   -5.942236
 ---------------------------------------------------------------------

 SCF Done:  E(RB3LYP) =  -2661.22189194     A.U. after   16 cycles

 Excitation energies and oscillator strengths:

 Excited state symmetry could not be determined.
 Excited State   1:      Triplet-?Sym    2.6592 eV  466.24 nm  f=0.0000  <S**2>=2.000
     196 ->200         0.19118
     198 ->200         0.56279
     198 ->202        -0.22993
 This state for optimization and/or second-order correction.
 Total Energy, E(TD-HF/TD-DFT) =  -2661.12416758
 Copying the excited state density for this state as the 1-particle RhoCI density.

 Excited state symmetry could not be determined.
 Excited State   2:      Triplet-?Sym    2.7509 eV  450.70 nm  f=0.0000  <S**2>=2.000
     195 ->202         0.12490
     196 ->201        -0.12861
     198 ->201         0.61843

 Excited state symmetry could not be determined.
 Excited State   3:      Singlet-?Sym    3.1684 eV  391.32 nm  f=0.0043  <S**2>=0.000
     198 ->199         0.70412

 Excited state symmetry could not be determined.
 Excited State   4:      Singlet-?Sym    3.2526 eV  381.18 nm  f=0.6544  <S**2>=0.000
     198 ->200         0.69344

 Alpha  occ. eigenvalues --  -88.90766 -19.20672 -14.38236 -14.36434 -10.24587
 Alpha  occ. eigenvalues --  -10.24549 -10.24158 -10.23305 -10.23093 -10.22863
 Alpha  occ. eigenvalues --  -10.22800 -10.22790 -10.22630 -10.22350 -10.21342
 Alpha  occ. eigenvalues --  -10.20996 -10.20933 -10.20678 -10.20567 -10.20441
 Alpha  occ. eigenvalues --  -10.20347 -10.20251 -10.20101 -10.19771 -10.19727
 Alpha  occ. eigenvalues --  -10.19690 -10.19609 -10.19572 -10.19520 -10.19486
 Alpha  occ. eigenvalues --  -10.19464 -10.19380 -10.19349 -10.19101 -10.19096
 Alpha  occ. eigenvalues --  -10.18980 -10.18860 -10.18855 -10.18834 -10.18828
 Alpha  occ. eigenvalues --  -10.18763 -10.18753 -10.18731 -10.18724 -10.18711
 Alpha  occ. eigenvalues --  -10.18703 -10.18675 -10.18666 -10.18634 -10.18625
 Alpha  occ. eigenvalues --  -10.18607 -10.18595 -10.18556 -10.18553 -10.18522
 Alpha  occ. eigenvalues --  -10.18409 -10.18222 -10.18066  -7.96865  -5.93319
 Alpha  occ. eigenvalues --   -5.92968  -5.92451  -1.10204  -0.99011  -0.96278
 Alpha  occ. eigenvalues --   -0.90475  -0.86637  -0.86525  -0.86150  -0.85798
 Alpha  occ. eigenvalues --   -0.84708  -0.84432  -0.84309  -0.83211  -0.81478
 Alpha  occ. eigenvalues --   -0.79066  -0.78513  -0.78159  -0.77179  -0.76357
 Alpha  occ. eigenvalues --   -0.75741  -0.74943  -0.74751  -0.74537  -0.74262
 Alpha  occ. eigenvalues --   -0.73826  -0.73680  -0.72758  -0.72480  -0.72095
 Alpha  occ. eigenvalues --   -0.71921  -0.70101  -0.69246  -0.65121  -0.64792
 Alpha  occ. eigenvalues --   -0.64383  -0.63001  -0.62380  -0.61862  -0.61258
 Alpha  occ. eigenvalues --   -0.60692  -0.60377  -0.59802  -0.59530  -0.59428
 Alpha  occ. eigenvalues --   -0.58902  -0.58892  -0.57753  -0.57520  -0.57089
 Alpha  occ. eigenvalues --   -0.56144  -0.54021  -0.53265  -0.52958  -0.52567
 Alpha  occ. eigenvalues --   -0.51978  -0.51412  -0.51115  -0.50759  -0.49528
 Alpha  occ. eigenvalues --   -0.49197  -0.48125  -0.47870  -0.47319  -0.47101
 Alpha  occ. eigenvalues --   -0.46691  -0.46145  -0.45797  -0.45735  -0.45559
 Alpha  occ. eigenvalues --   -0.45236  -0.45050  -0.44699  -0.44406  -0.43956
 Alpha  occ. eigenvalues --   -0.43860  -0.43669  -0.43536  -0.43432  -0.43201
 Alpha  occ. eigenvalues --   -0.42974  -0.42806  -0.42761  -0.42173  -0.42058
 Alpha  occ. eigenvalues --   -0.41997  -0.41686  -0.41547  -0.41480  -0.41295
 Alpha  occ. eigenvalues --   -0.40685  -0.39841  -0.38849  -0.37950  -0.37801
 Alpha  occ. eigenvalues --   -0.37626  -0.37562  -0.37209  -0.37057  -0.36854
 Alpha  occ. eigenvalues --   -0.36705  -0.36276  -0.36155  -0.35944  -0.35568
 Alpha  occ. eigenvalues --   -0.35392  -0.35343  -0.35091  -0.34911  -0.34543
 Alpha  occ. eigenvalues --   -0.34363  -0.34058  -0.33947  -0.33711  -0.33554
 Alpha  occ. eigenvalues --   -0.33068  -0.32983  -0.32919  -0.31603  -0.30641
 Alpha  occ. eigenvalues --   -0.29391  -0.28763  -0.27980  -0.27029  -0.26701
 Alpha  occ. eigenvalues --   -0.25496  -0.25311  -0.24901  -0.24674  -0.24611
 Alpha  occ. eigenvalues --   -0.23596  -0.23220  -0.22424  -0.22114  -0.21956
 Alpha  occ. eigenvalues --   -0.21515  -0.19742  -0.17468
 Alpha virt. eigenvalues --   -0.04415  -0.03995  -0.03172  -0.02311  -0.01865
 Alpha virt. eigenvalues --   -0.00925  -0.00834  -0.00645   0.00217   0.00841
 Alpha virt. eigenvalues --    0.00992   0.01017   0.01113   0.02233   0.02388

 Mulliken charges:
               1
     1  C   -0.127641
     2  C   -0.133672
     3  C   -0.174812
     4  C    0.089915
     5  C    0.095129
     6  C   -0.187549
     7  C   -0.168209
     8  C    0.286749
     9  N   -0.660846
    10  C    0.296649
    11  C   -0.178093
    12  C   -0.174317
    13  C    0.107937
    14  C    0.043935
    15  C   -0.197044
    16  C   -0.143563
    17  C   -0.195810
    18  C    0.103091
    19  C    0.228369
    20  O   -0.557157
    21  C    0.328172
    22  C   -0.202282
    23  C   -0.137273
    24  C   -0.144456
    25  C   -0.191777
    26  C    0.074423
    27  C   -0.187109
    28  C   -0.175213
    29  C    0.275407
    30  C   -0.182011
    31  C   -0.208573
    32  C    0.067683
    33  C    0.057500
    34  C   -0.198167
    35  C   -0.145015
    36  C   -0.142181
    37  C   -0.179699
    38  C    0.314505
    39  N   -0.741736
    40  C    0.250763
    41  C   -0.133903
    42  C   -0.193655
    43  C   -0.138731
    44  S    0.220759
    45  C   -0.144413
    46  C   -0.182007
    47  C   -0.112766
    48  C   -0.147453
    49  C   -0.162710
    50  C    0.105866
    51  C    0.100832
    52  C   -0.196764
    53  C    0.319763
    54  C   -0.236388
    55  C   -0.171055
    56  C   -0.188616
    57  C   -0.174336
    58  C   -0.133585
    59  H    0.127946
    60  H    0.128920
    61  H    0.130557
    62  H    0.134368
    63  H    0.145442
    64  H    0.144039
    65  H    0.146624
    66  H    0.132636
    67  H    0.129777
    68  H    0.133282
    69  H    0.147064
    70  H    0.133393
    71  H    0.130123
    72  H    0.135203
    73  H    0.134360
    74  H    0.145311
    75  H    0.142667
    76  H    0.134322
    77  H    0.129213
    78  H    0.123867
    79  H    0.126682
    80  H    0.139447
    81  H    0.154258
    82  H    0.150395
    83  H    0.144871
    84  H    0.136271
    85  H    0.135764
    86  H    0.138417
    87  H    0.154850
    88  H    0.155045
    89  H    0.144713
    90  H    0.133679
    91  H    0.130669
    92  H    0.128967
 Sum of Mulliken charges =  -0.00000

 Dipole moment (field-independent basis, Debye):
    X=             -1.1974    Y=              0.3568    Z=             -0.6676  Tot=              1.4166
 Quadrupole moment (field-independent basis, Debye-Ang):
   XX=           -294.4897   YY=           -321.4772   ZZ=           -320.4951
   XY=            -13.8720   XZ=              2.5793   YZ=             -7.9917

 Normal termination of Gaussian 16 at Sat Nov  5 10:46:45 2022.
