 Gaussian 16, Revision B.01,
 Gaussian 16:  ES64L-G16RevB.01 20-Dec-2017

 -----------------------------
 #p b3lyp/6-31g(d) opt SCF=XQC
 -----------------------------

 ------------------------------
 Gaussian input prepared by ASE
 ------------------------------
 Symbolic Z-matrix:
 Charge =  0 Multiplicity = 1

 SCF Done:  E(RB3LYP) =  -1512.99174891     A.U. after   17 cycles
 SCF Done:  E(RB3LYP) =  -1512.99731302     A.U. after   13 cycles
 SCF Done:  E(RB3LYP) =  -1512.99745172     A.U. after   12 cycles
 SCF Done:  E(RB3LYP) =  -1512.99746609     A.U. after   12 cycles
 SCF Done:  E(RB3LYP) =  -1512.99746815     A.U. after   10 cycles
 SCF Done:  E(RB3LYP) =  -1512.99746848     A.U. after    8 cycles
 SCF Done:  E(RB3LYP) =  -1512.99746865     A.U. after    8 cycles
 SCF Done:  E(RB3LYP) =  -1512.99746874     A.U. after    7 cycles
 SCF Done:  E(RB3LYP) =  -1512.99746878     A.U. after    7 cycles
 Optimization completed.
    -- Stationary point found.

                         Standard orientation:
 ---------------------------------------------------------------------
 Center     Atomic      Atomic             Coordinates (Angstroms)
 Number     Number       Type             X           Y           Z
 ---------------------------------------------------------------------
      1          6           0        5.157583    0.000178    1.476543
      2         16           0        4.733893   -0.000138   -0.311852
      3          6           0        2.934450   -0.000092   -0.223475
      4          6           0        2.233988   -1.230727   -0.197983
      5          6           0        2.913581   -2.483442   -0.233719
      6          6           0        2.216707   -3.664231   -0.195694
      7          6           0        0.812541   -3.666214   -0.121722
      8          6           0        0.084038   -2.484713   -0.089033
      9          6           0       -1.385358   -2.483557   -0.016581
     10          6           0       -2.133296   -3.655490    0.019072
     11          6           0       -3.541696   -3.644340    0.090046
     12          6           0       -4.225218   -2.455464    0.126008
     13          6           0       -3.517263   -1.221072    0.091393
     14          6           0       -4.196956    0.000094    0.125888
     15          6           0       -3.517199    1.221225    0.091400
     16          6           0       -4.225089    2.455653    0.126026
     17          6           0       -3.541505    3.644495    0.090072
     18          6           0       -2.133105    3.655570    0.019088
     19          6           0       -1.385229    2.483599   -0.016580
     20          6           0        0.084166    2.484678   -0.089054
     21          6           0        0.812730    3.666141   -0.121779
     22          6           0        2.216894    3.664085   -0.195786
     23          6           0        2.913705    2.483258   -0.233800
     24          6           0        2.234049    1.230579   -0.198014
     25          6           0        0.790480    1.229975   -0.126704
     26          6           0        0.083529   -0.000018   -0.090388
     27          6           0        0.790417   -1.230047   -0.126691
     28          6           0       -1.369099    0.000020   -0.016203
     29          6           0       -2.077772   -1.227921    0.019210
     30          6           0       -2.077708    1.227999    0.019212
     31          1           0        6.249469    0.000163    1.541185
     32          1           0        4.767039    0.894799    1.968290
     33          1           0        4.766993   -0.894243    1.968617
     34          1           0        3.994175   -2.483066   -0.304945
     35          1           0        2.749340   -4.610964   -0.226082
     36          1           0        0.305360   -4.623495   -0.093169
     37          1           0       -1.638964   -4.619589   -0.008187
     38          1           0       -4.078352   -4.588736    0.115470
     39          1           0       -5.310516   -2.434058    0.180410
     40          1           0       -5.283266    0.000123    0.180269
     41          1           0       -5.310388    2.434304    0.180433
     42          1           0       -4.078111    4.588918    0.115506
     43          1           0       -1.638722    4.619644   -0.008165
     44          1           0        0.305598    4.623449   -0.093238
     45          1           0        2.749574    4.610789   -0.226215
     46          1           0        3.994297    2.482825   -0.305068
 ---------------------------------------------------------------------

 The electronic state is 1-A.
 Alpha  occ. eigenvalues --  -88.87226 -10.21672 -10.20926 -10.20739 -10.20523
 Alpha  occ. eigenvalues --  -10.20521 -10.20506 -10.20505 -10.20491 -10.20475
 Alpha  occ. eigenvalues --  -10.20472 -10.20426 -10.20426 -10.20359 -10.20351
 Alpha  occ. eigenvalues --  -10.20194 -10.20192 -10.19471 -10.19471 -10.19414
 Alpha  occ. eigenvalues --  -10.19376 -10.19376 -10.19356 -10.19356 -10.19135
 Alpha  occ. eigenvalues --  -10.19135 -10.19077 -10.19077 -10.18559 -10.18559
 Alpha  occ. eigenvalues --   -7.93236  -5.89774  -5.89401  -5.88685  -0.90385
 Alpha  occ. eigenvalues --   -0.87579  -0.87001  -0.84359  -0.82575  -0.82017
 Alpha  occ. eigenvalues --   -0.79808  -0.78457  -0.77756  -0.75014  -0.74647
 Alpha  occ. eigenvalues --   -0.73672  -0.73380  -0.72430  -0.68144  -0.66516
 Alpha  occ. eigenvalues --   -0.64717  -0.64088  -0.63183  -0.61808  -0.60595
 Alpha  occ. eigenvalues --   -0.59895  -0.56306  -0.56294  -0.53819  -0.53656
 Alpha  occ. eigenvalues --   -0.52222  -0.51621  -0.49892  -0.48393  -0.47661
 Alpha  occ. eigenvalues --   -0.46661  -0.46460  -0.45508  -0.44574  -0.44223
 Alpha  occ. eigenvalues --   -0.43153  -0.42877  -0.42498  -0.42346  -0.42164
 Alpha  occ. eigenvalues --   -0.41797  -0.41057  -0.39970  -0.39702  -0.39405
 Alpha  occ. eigenvalues --   -0.39155  -0.38549  -0.38004  -0.36991  -0.36564
 Alpha  occ. eigenvalues --   -0.36042  -0.35269  -0.35087  -0.34533  -0.33719
 Alpha  occ. eigenvalues --   -0.32764  -0.31926  -0.31832  -0.30341  -0.29421
 Alpha  occ. eigenvalues --   -0.28859  -0.26344  -0.24750  -0.24215  -0.23581
 Alpha  occ. eigenvalues --   -0.22526  -0.22314  -0.16447
 Alpha virt. eigenvalues --   -0.09769  -0.03284  -0.02586  -0.02294  -0.00544
 Alpha virt. eigenvalues --   -0.00474   0.04086   0.04407   0.05017   0.07780
 Alpha virt. eigenvalues --    0.08936   0.09422   0.09601   0.10042   0.10753

 Mulliken charges:
               1
     1  C   -0.580810
     2  S    0.089765
     3  C   -0.301833
     4  C    0.142807
     5  C   -0.217633
     6  C   -0.123820
     7  C   -0.238668
     8  C    0.094211
     9  C    0.097982
    10  C   -0.239198
    11  C   -0.127819
    12  C   -0.201099
    13  C    0.174874
    14  C   -0.330881
    15  C    0.174874
    16  C   -0.201099
    17  C   -0.127819
    18  C   -0.239198
    19  C    0.097981
    20  C    0.094211
    21  C   -0.238668
    22  C   -0.123821
    23  C   -0.217638
    24  C    0.142814
    25  C    0.015771
    26  C    0.017968
    27  C    0.015770
    28  C    0.037571
    29  C   -0.013896
    30  C   -0.013895
    31  H    0.179598
    32  H    0.185881
    33  H    0.185882
    34  H    0.163605
    35  H    0.132047
    36  H    0.134083
    37  H    0.135218
    38  H    0.132550
    39  H    0.131732
    40  H    0.131369
    41  H    0.131732
    42  H    0.132550
    43  H    0.135218
    44  H    0.134083
    45  H    0.132047
    46  H    0.163602
 Sum of Mulliken charges =  -0.00000

 Dipole moment (field-independent basis, Debye):
    X=             -1.3128    Y=              0.0002    Z=              1.4085  Tot=              1.9254
 Quadrupole moment (field-independent basis, Debye-Ang):
   XX=           -159.0507   YY=           -152.4854   ZZ=           -182.4208
   XY=              0.0013   XZ=              6.4555   YZ=              0.0001

 1\1\GINC-NODE83\FOpt\RB3LYP\6-31G(d)\C29H16S1\WYKGROUP\04-Nov-2022\0\\
 #p b3lyp/6-31g(d) opt SCF=XQC\\Gaussian input prepared by ASE\\0,1\C,5
 .3637248057,-0.7722560189,0.6594316608\S,4.6992670061,-0.7679375246,-1
 .054145982\C,2.9500601607,-0.4857882343,-0.7278463478\C,2.0846011374,-
 1.591296212,-0.54185607\C,2.558300092,-2.9347351536,-0.5984192262\C,1.
 7055282449,-3.9911586347,-0.4032478801\C,0.3409608368,-3.7728100431,-0
 .1435580402\C,-0.1916514562,-2.4921999172,-0.0795952977\C,-1.619819559
 6,-2.2606875807,0.1870758624\C,-2.5215927882,-3.300528033,0.3861891171

 Normal termination of Gaussian 16 at Fri Nov  4 23:19:52 2022.
