 Gaussian 16, Revision B.01,
 Gaussian 16:  ES64L-G16RevB.01 20-Dec-2017

 -------------------------------------------------------------------
 #p b3lyp/6-31g(d) 6D 10F nosymm GFInput td=(50-50,nstate=2) SCF=XQC
 -------------------------------------------------------------------

 ------------------------------
 Gaussian input prepared by ASE
 ------------------------------
 Symbolic Z-matrix:
 Charge =  0 Multiplicity = 1

                          Input orientation:
 ---------------------------------------------------------------------
 Center     Atomic      Atomic             Coordinates (Angstroms)
 Number     Number       Type             X           Y           Z
 ---------------------------------------------------------------------
      1          6           0        5.363725   -0.772256    0.659432
      2         16           0        4.699267   -0.767938   -1.054146
      3          6           0        2.950060   -0.485788   -0.727846
      4          6           0        2.084601   -1.591296   -0.541856
      5          6           0        2.558300   -2.934735   -0.598419
      6          6           0        1.705528   -3.991159   -0.403248
      7          6           0        0.340961   -3.772810   -0.143558
      8          6           0       -0.191651   -2.492200   -0.079595
      9          6           0       -1.619820   -2.260688    0.187076
     10          6           0       -2.521593   -3.300528    0.386189
     11          6           0       -3.888767   -3.068660    0.642751
     12          6           0       -4.375790   -1.787632    0.703575
     13          6           0       -3.503710   -0.679889    0.507355
     14          6           0       -3.982380    0.632375    0.564441
     15          6           0       -3.139861    1.731403    0.372820
     16          6           0       -3.644140    3.061138    0.433047
     17          6           0       -2.802889    4.127643    0.241245
     18          6           0       -1.432406    3.917718   -0.016550
     19          6           0       -0.879825    2.643409   -0.086557
     20          6           0        0.548672    2.414104   -0.353373
     21          6           0        1.433307    3.466458   -0.547542
     22          6           0        2.797266    3.244121   -0.807044
     23          6           0        3.298211    1.968910   -0.872106
     24          6           0        2.451273    0.838762   -0.677476
     25          6           0        1.047966    1.064493   -0.415266
     26          6           0        0.177761   -0.039005   -0.217738
     27          6           0        0.681481   -1.364299   -0.279735
     28          6           0       -1.233916    0.188861    0.048484
     29          6           0       -2.105628   -0.912375    0.245233
     30          6           0       -1.739750    1.512367    0.109942
     31          1           0        6.441639   -0.939410    0.578476
     32          1           0        5.183303    0.188378    1.148632
     33          1           0        4.916823   -1.577941    1.247510
     34          1           0        3.606253   -3.104392   -0.812355
     35          1           0        2.081685   -5.009523   -0.451866
     36          1           0       -0.294144   -4.638306    0.004750
     37          1           0       -2.185080   -4.329992    0.346707
     38          1           0       -4.551243   -3.916969    0.791164
     39          1           0       -5.427451   -1.596315    0.900286
     40          1           0       -5.038219    0.802742    0.762443
     41          1           0       -4.702170    3.210243    0.632119
     42          1           0       -3.183971    5.144175    0.285617
     43          1           0       -0.808637    4.791949   -0.162247
     44          1           0        1.083431    4.491245   -0.504718
     45          1           0        3.455494    4.095156   -0.960010
     46          1           0        4.346035    1.798454   -1.086039
 ---------------------------------------------------------------------

 SCF Done:  E(RB3LYP) =  -1512.99748586     A.U. after   17 cycles

 Excitation energies and oscillator strengths:

 Excited state symmetry could not be determined.
 Excited State   1:      Triplet-?Sym    0.3159 eV 3924.72 nm  f=0.0000  <S**2>=2.000
     100 ->106        -0.11975
     102 ->105        -0.10838
     103 ->104         0.85165
     100 <-106        -0.10080
     103 <-104         0.49195
 This state for optimization and/or second-order correction.
 Total Energy, E(TD-HF/TD-DFT) =  -1512.98587653
 Copying the excited state density for this state as the 1-particle RhoCI density.

 Excited state symmetry could not be determined.
 Excited State   2:      Singlet-?Sym    1.7635 eV  703.07 nm  f=0.2831  <S**2>=0.000
     103 ->104         0.71512
     103 <-104        -0.13727

 Excited state symmetry could not be determined.
 Excited State   3:      Triplet-?Sym    2.0479 eV  605.43 nm  f=0.0000  <S**2>=2.000
     101 ->104        -0.25527
     102 ->104         0.46149
     103 ->105        -0.42673
     103 ->107        -0.12018

 Excited state symmetry could not be determined.
 Excited State   4:      Singlet-?Sym    2.7980 eV  443.11 nm  f=0.0001  <S**2>=0.000
     101 ->104         0.17973
     102 ->104         0.64581
     103 ->105         0.19563

 Alpha  occ. eigenvalues --  -88.87226 -10.21672 -10.20926 -10.20739 -10.20523
 Alpha  occ. eigenvalues --  -10.20521 -10.20506 -10.20505 -10.20492 -10.20476
 Alpha  occ. eigenvalues --  -10.20472 -10.20426 -10.20426 -10.20359 -10.20351
 Alpha  occ. eigenvalues --  -10.20194 -10.20192 -10.19472 -10.19471 -10.19415
 Alpha  occ. eigenvalues --  -10.19376 -10.19376 -10.19356 -10.19356 -10.19135
 Alpha  occ. eigenvalues --  -10.19135 -10.19077 -10.19077 -10.18559 -10.18559
 Alpha  occ. eigenvalues --   -7.93236  -5.89774  -5.89401  -5.88685  -0.90385
 Alpha  occ. eigenvalues --   -0.87579  -0.87001  -0.84359  -0.82575  -0.82017
 Alpha  occ. eigenvalues --   -0.79808  -0.78457  -0.77756  -0.75014  -0.74647
 Alpha  occ. eigenvalues --   -0.73672  -0.73380  -0.72430  -0.68144  -0.66516
 Alpha  occ. eigenvalues --   -0.64717  -0.64088  -0.63183  -0.61808  -0.60595
 Alpha  occ. eigenvalues --   -0.59895  -0.56306  -0.56294  -0.53819  -0.53656
 Alpha  occ. eigenvalues --   -0.52222  -0.51621  -0.49892  -0.48393  -0.47661
 Alpha  occ. eigenvalues --   -0.46661  -0.46460  -0.45508  -0.44574  -0.44223
 Alpha  occ. eigenvalues --   -0.43153  -0.42877  -0.42498  -0.42346  -0.42164
 Alpha  occ. eigenvalues --   -0.41797  -0.41057  -0.39970  -0.39702  -0.39405
 Alpha  occ. eigenvalues --   -0.39155  -0.38549  -0.38004  -0.36991  -0.36564
 Alpha  occ. eigenvalues --   -0.36043  -0.35269  -0.35087  -0.34533  -0.33719
 Alpha  occ. eigenvalues --   -0.32764  -0.31926  -0.31832  -0.30341  -0.29421
 Alpha  occ. eigenvalues --   -0.28859  -0.26344  -0.24750  -0.24214  -0.23581
 Alpha  occ. eigenvalues --   -0.22526  -0.22314  -0.16447
 Alpha virt. eigenvalues --   -0.09769  -0.03284  -0.02586  -0.02294  -0.00545
 Alpha virt. eigenvalues --   -0.00474   0.04086   0.04407   0.05017   0.07780
 Alpha virt. eigenvalues --    0.08936   0.09422   0.09601   0.10042   0.10753

 Mulliken charges:
               1
     1  C   -0.580809
     2  S    0.089764
     3  C   -0.301845
     4  C    0.142810
     5  C   -0.217631
     6  C   -0.123821
     7  C   -0.238669
     8  C    0.094205
     9  C    0.097996
    10  C   -0.239202
    11  C   -0.127823
    12  C   -0.201103
    13  C    0.174884
    14  C   -0.330877
    15  C    0.174874
    16  C   -0.201093
    17  C   -0.127822
    18  C   -0.239201
    19  C    0.097987
    20  C    0.094219
    21  C   -0.238671
    22  C   -0.123824
    23  C   -0.217643
    24  C    0.142826
    25  C    0.015757
    26  C    0.017966
    27  C    0.015778
    28  C    0.037575
    29  C   -0.013916
    30  C   -0.013902
    31  H    0.179599
    32  H    0.185881
    33  H    0.185882
    34  H    0.163606
    35  H    0.132047
    36  H    0.134084
    37  H    0.135219
    38  H    0.132551
    39  H    0.131733
    40  H    0.131369
    41  H    0.131732
    42  H    0.132551
    43  H    0.135219
    44  H    0.134084
    45  H    0.132047
    46  H    0.163604
 Sum of Mulliken charges =  -0.00000

 Dipole moment (field-independent basis, Debye):
    X=             -1.0885    Y=              0.2520    Z=              1.5681  Tot=              1.9254
 Quadrupole moment (field-independent basis, Debye-Ang):
   XX=           -157.8320   YY=           -152.7582   ZZ=           -183.9818
   XY=              0.9838   XZ=              3.1499   YZ=             -2.2327

 Normal termination of Gaussian 16 at Sat Nov  5 10:01:43 2022.
