 Gaussian 16, Revision B.01,
 Gaussian 16:  ES64L-G16RevB.01 20-Dec-2017

 -------------------------------------------------------------------
 #p b3lyp/6-31g(d) 6D 10F nosymm GFInput td=(50-50,nstate=2) SCF=XQC
 -------------------------------------------------------------------

 ------------------------------
 Gaussian input prepared by ASE
 ------------------------------
 Symbolic Z-matrix:
 Charge =  0 Multiplicity = 1

                          Input orientation:
 ---------------------------------------------------------------------
 Center     Atomic      Atomic             Coordinates (Angstroms)
 Number     Number       Type             X           Y           Z
 ---------------------------------------------------------------------
      1          6           0        1.484881    1.218360   -4.076635
      2          6           0        1.924575    0.351601   -2.921081
      3          6           0        3.056388    0.689076   -2.183332
      4          6           0        3.522809   -0.115301   -1.124169
      5          6           0        4.687170    0.249204   -0.390329
      6          6           0        5.682873    0.561373    0.236882
      7          6           0        6.845860    0.926302    0.970223
      8          6           0        7.557980    2.105304    0.668416
      9          6           0        8.690487    2.464245    1.385315
     10          6           0        9.161702    1.657784    2.437346
     11          7           0       10.331312    1.987992    3.121011
     12          6           0        8.456996    0.479317    2.743571
     13          6           0        7.324816    0.122503    2.025086
     14          6           0        2.812592   -1.287346   -0.816838
     15          6           0        1.670584   -1.644359   -1.530863
     16          6           0        1.221782   -0.829148   -2.588267
     17          7           0        0.078424   -1.212201   -3.367075
     18          6           0       -1.162990   -0.496837   -3.016287
     19          6           0       -1.860838   -1.074460   -1.789641
     20          6           0       -2.929017   -0.388801   -1.214892
     21          6           0       -3.592132   -0.895600   -0.085297
     22          6           0       -4.680789   -0.190929    0.502398
     23          6           0       -5.611744    0.411263    1.005347
     24          6           0       -6.699009    1.115358    1.593229
     25          6           0       -7.363253    0.612684    2.730922
     26          6           0       -8.421632    1.300284    3.307462
     27          6           0       -8.863326    2.523068    2.769970
     28          7           0       -9.962566    3.186349    3.314171
     29          6           0       -8.206130    3.030356    1.634223
     30          6           0       -7.148069    2.340780    1.059456
     31          6           0       -3.155782   -2.124654    0.448953
     32          6           0       -2.098303   -2.837007   -0.110918
     33          6           0       -1.691748   -4.171769    0.466171
     34          6           0       -1.441309   -2.303090   -1.243234
     35          7           0       -0.377714   -3.046574   -1.856860
     36          6           0        0.923023   -2.924083   -1.172034
     37          6           0       -0.186229   -2.646082   -3.250617
     38          1           0        2.318591    1.822528   -4.447882
     39          1           0        1.098190    0.602906   -4.894916
     40          1           0        0.683906    1.914033   -3.791664
     41          1           0        3.610632    1.587747   -2.439339
     42          1           0        7.207448    2.741496   -0.138698
     43          1           0        9.224627    3.376992    1.130367
     44          1           0       10.415955    1.593243    4.049338
     45          1           0       10.578053    2.969679    3.107210
     46          1           0        8.808573   -0.159858    3.550581
     47          1           0        6.792252   -0.789534    2.277333
     48          1           0        3.157691   -1.915894    0.000733
     49          1           0       -0.932302    0.558904   -2.850985
     50          1           0       -1.836655   -0.541250   -3.884054
     51          1           0       -3.251392    0.560683   -1.635777
     52          1           0       -7.034348   -0.328493    3.161102
     53          1           0       -8.920249    0.889381    4.182647
     54          1           0      -10.004752    4.180180    3.126284
     55          1           0      -10.154394    2.980233    4.286539
     56          1           0       -8.536251    3.972116    1.201182
     57          1           0       -6.651169    2.748984    0.184514
     58          1           0       -3.675280   -2.532575    1.311540
     59          1           0       -0.835357   -4.084752    1.148633
     60          1           0       -1.397544   -4.862586   -0.330140
     61          1           0       -2.514035   -4.614593    1.036842
     62          1           0        0.763695   -2.971921   -0.091545
     63          1           0        1.531569   -3.799369   -1.441036
     64          1           0       -1.085398   -2.884158   -3.826590
     65          1           0        0.656267   -3.208438   -3.664001
 ---------------------------------------------------------------------

 SCF Done:  E(RB3LYP) =  -1493.28860802     A.U. after   15 cycles

 Excitation energies and oscillator strengths:

 Excited state symmetry could not be determined.
 Excited State   1:      Triplet-?Sym    2.5533 eV  485.58 nm  f=0.0000  <S**2>=2.000
     126 ->129         0.45840
     127 ->128         0.48463
 This state for optimization and/or second-order correction.
 Total Energy, E(TD-HF/TD-DFT) =  -1493.19477467
 Copying the excited state density for this state as the 1-particle RhoCI density.

 Excited state symmetry could not be determined.
 Excited State   2:      Triplet-?Sym    2.5553 eV  485.21 nm  f=0.0000  <S**2>=2.000
     126 ->128         0.47534
     127 ->129         0.46756

 Excited state symmetry could not be determined.
 Excited State   3:      Singlet-?Sym    3.6724 eV  337.61 nm  f=1.1117  <S**2>=0.000
     125 ->128         0.10492
     127 ->128         0.68909

 Excited state symmetry could not be determined.
 Excited State   4:      Singlet-?Sym    3.7568 eV  330.03 nm  f=0.0048  <S**2>=0.000
     125 ->129         0.10481
     126 ->128        -0.43290
     127 ->129         0.54452

 Alpha  occ. eigenvalues --  -14.34683 -14.34683 -14.33508 -14.33508 -10.23514
 Alpha  occ. eigenvalues --  -10.23146 -10.23146 -10.21767 -10.21767 -10.21366
 Alpha  occ. eigenvalues --  -10.21366 -10.20169 -10.20168 -10.19811 -10.19811
 Alpha  occ. eigenvalues --  -10.19060 -10.19060 -10.19006 -10.19006 -10.18970
 Alpha  occ. eigenvalues --  -10.18970 -10.18965 -10.18965 -10.18439 -10.18439
 Alpha  occ. eigenvalues --  -10.18437 -10.18437 -10.18365 -10.18365 -10.18155
 Alpha  occ. eigenvalues --  -10.18154 -10.17588 -10.17588 -10.17418 -10.17418
 Alpha  occ. eigenvalues --  -10.17134 -10.17134  -0.97506  -0.92236  -0.92236
 Alpha  occ. eigenvalues --   -0.89806  -0.85434  -0.84781  -0.84182  -0.84151
 Alpha  occ. eigenvalues --   -0.78436  -0.77930  -0.76928  -0.76672  -0.75190
 Alpha  occ. eigenvalues --   -0.74819  -0.74393  -0.74393  -0.70666  -0.70222
 Alpha  occ. eigenvalues --   -0.69455  -0.67994  -0.67897  -0.65227  -0.64792
 Alpha  occ. eigenvalues --   -0.61943  -0.61333  -0.61332  -0.60960  -0.59695
 Alpha  occ. eigenvalues --   -0.58522  -0.56775  -0.55851  -0.53193  -0.52984
 Alpha  occ. eigenvalues --   -0.51361  -0.51360  -0.51239  -0.51104  -0.50817
 Alpha  occ. eigenvalues --   -0.49632  -0.49404  -0.48990  -0.48051  -0.44994
 Alpha  occ. eigenvalues --   -0.44234  -0.43796  -0.43450  -0.43390  -0.43302
 Alpha  occ. eigenvalues --   -0.43194  -0.43180  -0.42922  -0.41809  -0.41807
 Alpha  occ. eigenvalues --   -0.41328  -0.41134  -0.41093  -0.40329  -0.39781
 Alpha  occ. eigenvalues --   -0.39492  -0.39120  -0.38697  -0.38697  -0.37983
 Alpha  occ. eigenvalues --   -0.37513  -0.37511  -0.36770  -0.36355  -0.35395
 Alpha  occ. eigenvalues --   -0.35265  -0.34700  -0.34342  -0.34294  -0.34129
 Alpha  occ. eigenvalues --   -0.33625  -0.32668  -0.32645  -0.29168  -0.28341
 Alpha  occ. eigenvalues --   -0.26342  -0.25300  -0.25218  -0.24925  -0.24925
 Alpha  occ. eigenvalues --   -0.24093  -0.23544  -0.23346  -0.22219  -0.20764
 Alpha  occ. eigenvalues --   -0.18086  -0.17915
 Alpha virt. eigenvalues --   -0.03037  -0.02848  -0.00024   0.00303   0.00303
 Alpha virt. eigenvalues --    0.00740   0.02488   0.02613   0.06607   0.06607
 Alpha virt. eigenvalues --    0.07538   0.07539   0.09162   0.10500   0.10571

 Mulliken charges:
               1
     1  C   -0.535923
     2  C    0.168722
     3  C   -0.227297
     4  C    0.049731
     5  C   -0.034510
     6  C   -0.059550
     7  C    0.005090
     8  C   -0.140608
     9  C   -0.179227
    10  C    0.323733
    11  N   -0.789339
    12  C   -0.179212
    13  C   -0.140569
    14  C   -0.232750
    15  C    0.153566
    16  C    0.158290
    17  N   -0.462495
    18  C   -0.236186
    19  C    0.153583
    20  C   -0.232764
    21  C    0.049776
    22  C   -0.034512
    23  C   -0.059551
    24  C    0.005131
    25  C   -0.140634
    26  C   -0.179226
    27  C    0.323744
    28  N   -0.789344
    29  C   -0.179217
    30  C   -0.140590
    31  C   -0.227324
    32  C    0.168704
    33  C   -0.535917
    34  C    0.158318
    35  N   -0.462503
    36  C   -0.236172
    37  C   -0.072313
    38  H    0.153887
    39  H    0.175413
    40  H    0.157045
    41  H    0.128308
    42  H    0.137300
    43  H    0.120210
    44  H    0.322838
    45  H    0.322853
    46  H    0.120135
    47  H    0.136805
    48  H    0.127104
    49  H    0.167691
    50  H    0.162224
    51  H    0.127100
    52  H    0.137299
    53  H    0.120208
    54  H    0.322839
    55  H    0.322853
    56  H    0.120135
    57  H    0.136810
    58  H    0.128313
    59  H    0.157045
    60  H    0.175413
    61  H    0.153887
    62  H    0.167692
    63  H    0.162224
    64  H    0.162856
    65  H    0.162857
 Sum of Mulliken charges =  -0.00000

 Dipole moment (field-independent basis, Debye):
    X=              0.1980    Y=              2.7946    Z=              3.4539  Tot=              4.4473
 Quadrupole moment (field-independent basis, Debye-Ang):
   XX=           -172.4064   YY=           -186.6096   ZZ=           -184.4577
   XY=             -5.9903   XZ=              4.4661   YZ=              6.3682

 Normal termination of Gaussian 16 at Sat Nov  5 09:56:05 2022.
