 Gaussian 16, Revision B.01,
 Gaussian 16:  ES64L-G16RevB.01 20-Dec-2017

 -----------------------------
 #p b3lyp/6-31g(d) opt SCF=XQC
 -----------------------------

 ------------------------------
 Gaussian input prepared by ASE
 ------------------------------
 Symbolic Z-matrix:
 Charge =  0 Multiplicity = 1

 SCF Done:  E(RB3LYP) =  -1493.28059736     A.U. after   15 cycles
 SCF Done:  E(RB3LYP) =  -1493.28789040     A.U. after   13 cycles
 SCF Done:  E(RB3LYP) =  -1493.28827827     A.U. after   11 cycles
 SCF Done:  E(RB3LYP) =  -1493.28850520     A.U. after   12 cycles
 SCF Done:  E(RB3LYP) =  -1493.28855021     A.U. after   12 cycles
 SCF Done:  E(RB3LYP) =  -1493.28858387     A.U. after   10 cycles
 SCF Done:  E(RB3LYP) =  -1493.28860053     A.U. after   10 cycles
 SCF Done:  E(RB3LYP) =  -1493.28860466     A.U. after   10 cycles
 SCF Done:  E(RB3LYP) =  -1493.28860892     A.U. after   10 cycles
 SCF Done:  E(RB3LYP) =  -1493.28860947     A.U. after    8 cycles
 SCF Done:  E(RB3LYP) =  -1493.28860967     A.U. after    8 cycles
 SCF Done:  E(RB3LYP) =  -1493.28860976     A.U. after    7 cycles
 Optimization completed.
    -- Stationary point found.

                         Standard orientation:
 ---------------------------------------------------------------------
 Center     Atomic      Atomic             Coordinates (Angstroms)
 Number     Number       Type             X           Y           Z
 ---------------------------------------------------------------------
      1          6           0       -1.666564   -2.322364    3.488278
      2          6           0       -2.059373   -1.949995    2.078686
      3          6           0       -3.150430   -1.114612    1.853088
      4          6           0       -3.573908   -0.776716    0.551976
      5          6           0       -4.697366    0.074064    0.349147
      6          6           0       -5.658100    0.801642    0.176264
      7          6           0       -6.780204    1.652239   -0.025892
      8          6           0       -7.493096    2.190377    1.065180
      9          6           0       -8.585619    3.023087    0.869360
     10          6           0       -9.014252    3.354347   -0.428997
     11          7           0      -10.145753    4.144842   -0.627106
     12          6           0       -8.308545    2.820307   -1.522591
     13          6           0       -7.216403    1.987717   -1.324127
     14          6           0       -2.862573   -1.306107   -0.537195
     15          6           0       -1.760402   -2.135796   -0.341473
     16          6           0       -1.354317   -2.464733    0.966576
     17          7           0       -0.254214   -3.361158    1.182763
     18          6           0        1.010482   -2.694442    1.546000
     19          6           0        1.760426   -2.135789    0.341512
     20          6           0        2.862600   -1.306094    0.537191
     21          6           0        3.573939   -0.776764   -0.552009
     22          6           0        4.697400    0.074020   -0.349225
     23          6           0        5.658131    0.801610   -0.176371
     24          6           0        6.780205    1.652240    0.025816
     25          6           0        7.493109    2.190401   -1.065237
     26          6           0        8.585602    3.023142   -0.869386
     27          6           0        9.014194    3.354412    0.428982
     28          7           0       10.145667    4.144938    0.627121
     29          6           0        8.308474    2.820348    1.522557
     30          6           0        7.216361    1.987727    1.324063
     31          6           0        3.150460   -1.114729   -1.853102
     32          6           0        2.059400   -1.950119   -2.078656
     33          6           0        1.666590   -2.322563   -3.488228
     34          6           0        1.354339   -2.464794   -0.966519
     35          7           0        0.254230   -3.361222   -1.182659
     36          6           0       -1.010460   -2.694515   -1.545931
     37          6           0        0.000005   -4.183495    0.000074
     38          1           0       -2.510563   -2.193955    4.173181
     39          1           0       -1.326658   -3.361812    3.531954
     40          1           0       -0.845164   -1.699541    3.867913
     41          1           0       -3.706504   -0.724080    2.700791
     42          1           0       -7.175027    1.947706    2.074631
     43          1           0       -9.121408    3.422391    1.727787
     44          1           0      -10.189752    4.621536   -1.519074
     45          1           0      -10.382084    4.761964    0.139765
     46          1           0       -8.627696    3.061069   -2.534318
     47          1           0       -6.682311    1.586830   -2.180339
     48          1           0       -3.174627   -1.050753   -1.547149
     49          1           0        0.799655   -1.892403    2.258330
     50          1           0        1.640885   -3.426267    2.071205
     51          1           0        3.174654   -1.050687    1.547131
     52          1           0        7.175073    1.947723   -2.074695
     53          1           0        9.121402    3.422463   -1.727799
     54          1           0       10.189627    4.621634    1.519091
     55          1           0       10.382000    4.762067   -0.139743
     56          1           0        8.627593    3.061116    2.534293
     57          1           0        6.682259    1.586823    2.180261
     58          1           0        3.706538   -0.724247   -2.700826
     59          1           0        0.845196   -1.699753   -3.867899
     60          1           0        1.326673   -3.362010   -3.531848
     61          1           0        2.510591   -2.194199   -4.173136
     62          1           0       -0.799625   -1.892511   -2.258299
     63          1           0       -1.640868   -3.426360   -2.071102
     64          1           0        0.867614   -4.820425    0.196297
     65          1           0       -0.867610   -4.820429   -0.196116
 ---------------------------------------------------------------------

 The electronic state is 1-A.
 Alpha  occ. eigenvalues --  -14.34683 -14.34683 -14.33508 -14.33508 -10.23513
 Alpha  occ. eigenvalues --  -10.23146 -10.23146 -10.21767 -10.21767 -10.21366
 Alpha  occ. eigenvalues --  -10.21366 -10.20169 -10.20169 -10.19811 -10.19811
 Alpha  occ. eigenvalues --  -10.19060 -10.19060 -10.19006 -10.19006 -10.18970
 Alpha  occ. eigenvalues --  -10.18970 -10.18965 -10.18965 -10.18439 -10.18439
 Alpha  occ. eigenvalues --  -10.18437 -10.18437 -10.18365 -10.18365 -10.18155
 Alpha  occ. eigenvalues --  -10.18155 -10.17588 -10.17588 -10.17418 -10.17418
 Alpha  occ. eigenvalues --  -10.17134 -10.17134  -0.97506  -0.92236  -0.92236
 Alpha  occ. eigenvalues --   -0.89806  -0.85434  -0.84781  -0.84182  -0.84151
 Alpha  occ. eigenvalues --   -0.78436  -0.77930  -0.76928  -0.76672  -0.75190
 Alpha  occ. eigenvalues --   -0.74819  -0.74393  -0.74393  -0.70666  -0.70222
 Alpha  occ. eigenvalues --   -0.69455  -0.67994  -0.67897  -0.65227  -0.64792
 Alpha  occ. eigenvalues --   -0.61943  -0.61333  -0.61332  -0.60960  -0.59695
 Alpha  occ. eigenvalues --   -0.58522  -0.56775  -0.55851  -0.53193  -0.52984
 Alpha  occ. eigenvalues --   -0.51361  -0.51360  -0.51239  -0.51104  -0.50817
 Alpha  occ. eigenvalues --   -0.49633  -0.49404  -0.48990  -0.48051  -0.44994
 Alpha  occ. eigenvalues --   -0.44234  -0.43796  -0.43450  -0.43390  -0.43302
 Alpha  occ. eigenvalues --   -0.43194  -0.43180  -0.42922  -0.41808  -0.41807
 Alpha  occ. eigenvalues --   -0.41328  -0.41134  -0.41093  -0.40329  -0.39781
 Alpha  occ. eigenvalues --   -0.39492  -0.39120  -0.38697  -0.38697  -0.37983
 Alpha  occ. eigenvalues --   -0.37513  -0.37511  -0.36770  -0.36355  -0.35395
 Alpha  occ. eigenvalues --   -0.35265  -0.34700  -0.34343  -0.34294  -0.34129
 Alpha  occ. eigenvalues --   -0.33625  -0.32668  -0.32645  -0.29168  -0.28341
 Alpha  occ. eigenvalues --   -0.26342  -0.25301  -0.25218  -0.24925  -0.24925
 Alpha  occ. eigenvalues --   -0.24093  -0.23544  -0.23346  -0.22219  -0.20764
 Alpha  occ. eigenvalues --   -0.18087  -0.17915
 Alpha virt. eigenvalues --   -0.03037  -0.02848  -0.00024   0.00303   0.00303
 Alpha virt. eigenvalues --    0.00740   0.02488   0.02613   0.06607   0.06607
 Alpha virt. eigenvalues --    0.07538   0.07539   0.09162   0.10500   0.10571

 Mulliken charges:
               1
     1  C   -0.535907
     2  C    0.168706
     3  C   -0.227298
     4  C    0.049730
     5  C   -0.034522
     6  C   -0.059551
     7  C    0.005095
     8  C   -0.140610
     9  C   -0.179223
    10  C    0.323733
    11  N   -0.789341
    12  C   -0.179212
    13  C   -0.140572
    14  C   -0.232738
    15  C    0.153603
    16  C    0.158271
    17  N   -0.462504
    18  C   -0.236180
    19  C    0.153604
    20  C   -0.232738
    21  C    0.049730
    22  C   -0.034522
    23  C   -0.059551
    24  C    0.005095
    25  C   -0.140615
    26  C   -0.179220
    27  C    0.323733
    28  N   -0.789340
    29  C   -0.179214
    30  C   -0.140566
    31  C   -0.227297
    32  C    0.168706
    33  C   -0.535907
    34  C    0.158270
    35  N   -0.462504
    36  C   -0.236179
    37  C   -0.072299
    38  H    0.153885
    39  H    0.175410
    40  H    0.157045
    41  H    0.128311
    42  H    0.137301
    43  H    0.120208
    44  H    0.322839
    45  H    0.322853
    46  H    0.120136
    47  H    0.136808
    48  H    0.127104
    49  H    0.167689
    50  H    0.162223
    51  H    0.127103
    52  H    0.137301
    53  H    0.120208
    54  H    0.322838
    55  H    0.322853
    56  H    0.120137
    57  H    0.136808
    58  H    0.128311
    59  H    0.157045
    60  H    0.175410
    61  H    0.153885
    62  H    0.167690
    63  H    0.162223
    64  H    0.162856
    65  H    0.162856
 Sum of Mulliken charges =  -0.00000

 Dipole moment (field-independent basis, Debye):
    X=             -0.0001    Y=              4.4473    Z=              0.0001  Tot=              4.4473
 Quadrupole moment (field-independent basis, Debye-Ang):
   XX=           -172.7285   YY=           -178.9870   ZZ=           -191.6500
   XY=              0.0000   XZ=              7.8922   YZ=              0.0004

 1\1\GINC-NODE07\FOpt\RB3LYP\6-31G(d)\C33H28N4\WYKGROUP\04-Nov-2022\0\\
 #p b3lyp/6-31g(d) opt SCF=XQC\\Gaussian input prepared by ASE\\0,1\C,1
 .4848811319,1.2183596798,-4.0766351692\C,1.9245745022,0.3516010636,-2.
 9210806824\C,3.0563877404,0.6890763774,-2.1833320425\C,3.5228087279,-0
 .1153010835,-1.1241687816\C,4.6871704841,0.2492042562,-0.3903294481\C,
 5.6828733243,0.5613726341,0.236882377\C,6.8458604528,0.9263016469,0.97
 02228182\C,7.557979793,2.1053035186,0.6684163488\C,8.6904873667,2.4642
 45466,1.3853154206\C,9.1617017098,1.6577843803,2.4373459607\N,10.33131

 Normal termination of Gaussian 16 at Fri Nov  4 23:26:05 2022.
