 Gaussian 16, Revision B.01,
 Gaussian 16:  ES64L-G16RevB.01 20-Dec-2017

 -----------------------------
 #p b3lyp/6-31g(d) opt SCF=XQC
 -----------------------------

 ------------------------------
 Gaussian input prepared by ASE
 ------------------------------
 Symbolic Z-matrix:
 Charge =  0 Multiplicity = 1

 SCF Done:  E(RB3LYP) =  -1232.07219100     A.U. after   15 cycles
 SCF Done:  E(RB3LYP) =  -1232.07761927     A.U. after   12 cycles
 SCF Done:  E(RB3LYP) =  -1232.07801590     A.U. after   11 cycles
 SCF Done:  E(RB3LYP) =  -1232.07812081     A.U. after   11 cycles
 SCF Done:  E(RB3LYP) =  -1232.07813503     A.U. after   10 cycles
 SCF Done:  E(RB3LYP) =  -1232.07813961     A.U. after    8 cycles
 SCF Done:  E(RB3LYP) =  -1232.07814213     A.U. after    8 cycles
 SCF Done:  E(RB3LYP) =  -1232.07814369     A.U. after    8 cycles
 SCF Done:  E(RB3LYP) =  -1232.07814427     A.U. after    7 cycles
 SCF Done:  E(RB3LYP) =  -1232.07814528     A.U. after    9 cycles
 SCF Done:  E(RB3LYP) =  -1232.07814608     A.U. after    9 cycles
 SCF Done:  E(RB3LYP) =  -1232.07814638     A.U. after    7 cycles
 SCF Done:  E(RB3LYP) =  -1232.07814650     A.U. after    7 cycles
 SCF Done:  E(RB3LYP) =  -1232.07814652     A.U. after    6 cycles
 Optimization completed.
    -- Stationary point found.

                         Standard orientation:
 ---------------------------------------------------------------------
 Center     Atomic      Atomic             Coordinates (Angstroms)
 Number     Number       Type             X           Y           Z
 ---------------------------------------------------------------------
      1          6           0       -5.993937   -3.318896    0.279140
      2          8           0       -5.825188   -1.914160    0.360450
      3          6           0       -4.565115   -1.414850    0.224494
      4          6           0       -3.416806   -2.173185    0.003638
      5          6           0       -2.167574   -1.562337   -0.128519
      6          6           0       -2.038862   -0.171627   -0.037658
      7          6           0       -0.742288    0.470323   -0.178413
      8          8           0        0.357833   -0.312443    0.037347
      9          6           0        1.501913    0.422661   -0.115127
     10          6           0        2.792306   -0.269979    0.055877
     11          6           0        3.674824    0.124162    1.089573
     12          6           0        3.317676    1.212028    2.078487
     13          6           0        4.912444   -0.535128    1.218979
     14          6           0        5.898457   -0.144180    2.295897
     15          6           0        5.219335   -1.579056    0.346455
     16          6           0        4.352624   -1.992764   -0.667792
     17          6           0        4.754272   -3.137647   -1.570718
     18          6           0        3.128233   -1.322259   -0.831440
     19          6           0        2.197824   -1.722968   -1.955609
     20          6           0        1.142331    1.716198   -0.452213
     21          6           0        1.902353    2.884123   -0.758458
     22          6           0        1.235197    4.030242   -1.098443
     23          6           0       -0.197246    4.066826   -1.166608
     24          6           0       -0.959576    2.963558   -0.882163
     25          6           0       -0.306889    1.753449   -0.500281
     26          6           0       -3.201076    0.596142    0.206112
     27          6           0       -4.447941   -0.004498    0.329014
     28          8           0       -5.613854    0.661107    0.567050
     29          6           0       -5.563334    2.071551    0.687428
     30          1           0       -5.432889   -3.840276    1.066483
     31          1           0       -7.061641   -3.499129    0.417151
     32          1           0       -5.683932   -3.708036   -0.700185
     33          1           0       -3.485457   -3.252203   -0.074992
     34          1           0       -1.289873   -2.172462   -0.310301
     35          1           0        3.508720    0.883495    3.106955
     36          1           0        2.268732    1.501796    2.007704
     37          1           0        3.920808    2.117116    1.922516
     38          1           0        6.821894   -0.725030    2.209242
     39          1           0        5.494644   -0.313593    3.302947
     40          1           0        6.165732    0.918727    2.240279
     41          1           0        6.172104   -2.093009    0.461283
     42          1           0        5.702040   -3.576406   -1.243657
     43          1           0        4.002167   -3.936250   -1.578563
     44          1           0        4.883429   -2.814962   -2.612372
     45          1           0        1.520973   -0.911155   -2.230522
     46          1           0        1.575400   -2.584937   -1.679049
     47          1           0        2.758466   -2.008277   -2.851455
     48          1           0        2.987645    2.850323   -0.729328
     49          1           0        1.793480    4.931404   -1.337570
     50          1           0       -0.682323    4.992581   -1.464303
     51          1           0       -2.040014    3.006295   -0.973355
     52          1           0       -3.108770    1.665973    0.337352
     53          1           0       -5.185187    2.543080   -0.230111
     54          1           0       -4.939096    2.384738    1.535309
     55          1           0       -6.592261    2.392818    0.859845
 ---------------------------------------------------------------------

 The electronic state is 1-A.
 Alpha  occ. eigenvalues --  -19.21233 -19.17449 -19.17355 -10.24321 -10.24217
 Alpha  occ. eigenvalues --  -10.23832 -10.23813 -10.23627 -10.23268 -10.19600
 Alpha  occ. eigenvalues --  -10.19273 -10.19043 -10.19025 -10.18963 -10.18855
 Alpha  occ. eigenvalues --  -10.18744 -10.18621 -10.18618 -10.18606 -10.18574
 Alpha  occ. eigenvalues --  -10.18551 -10.18517 -10.18512 -10.18085 -10.17946
 Alpha  occ. eigenvalues --  -10.17938 -10.17706 -10.17382 -10.17376  -1.10451
 Alpha  occ. eigenvalues --   -1.07047  -1.05101  -0.85987  -0.85125  -0.84728
 Alpha  occ. eigenvalues --   -0.79379  -0.79116  -0.77147  -0.76073  -0.75041
 Alpha  occ. eigenvalues --   -0.74194  -0.72176  -0.71942  -0.70592  -0.70262
 Alpha  occ. eigenvalues --   -0.68366  -0.66002  -0.63427  -0.62809  -0.61150
 Alpha  occ. eigenvalues --   -0.60796  -0.59173  -0.57925  -0.54758  -0.54329
 Alpha  occ. eigenvalues --   -0.53541  -0.51308  -0.50137  -0.49123  -0.48506
 Alpha  occ. eigenvalues --   -0.48206  -0.47119  -0.46422  -0.45939  -0.45904
 Alpha  occ. eigenvalues --   -0.44997  -0.44582  -0.44361  -0.43238  -0.43112
 Alpha  occ. eigenvalues --   -0.42632  -0.42015  -0.41838  -0.40734  -0.40563
 Alpha  occ. eigenvalues --   -0.39483  -0.39400  -0.39128  -0.38602  -0.38420
 Alpha  occ. eigenvalues --   -0.38332  -0.38003  -0.37716  -0.37255  -0.36381
 Alpha  occ. eigenvalues --   -0.36019  -0.35746  -0.35071  -0.33873  -0.32882
 Alpha  occ. eigenvalues --   -0.32658  -0.32506  -0.32129  -0.32052  -0.31921
 Alpha  occ. eigenvalues --   -0.31789  -0.27175  -0.25433  -0.23859  -0.23600
 Alpha  occ. eigenvalues --   -0.21981  -0.21213  -0.16762
 Alpha virt. eigenvalues --   -0.04658   0.00147   0.00466   0.00791   0.01397
 Alpha virt. eigenvalues --    0.04698   0.07690   0.08222   0.09540   0.09727
 Alpha virt. eigenvalues --    0.10225   0.10753   0.11406   0.11727   0.13008

 Mulliken charges:
               1
     1  C   -0.214463
     2  O   -0.497437
     3  C    0.339282
     4  C   -0.205325
     5  C   -0.188407
     6  C    0.109521
     7  C    0.169845
     8  O   -0.478872
     9  C    0.119365
    10  C   -0.013902
    11  C    0.107171
    12  C   -0.536484
    13  C    0.129383
    14  C   -0.534448
    15  C   -0.239314
    16  C    0.129797
    17  C   -0.537244
    18  C    0.109071
    19  C   -0.532763
    20  C    0.078974
    21  C   -0.180523
    22  C   -0.141019
    23  C   -0.144934
    24  C   -0.178192
    25  C    0.073120
    26  C   -0.269387
    27  C    0.337741
    28  O   -0.501585
    29  C   -0.214805
    30  H    0.151389
    31  H    0.170462
    32  H    0.150843
    33  H    0.132915
    34  H    0.141764
    35  H    0.154729
    36  H    0.172029
    37  H    0.156163
    38  H    0.153279
    39  H    0.160340
    40  H    0.157469
    41  H    0.112022
    42  H    0.153273
    43  H    0.159434
    44  H    0.160867
    45  H    0.170019
    46  H    0.163109
    47  H    0.150970
    48  H    0.137029
    49  H    0.126576
    50  H    0.125509
    51  H    0.132263
    52  H    0.140782
    53  H    0.148929
    54  H    0.153143
    55  H    0.170526
 Sum of Mulliken charges =  -0.00000

 Dipole moment (field-independent basis, Debye):
    X=              0.2403    Y=             -0.2733    Z=             -0.0364  Tot=              0.3657
 Quadrupole moment (field-independent basis, Debye-Ang):
   XX=           -155.7220   YY=           -148.4435   ZZ=           -169.9383
   XY=              0.2538   XZ=              1.2772   YZ=              2.5474

 1\1\GINC-NODE15\FOpt\RB3LYP\6-31G(d)\C26H26O3\WYKGROUP\04-Nov-2022\0\\
 #p b3lyp/6-31g(d) opt SCF=XQC\\Gaussian input prepared by ASE\\0,1\C,6
 .4931825032,-1.7035748912,2.2199690893\O,6.2304149107,-0.8903695751,1.
 0894733506\C,4.9324866559,-0.5814913639,0.814598742\C,3.82996943,-0.99
 48685667,1.5602778689\C,2.5351660707,-0.6172216252,1.1968936286\C,2.31
 38063825,0.1833167221,0.0703795846\C,0.9691663545,0.5830740956,-0.3106
 106552\O,-0.0587447709,-0.1768905126,0.1745628308\C,-1.2587777017,0.30
 45060879,-0.2734596246\C,-2.485099734,-0.3808677751,0.1743151097\C,-3.

 Normal termination of Gaussian 16 at Fri Nov  4 23:24:15 2022.
