 Gaussian 16, Revision B.01,
 Gaussian 16:  ES64L-G16RevB.01 20-Dec-2017

 -------------------------------------------------------------------
 #p b3lyp/6-31g(d) 6D 10F nosymm GFInput td=(50-50,nstate=2) SCF=XQC
 -------------------------------------------------------------------

 ------------------------------
 Gaussian input prepared by ASE
 ------------------------------
 Symbolic Z-matrix:
 Charge =  0 Multiplicity = 1

                          Input orientation:
 ---------------------------------------------------------------------
 Center     Atomic      Atomic             Coordinates (Angstroms)
 Number     Number       Type             X           Y           Z
 ---------------------------------------------------------------------
      1          6           0        6.493183   -1.703575    2.219969
      2          8           0        6.230415   -0.890370    1.089473
      3          6           0        4.932487   -0.581491    0.814599
      4          6           0        3.829969   -0.994869    1.560278
      5          6           0        2.535166   -0.617222    1.196894
      6          6           0        2.313806    0.183317    0.070380
      7          6           0        0.969166    0.583074   -0.310611
      8          8           0       -0.058745   -0.176891    0.174563
      9          6           0       -1.258778    0.304506   -0.273460
     10          6           0       -2.485100   -0.380868    0.174315
     11          6           0       -3.332920   -1.003537   -0.772362
     12          6           0       -2.997817   -1.041614   -2.247223
     13          6           0       -4.511418   -1.631115   -0.324700
     14          6           0       -5.459615   -2.298220   -1.294600
     15          6           0       -4.792945   -1.650110    1.041187
     16          6           0       -3.958374   -1.056195    1.990816
     17          6           0       -4.328859   -1.124281    3.455555
     18          6           0       -2.795795   -0.396379    1.556596
     19          6           0       -1.904976    0.295883    2.565157
     20          6           0       -1.011385    1.415617   -1.061111
     21          6           0       -1.868325    2.323746   -1.751344
     22          6           0       -1.304368    3.370986   -2.429222
     23          6           0        0.115679    3.574032   -2.439970
     24          6           0        0.969102    2.723848   -1.785664
     25          6           0        0.426469    1.605140   -1.085495
     26          6           0        3.430809    0.586311   -0.697431
     27          6           0        4.722006    0.222036   -0.335962
     28          8           0        5.849592    0.564987   -1.021512
     29          6           0        5.706389    1.362323   -2.183468
     30          1           0        6.016211   -2.688889    2.129546
     31          1           0        7.577087   -1.828840    2.251328
     32          1           0        6.156156   -1.225635    3.149807
     33          1           0        3.970169   -1.612517    2.440067
     34          1           0        1.693883   -0.942556    1.798606
     35          1           0       -3.106208   -2.056941   -2.646648
     36          1           0       -1.977739   -0.710157   -2.444291
     37          1           0       -3.671360   -0.401608   -2.833747
     38          1           0       -6.343092   -2.682134   -0.775265
     39          1           0       -4.988083   -3.143261   -1.813713
     40          1           0       -5.804131   -1.605341   -2.072758
     41          1           0       -5.698878   -2.148987    1.381051
     42          1           0       -5.223033   -1.738062    3.602077
     43          1           0       -3.523828   -1.557677    4.061842
     44          1           0       -4.539683   -0.131031    3.873715
     45          1           0       -1.304010    1.082032    2.103037
     46          1           0       -1.208395   -0.407697    3.041224
     47          1           0       -2.494188    0.753226    3.366360
     48          1           0       -2.945079    2.183348   -1.724159
     49          1           0       -1.937710    4.076371   -2.960508
     50          1           0        0.516305    4.432858   -2.971815
     51          1           0        2.036852    2.917155   -1.780064
     52          1           0        3.270701    1.155618   -1.603267
     53          1           0        5.244151    2.332449   -1.954549
     54          1           0        5.110914    0.854046   -2.954004
     55          1           0        6.718168    1.525158   -2.559523
 ---------------------------------------------------------------------

 SCF Done:  E(RB3LYP) =  -1232.07814698     A.U. after   16 cycles

 Excitation energies and oscillator strengths:

 Excited state symmetry could not be determined.
 Excited State   1:      Triplet-?Sym    1.6483 eV  752.21 nm  f=0.0000  <S**2>=2.000
     102 ->104        -0.12454
     103 ->104         0.68687
     103 <-104         0.12660
 This state for optimization and/or second-order correction.
 Total Energy, E(TD-HF/TD-DFT) =  -1232.01757405
 Copying the excited state density for this state as the 1-particle RhoCI density.

 Excited state symmetry could not be determined.
 Excited State   2:      Singlet-?Sym    2.9849 eV  415.37 nm  f=0.4069  <S**2>=0.000
     103 ->104         0.70144

 Excited state symmetry could not be determined.
 Excited State   3:      Triplet-?Sym    3.0583 eV  405.40 nm  f=0.0000  <S**2>=2.000
      97 ->104         0.12053
      99 ->104        -0.18406
     102 ->104         0.37258
     102 ->108         0.10073
     103 ->105        -0.21743
     103 ->106         0.40934
     103 ->107        -0.14657
     103 ->108         0.15555

 Excited state symmetry could not be determined.
 Excited State   4:      Singlet-?Sym    3.9621 eV  312.93 nm  f=0.1187  <S**2>=0.000
     102 ->104         0.21403
     103 ->105         0.65612
     103 ->106        -0.10195

 Alpha  occ. eigenvalues --  -19.21233 -19.17449 -19.17355 -10.24321 -10.24217
 Alpha  occ. eigenvalues --  -10.23832 -10.23813 -10.23628 -10.23268 -10.19600
 Alpha  occ. eigenvalues --  -10.19273 -10.19043 -10.19025 -10.18963 -10.18855
 Alpha  occ. eigenvalues --  -10.18744 -10.18621 -10.18618 -10.18606 -10.18574
 Alpha  occ. eigenvalues --  -10.18551 -10.18517 -10.18512 -10.18086 -10.17946
 Alpha  occ. eigenvalues --  -10.17938 -10.17706 -10.17382 -10.17376  -1.10451
 Alpha  occ. eigenvalues --   -1.07047  -1.05101  -0.85987  -0.85125  -0.84728
 Alpha  occ. eigenvalues --   -0.79379  -0.79116  -0.77147  -0.76073  -0.75041
 Alpha  occ. eigenvalues --   -0.74194  -0.72176  -0.71942  -0.70592  -0.70262
 Alpha  occ. eigenvalues --   -0.68366  -0.66002  -0.63427  -0.62809  -0.61150
 Alpha  occ. eigenvalues --   -0.60796  -0.59173  -0.57925  -0.54758  -0.54329
 Alpha  occ. eigenvalues --   -0.53541  -0.51308  -0.50137  -0.49123  -0.48506
 Alpha  occ. eigenvalues --   -0.48206  -0.47119  -0.46422  -0.45939  -0.45904
 Alpha  occ. eigenvalues --   -0.44997  -0.44582  -0.44361  -0.43238  -0.43112
 Alpha  occ. eigenvalues --   -0.42632  -0.42016  -0.41838  -0.40734  -0.40563
 Alpha  occ. eigenvalues --   -0.39483  -0.39400  -0.39128  -0.38602  -0.38420
 Alpha  occ. eigenvalues --   -0.38332  -0.38004  -0.37716  -0.37255  -0.36381
 Alpha  occ. eigenvalues --   -0.36019  -0.35746  -0.35071  -0.33873  -0.32882
 Alpha  occ. eigenvalues --   -0.32658  -0.32506  -0.32129  -0.32052  -0.31921
 Alpha  occ. eigenvalues --   -0.31789  -0.27175  -0.25433  -0.23859  -0.23600
 Alpha  occ. eigenvalues --   -0.21981  -0.21213  -0.16762
 Alpha virt. eigenvalues --   -0.04658   0.00147   0.00466   0.00791   0.01397
 Alpha virt. eigenvalues --    0.04698   0.07690   0.08222   0.09540   0.09727
 Alpha virt. eigenvalues --    0.10225   0.10753   0.11406   0.11727   0.13008

 Mulliken charges:
               1
     1  C   -0.214468
     2  O   -0.497438
     3  C    0.339279
     4  C   -0.205326
     5  C   -0.188398
     6  C    0.109505
     7  C    0.169828
     8  O   -0.478871
     9  C    0.119364
    10  C   -0.013909
    11  C    0.107178
    12  C   -0.536485
    13  C    0.129395
    14  C   -0.534449
    15  C   -0.239309
    16  C    0.129766
    17  C   -0.537237
    18  C    0.109087
    19  C   -0.532766
    20  C    0.078970
    21  C   -0.180522
    22  C   -0.141015
    23  C   -0.144936
    24  C   -0.178194
    25  C    0.073129
    26  C   -0.269371
    27  C    0.337748
    28  O   -0.501585
    29  C   -0.214805
    30  H    0.151390
    31  H    0.170463
    32  H    0.150844
    33  H    0.132915
    34  H    0.141762
    35  H    0.154727
    36  H    0.172028
    37  H    0.156163
    38  H    0.153279
    39  H    0.160340
    40  H    0.157468
    41  H    0.112022
    42  H    0.153273
    43  H    0.159434
    44  H    0.160867
    45  H    0.170024
    46  H    0.163108
    47  H    0.150969
    48  H    0.137028
    49  H    0.126575
    50  H    0.125509
    51  H    0.132264
    52  H    0.140785
    53  H    0.148928
    54  H    0.153144
    55  H    0.170525
 Sum of Mulliken charges =  -0.00000

 Dipole moment (field-independent basis, Debye):
    X=             -0.2221    Y=             -0.1667    Z=              0.2380  Tot=              0.3657
 Quadrupole moment (field-independent basis, Debye-Ang):
   XX=           -155.9826   YY=           -163.5469   ZZ=           -154.7457
   XY=              1.2749   XZ=              1.9992   YZ=             -9.9386

 Normal termination of Gaussian 16 at Sat Nov  5 09:56:16 2022.
