 Gaussian 16, Revision B.01,
 Gaussian 16:  ES64L-G16RevB.01 20-Dec-2017

 -------------------------------------------------------------------
 #p b3lyp/6-31g(d) 6D 10F nosymm GFInput td=(50-50,nstate=2) SCF=XQC
 -------------------------------------------------------------------

 ------------------------------
 Gaussian input prepared by ASE
 ------------------------------
 Symbolic Z-matrix:
 Charge =  0 Multiplicity = 1

                          Input orientation:
 ---------------------------------------------------------------------
 Center     Atomic      Atomic             Coordinates (Angstroms)
 Number     Number       Type             X           Y           Z
 ---------------------------------------------------------------------
      1          6           0        0.106096    1.624131   -3.666741
      2          6           0        0.836489    2.558438   -2.697081
      3          6           0        1.161115    3.890348   -3.377060
      4          6           0        0.097152    2.820214   -1.372819
      5          6           0        0.030528    1.626056   -0.376306
      6          6           0       -1.289266    0.804822   -0.529284
      7          8           0       -1.694100    0.261339   -1.542344
      8          7           0       -1.941972    0.796144    0.692863
      9          6           0       -3.127768   -0.029167    1.022796
     10          6           0       -2.937450   -1.481164    0.562106
     11          6           0       -3.783951   -2.110942   -0.352984
     12          6           0       -3.572807   -3.445615   -0.707082
     13          6           0       -2.512185   -4.164043   -0.155652
     14          6           0       -1.663571   -3.543947    0.764428
     15          6           0       -1.885223   -2.216910    1.126124
     16          6           0       -4.442923    0.634875    0.631331
     17          6           0       -5.463738    0.728097    1.585247
     18          6           0       -6.686958    1.322980    1.272215
     19          6           0       -6.903475    1.838257   -0.005764
     20          6           0       -5.892322    1.748840   -0.965005
     21          6           0       -4.671086    1.150246   -0.653168
     22          6           0       -1.274613    1.618866    1.625217
     23          6           0       -1.647963    1.942676    2.926846
     24          6           0       -0.797797    2.775315    3.665491
     25          6           0        0.384970    3.270604    3.115884
     26          6           0        0.738112    2.944102    1.799488
     27          6           0       -0.097660    2.124542    1.056181
     28          6           0        1.231707    0.697858   -0.554378
     29          6           0        1.406492   -0.409154    0.265300
     30          6           0        2.501461   -1.273584    0.146223
     31          6           0        3.490501   -0.978727   -0.818931
     32          6           0        3.338113    0.118425   -1.661129
     33          6           0        2.209460    0.937697   -1.546988
     34          8           0        2.146888    1.984685   -2.406085
     35          8           0        4.600904   -1.749243   -0.984194
     36          6           0        4.963394   -2.606302    0.115610
     37          6           0        5.753345   -1.912180    1.266779
     38          6           0        6.786346   -3.069744    1.191748
     39          6           0        6.221268   -3.439213   -0.207509
     40          6           0        3.751964   -3.412201    0.576594
     41          6           0        2.581758   -2.505464    0.944344
     42          8           0        1.759958   -2.820612    1.797291
     43          1           0       -0.113175    0.655981   -3.214842
     44          1           0        0.720269    1.480006   -4.561808
     45          1           0       -0.850389    2.064738   -3.968190
     46          1           0        0.238475    4.418592   -3.639706
     47          1           0        1.755656    4.530490   -2.717339
     48          1           0        1.732630    3.716216   -4.294098
     49          1           0       -0.913851    3.182677   -1.587845
     50          1           0        0.622306    3.637585   -0.867393
     51          1           0       -3.116311   -0.070942    2.116476
     52          1           0       -4.607348   -1.561241   -0.795862
     53          1           0       -4.239097   -3.920270   -1.422817
     54          1           0       -2.348013   -5.200439   -0.439109
     55          1           0       -0.826788   -4.080542    1.202257
     56          1           0       -1.224397   -1.753486    1.854701
     57          1           0       -5.302133    0.329374    2.584902
     58          1           0       -7.465246    1.387747    2.028012
     59          1           0       -7.852611    2.306184   -0.253242
     60          1           0       -6.054922    2.144392   -1.964324
     61          1           0       -3.894008    1.069179   -1.405903
     62          1           0       -2.573539    1.581547    3.362536
     63          1           0       -1.071851    3.038296    4.683439
     64          1           0        1.032663    3.911209    3.707036
     65          1           0        1.661996    3.322908    1.369149
     66          1           0        0.675465   -0.646462    1.030786
     67          1           0        4.085343    0.339741   -2.414660
     68          1           0        6.174304   -0.964298    0.919482
     69          1           0        5.229629   -1.748921    2.213791
     70          1           0        7.842688   -2.793224    1.240294
     71          1           0        6.596914   -3.847351    1.937857
     72          1           0        6.070414   -4.496812   -0.446945
     73          1           0        6.784917   -2.964433   -1.016009
     74          1           0        3.994926   -4.049714    1.432030
     75          1           0        3.423893   -4.070071   -0.242257
 ---------------------------------------------------------------------

 SCF Done:  E(RB3LYP) =  -1785.47246490     A.U. after   16 cycles

 Excitation energies and oscillator strengths:

 Excited state symmetry could not be determined.
 Excited State   1:      Triplet-?Sym    3.0972 eV  400.31 nm  f=0.0000  <S**2>=2.000
     145 ->148        -0.31704
     146 ->148         0.47098
     147 ->148         0.34212
 This state for optimization and/or second-order correction.
 Total Energy, E(TD-HF/TD-DFT) =  -1785.35864359
 Copying the excited state density for this state as the 1-particle RhoCI density.

 Excited state symmetry could not be determined.
 Excited State   2:      Triplet-?Sym    3.3258 eV  372.79 nm  f=0.0000  <S**2>=2.000
     142 ->148         0.53070
     143 ->148         0.42372

 Excited state symmetry could not be determined.
 Excited State   3:      Singlet-?Sym    3.8004 eV  326.24 nm  f=0.0009  <S**2>=0.000
     142 ->148         0.52796
     143 ->148         0.43569
     146 ->148         0.10913

 Excited state symmetry could not be determined.
 Excited State   4:      Singlet-?Sym    3.9408 eV  314.62 nm  f=0.0250  <S**2>=0.000
     145 ->148         0.15194
     147 ->148         0.67805

 Alpha  occ. eigenvalues --  -19.17997 -19.17493 -19.12679 -19.12570 -14.38125
 Alpha  occ. eigenvalues --  -10.29267 -10.26699 -10.25786 -10.25677 -10.25569
 Alpha  occ. eigenvalues --  -10.25563 -10.24502 -10.23498 -10.22430 -10.19960
 Alpha  occ. eigenvalues --  -10.19932 -10.19917 -10.19773 -10.19718 -10.19709
 Alpha  occ. eigenvalues --  -10.19640 -10.19633 -10.19274 -10.19230 -10.19210
 Alpha  occ. eigenvalues --  -10.19142 -10.19139 -10.19065 -10.19031 -10.18984
 Alpha  occ. eigenvalues --  -10.18912 -10.18817 -10.18682 -10.18533 -10.18349
 Alpha  occ. eigenvalues --  -10.18121 -10.17930 -10.17870 -10.17833 -10.17769
 Alpha  occ. eigenvalues --  -10.17695 -10.16704  -1.07018  -1.06503  -1.04655
 Alpha  occ. eigenvalues --   -1.02291  -0.96705  -0.87189  -0.86358  -0.85234
 Alpha  occ. eigenvalues --   -0.84838  -0.84145  -0.82931  -0.80131  -0.78394
 Alpha  occ. eigenvalues --   -0.76900  -0.75112  -0.74472  -0.74220  -0.73869
 Alpha  occ. eigenvalues --   -0.73401  -0.73124  -0.71802  -0.69766  -0.69089
 Alpha  occ. eigenvalues --   -0.67268  -0.66480  -0.64814  -0.63490  -0.61729
 Alpha  occ. eigenvalues --   -0.61239  -0.60690  -0.60027  -0.59584  -0.58810
 Alpha  occ. eigenvalues --   -0.58249  -0.57141  -0.56522  -0.55261  -0.53083
 Alpha  occ. eigenvalues --   -0.52329  -0.51688  -0.51136  -0.50745  -0.49802
 Alpha  occ. eigenvalues --   -0.49550  -0.48893  -0.48038  -0.46946  -0.46520
 Alpha  occ. eigenvalues --   -0.45986  -0.45838  -0.45746  -0.45356  -0.45128
 Alpha  occ. eigenvalues --   -0.44595  -0.44173  -0.43826  -0.43584  -0.43219
 Alpha  occ. eigenvalues --   -0.43001  -0.42563  -0.42153  -0.41870  -0.41666
 Alpha  occ. eigenvalues --   -0.41546  -0.41312  -0.40644  -0.40344  -0.39701
 Alpha  occ. eigenvalues --   -0.39242  -0.39006  -0.38857  -0.38663  -0.38229
 Alpha  occ. eigenvalues --   -0.38070  -0.37229  -0.36859  -0.36416  -0.36288
 Alpha  occ. eigenvalues --   -0.36011  -0.35578  -0.35107  -0.35062  -0.34793
 Alpha  occ. eigenvalues --   -0.34674  -0.34238  -0.33919  -0.33543  -0.33469
 Alpha  occ. eigenvalues --   -0.33232  -0.32810  -0.31479  -0.31246  -0.30370
 Alpha  occ. eigenvalues --   -0.30078  -0.29348  -0.26288  -0.25447  -0.25018
 Alpha  occ. eigenvalues --   -0.24744  -0.23968  -0.23738  -0.23298  -0.23028
 Alpha  occ. eigenvalues --   -0.21805  -0.21165
 Alpha virt. eigenvalues --   -0.04569  -0.01849  -0.00832  -0.00579  -0.00245
 Alpha virt. eigenvalues --   -0.00164   0.00795   0.01314   0.03116   0.05489
 Alpha virt. eigenvalues --    0.08164   0.08459   0.08728   0.08761   0.09626

 Mulliken charges:
               1
     1  C   -0.455948
     2  C    0.291094
     3  C   -0.457004
     4  C   -0.302055
     5  C   -0.185967
     6  C    0.634911
     7  O   -0.519877
     8  N   -0.562789
     9  C   -0.170763
    10  C    0.169742
    11  C   -0.160435
    12  C   -0.134789
    13  C   -0.126328
    14  C   -0.136411
    15  C   -0.185903
    16  C    0.159364
    17  C   -0.182780
    18  C   -0.128793
    19  C   -0.125892
    20  C   -0.134915
    21  C   -0.185926
    22  C    0.334206
    23  C   -0.176578
    24  C   -0.139090
    25  C   -0.135918
    26  C   -0.199273
    27  C    0.105645
    28  C    0.167812
    29  C   -0.257806
    30  C    0.065837
    31  C    0.341283
    32  C   -0.276599
    33  C    0.344027
    34  O   -0.558261
    35  O   -0.562346
    36  C    0.318233
    37  C   -0.303890
    38  C   -0.288497
    39  C   -0.307403
    40  C   -0.389880
    41  C    0.396051
    42  O   -0.493359
    43  H    0.197164
    44  H    0.144707
    45  H    0.142698
    46  H    0.148327
    47  H    0.152026
    48  H    0.159408
    49  H    0.158792
    50  H    0.154073
    51  H    0.160613
    52  H    0.139929
    53  H    0.126810
    54  H    0.125707
    55  H    0.151444
    56  H    0.145774
    57  H    0.127507
    58  H    0.131037
    59  H    0.130574
    60  H    0.132203
    61  H    0.174467
    62  H    0.141202
    63  H    0.133472
    64  H    0.130093
    65  H    0.136881
    66  H    0.168333
    67  H    0.146801
    68  H    0.155316
    69  H    0.154524
    70  H    0.147627
    71  H    0.148911
    72  H    0.145367
    73  H    0.159897
    74  H    0.168181
    75  H    0.177401
 Sum of Mulliken charges =  -0.00000

 Dipole moment (field-independent basis, Debye):
    X=              0.7468    Y=              2.0407    Z=              0.7001  Tot=              2.2830
 Quadrupole moment (field-independent basis, Debye-Ang):
   XX=           -217.7747   YY=           -230.2495   ZZ=           -236.5792
   XY=            -10.4674   XZ=              0.0436   YZ=              1.8995

 Normal termination of Gaussian 16 at Sat Nov  5 10:37:21 2022.
