 Gaussian 16, Revision B.01,
 Gaussian 16:  ES64L-G16RevB.01 20-Dec-2017

 -----------------------------
 #p b3lyp/6-31g(d) opt SCF=XQC
 -----------------------------

 ------------------------------
 Gaussian input prepared by ASE
 ------------------------------
 Symbolic Z-matrix:
 Charge =  0 Multiplicity = 1

 SCF Done:  E(RB3LYP) =  -1785.45908660     A.U. after   15 cycles
 SCF Done:  E(RB3LYP) =  -1785.46952736     A.U. after   14 cycles
 SCF Done:  E(RB3LYP) =  -1785.47110490     A.U. after   12 cycles
 SCF Done:  E(RB3LYP) =  -1785.47156955     A.U. after   12 cycles
 SCF Done:  E(RB3LYP) =  -1785.47216315     A.U. after   12 cycles
 SCF Done:  E(RB3LYP) =  -1785.47224532     A.U. after   12 cycles
 SCF Done:  E(RB3LYP) =  -1785.47240184     A.U. after   12 cycles
 SCF Done:  E(RB3LYP) =  -1785.47244232     A.U. after   10 cycles
 SCF Done:  E(RB3LYP) =  -1785.47245513     A.U. after   10 cycles
 SCF Done:  E(RB3LYP) =  -1785.47245910     A.U. after    9 cycles
 SCF Done:  E(RB3LYP) =  -1785.47246130     A.U. after    8 cycles
 SCF Done:  E(RB3LYP) =  -1785.47246199     A.U. after    9 cycles
 SCF Done:  E(RB3LYP) =  -1785.47246221     A.U. after    7 cycles
 SCF Done:  E(RB3LYP) =  -1785.47246239     A.U. after    7 cycles
 SCF Done:  E(RB3LYP) =  -1785.47246247     A.U. after    7 cycles
 SCF Done:  E(RB3LYP) =  -1785.47246250     A.U. after    6 cycles
 SCF Done:  E(RB3LYP) =  -1785.47246251     A.U. after    6 cycles
 Optimization completed.
    -- Stationary point found.

                         Standard orientation:
 ---------------------------------------------------------------------
 Center     Atomic      Atomic             Coordinates (Angstroms)
 Number     Number       Type             X           Y           Z
 ---------------------------------------------------------------------
      1          6           0       -0.188079    2.802022   -2.937543
      2          6           0        0.195489    3.507873   -1.633206
      3          6           0        0.135574    5.027025   -1.807351
      4          6           0       -0.637189    3.094419   -0.406618
      5          6           0       -0.383773    1.660180    0.143135
      6          6           0       -1.393854    0.620154   -0.438043
      7          8           0       -1.581071    0.368209   -1.615764
      8          7           0       -2.059817    0.020930    0.618919
      9          6           0       -2.958873   -1.151894    0.508073
     10          6           0       -2.329304   -2.252444   -0.357482
     11          6           0       -2.916047   -2.733446   -1.530062
     12          6           0       -2.305394   -3.759092   -2.255645
     13          6           0       -1.100784   -4.311874   -1.821501
     14          6           0       -0.509339   -3.840737   -0.647007
     15          6           0       -1.128038   -2.827370    0.081881
     16          6           0       -4.396219   -0.770652    0.172631
     17          6           0       -5.433652   -1.284671    0.960175
     18          6           0       -6.765685   -0.968008    0.688962
     19          6           0       -7.077376   -0.125055   -0.377761
     20          6           0       -6.050093    0.391633   -1.170409
     21          6           0       -4.718808    0.071505   -0.901757
     22          6           0       -1.701902    0.622135    1.844468
     23          6           0       -2.202893    0.369959    3.118792
     24          6           0       -1.666234    1.095010    4.190223
     25          6           0       -0.663954    2.044594    3.990118
     26          6           0       -0.180897    2.293994    2.698350
     27          6           0       -0.707526    1.586162    1.628613
     28          6           0        1.044465    1.204909   -0.155124
     29          6           0        1.509006   -0.026008    0.288659
     30          6           0        2.814769   -0.472287    0.051609
     31          6           0        3.707178    0.386848   -0.628214
     32          6           0        3.267775    1.622543   -1.093237
     33          6           0        1.943450    2.020822   -0.879632
     34          8           0        1.605268    3.241037   -1.364247
     35          8           0        5.001536    0.045097   -0.876896
     36          6           0        5.560575   -1.006111   -0.065750
     37          6           0        6.065441   -0.562807    1.341235
     38          6           0        7.397383   -1.304844    1.044608
     39          6           0        7.020069   -1.310857   -0.462488
     40          6           0        4.626398   -2.213022   -0.050846
     41          6           0        3.226993   -1.833590    0.422956
     42          8           0        2.504388   -2.628083    1.013562
     43          1           0       -0.127011    1.716690   -2.848497
     44          1           0        0.474215    3.141582   -3.740780
     45          1           0       -1.220246    3.046853   -3.210600
     46          1           0       -0.891744    5.346620   -2.011720
     47          1           0        0.488356    5.537334   -0.905342
     48          1           0        0.766884    5.335661   -2.646460
     49          1           0       -1.701429    3.224770   -0.630548
     50          1           0       -0.397427    3.798623    0.397091
     51          1           0       -2.976435   -1.559891    1.523575
     52          1           0       -3.848289   -2.306501   -1.883527
     53          1           0       -2.773639   -4.120274   -3.167681
     54          1           0       -0.626078   -5.105348   -2.392876
     55          1           0        0.431978   -4.250575   -0.292339
     56          1           0       -0.662154   -2.482152    1.001694
     57          1           0       -5.198530   -1.942206    1.794904
     58          1           0       -7.555837   -1.375325    1.314188
     59          1           0       -8.112652    0.127931   -0.590509
     60          1           0       -6.285236    1.045930   -2.005958
     61          1           0       -3.925090    0.462763   -1.529419
     62          1           0       -2.995287   -0.351202    3.288994
     63          1           0       -2.043820    0.911359    5.192312
     64          1           0       -0.258026    2.592912    4.835052
     65          1           0        0.604438    3.028808    2.538527
     66          1           0        0.853200   -0.696269    0.833959
     67          1           0        3.943340    2.278633   -1.630175
     68          1           0        6.198937    0.522357    1.371250
     69          1           0        5.481849   -0.878724    2.211511
     70          1           0        8.321558   -0.790375    1.320113
     71          1           0        7.419401   -2.310938    1.474173
     72          1           0        7.198803   -2.222518   -1.041736
     73          1           0        7.447315   -0.456544   -0.995777
     74          1           0        5.015384   -3.014822    0.584002
     75          1           0        4.539105   -2.613885   -1.071938
 ---------------------------------------------------------------------

 The electronic state is 1-A.
 Alpha  occ. eigenvalues --  -19.17997 -19.17492 -19.12679 -19.12570 -14.38125
 Alpha  occ. eigenvalues --  -10.29267 -10.26699 -10.25786 -10.25677 -10.25569
 Alpha  occ. eigenvalues --  -10.25563 -10.24502 -10.23498 -10.22430 -10.19960
 Alpha  occ. eigenvalues --  -10.19932 -10.19917 -10.19773 -10.19718 -10.19709
 Alpha  occ. eigenvalues --  -10.19640 -10.19634 -10.19274 -10.19230 -10.19210
 Alpha  occ. eigenvalues --  -10.19142 -10.19139 -10.19064 -10.19031 -10.18984
 Alpha  occ. eigenvalues --  -10.18912 -10.18817 -10.18682 -10.18533 -10.18349
 Alpha  occ. eigenvalues --  -10.18121 -10.17930 -10.17870 -10.17833 -10.17769
 Alpha  occ. eigenvalues --  -10.17695 -10.16704  -1.07018  -1.06503  -1.04655
 Alpha  occ. eigenvalues --   -1.02291  -0.96705  -0.87189  -0.86359  -0.85234
 Alpha  occ. eigenvalues --   -0.84838  -0.84145  -0.82931  -0.80131  -0.78394
 Alpha  occ. eigenvalues --   -0.76900  -0.75112  -0.74472  -0.74220  -0.73869
 Alpha  occ. eigenvalues --   -0.73401  -0.73124  -0.71802  -0.69766  -0.69089
 Alpha  occ. eigenvalues --   -0.67268  -0.66480  -0.64814  -0.63490  -0.61729
 Alpha  occ. eigenvalues --   -0.61239  -0.60690  -0.60027  -0.59584  -0.58810
 Alpha  occ. eigenvalues --   -0.58249  -0.57141  -0.56522  -0.55261  -0.53083
 Alpha  occ. eigenvalues --   -0.52329  -0.51688  -0.51136  -0.50745  -0.49802
 Alpha  occ. eigenvalues --   -0.49550  -0.48893  -0.48038  -0.46946  -0.46520
 Alpha  occ. eigenvalues --   -0.45985  -0.45838  -0.45746  -0.45356  -0.45128
 Alpha  occ. eigenvalues --   -0.44595  -0.44173  -0.43826  -0.43584  -0.43219
 Alpha  occ. eigenvalues --   -0.43001  -0.42563  -0.42153  -0.41870  -0.41666
 Alpha  occ. eigenvalues --   -0.41546  -0.41312  -0.40644  -0.40344  -0.39701
 Alpha  occ. eigenvalues --   -0.39242  -0.39006  -0.38857  -0.38663  -0.38229
 Alpha  occ. eigenvalues --   -0.38070  -0.37229  -0.36859  -0.36416  -0.36288
 Alpha  occ. eigenvalues --   -0.36011  -0.35578  -0.35107  -0.35062  -0.34793
 Alpha  occ. eigenvalues --   -0.34674  -0.34238  -0.33919  -0.33543  -0.33469
 Alpha  occ. eigenvalues --   -0.33232  -0.32810  -0.31479  -0.31246  -0.30370
 Alpha  occ. eigenvalues --   -0.30078  -0.29348  -0.26288  -0.25447  -0.25018
 Alpha  occ. eigenvalues --   -0.24744  -0.23968  -0.23738  -0.23298  -0.23028
 Alpha  occ. eigenvalues --   -0.21805  -0.21165
 Alpha virt. eigenvalues --   -0.04569  -0.01849  -0.00833  -0.00579  -0.00245
 Alpha virt. eigenvalues --   -0.00164   0.00795   0.01314   0.03116   0.05489
 Alpha virt. eigenvalues --    0.08164   0.08459   0.08728   0.08761   0.09626

 Mulliken charges:
               1
     1  C   -0.455945
     2  C    0.291091
     3  C   -0.457009
     4  C   -0.302079
     5  C   -0.185908
     6  C    0.634897
     7  O   -0.519876
     8  N   -0.562782
     9  C   -0.170747
    10  C    0.169733
    11  C   -0.160439
    12  C   -0.134792
    13  C   -0.126321
    14  C   -0.136405
    15  C   -0.185912
    16  C    0.159357
    17  C   -0.182776
    18  C   -0.128791
    19  C   -0.125895
    20  C   -0.134913
    21  C   -0.185933
    22  C    0.334233
    23  C   -0.176594
    24  C   -0.139083
    25  C   -0.135915
    26  C   -0.199289
    27  C    0.105633
    28  C    0.167752
    29  C   -0.257794
    30  C    0.065827
    31  C    0.341273
    32  C   -0.276571
    33  C    0.344047
    34  O   -0.558261
    35  O   -0.562347
    36  C    0.318261
    37  C   -0.303903
    38  C   -0.288488
    39  C   -0.307405
    40  C   -0.389900
    41  C    0.396043
    42  O   -0.493356
    43  H    0.197164
    44  H    0.144707
    45  H    0.142697
    46  H    0.148329
    47  H    0.152027
    48  H    0.159409
    49  H    0.158795
    50  H    0.154077
    51  H    0.160613
    52  H    0.139926
    53  H    0.126810
    54  H    0.125707
    55  H    0.151442
    56  H    0.145775
    57  H    0.127508
    58  H    0.131037
    59  H    0.130574
    60  H    0.132203
    61  H    0.174470
    62  H    0.141204
    63  H    0.133472
    64  H    0.130093
    65  H    0.136881
    66  H    0.168335
    67  H    0.146799
    68  H    0.155316
    69  H    0.154525
    70  H    0.147626
    71  H    0.148909
    72  H    0.145368
    73  H    0.159897
    74  H    0.168182
    75  H    0.177403
 Sum of Mulliken charges =  -0.00000

 Dipole moment (field-independent basis, Debye):
    X=              0.0811    Y=              1.7994    Z=              1.4028  Tot=              2.2830
 Quadrupole moment (field-independent basis, Debye-Ang):
   XX=           -212.9250   YY=           -236.1010   ZZ=           -235.4189
   XY=             -4.8605   XZ=             -1.3434   YZ=              1.7790

 Normal termination of Gaussian 16 at Sat Nov  5 00:09:57 2022.
