 Gaussian 16, Revision B.01,
 Gaussian 16:  ES64L-G16RevB.01 20-Dec-2017

 -------------------------------------------------------------------
 #p b3lyp/6-31g(d) 6D 10F nosymm GFInput td=(50-50,nstate=2) SCF=XQC
 -------------------------------------------------------------------

 ------------------------------
 Gaussian input prepared by ASE
 ------------------------------
 Symbolic Z-matrix:
 Charge =  0 Multiplicity = 1

                          Input orientation:
 ---------------------------------------------------------------------
 Center     Atomic      Atomic             Coordinates (Angstroms)
 Number     Number       Type             X           Y           Z
 ---------------------------------------------------------------------
      1          6           0       -6.252925   -4.993336   -2.856221
      2          6           0       -5.111382   -4.028903   -2.516081
      3          6           0       -4.128854   -4.552328   -1.448198
      4          6           0       -4.789509   -4.773113   -0.078465
      5          6           0       -2.912450   -3.630661   -1.325482
      6          8           0       -3.359057   -2.356437   -0.871828
      7          6           0       -2.442486   -1.363989   -0.689739
      8          6           0       -1.072193   -1.498830   -0.906724
      9          6           0       -0.230358   -0.401852   -0.679577
     10          6           0       -0.760928    0.815257   -0.240819
     11          6           0       -2.129688    0.961677   -0.021141
     12          6           0       -2.980613   -0.122259   -0.245925
     13          8           0       -4.337901   -0.110007   -0.095338
     14          6           0       -4.983343    1.049325    0.436520
     15          6           0       -4.888566    1.137680    1.967858
     16          6           0       -5.547384   -0.081042    2.630047
     17          6           0       -5.439859    2.485893    2.484969
     18          6           0       -6.924280    2.764527    2.207369
     19          6           0        0.343413    1.861210   -0.055329
     20          6           0        0.136321    3.134143   -0.883481
     21          6           0       -0.005764    3.255550   -2.258214
     22          6           0       -0.192794    4.523320   -2.834143
     23          6           0       -0.320287    4.671172   -4.333011
     24          6           0       -0.237874    5.646650   -1.994091
     25          6           0       -0.096305    5.532708   -0.609484
     26          6           0        0.092594    4.268544   -0.050466
     27          6           0        0.265159    3.835795    1.342169
     28          6           0        0.292352    4.554863    2.537577
     29          6           0        0.470023    3.865655    3.738907
     30          6           0        0.623357    2.470886    3.772186
     31          6           0        0.844565    1.747816    5.081074
     32          6           0        0.590007    1.758244    2.562016
     33          6           0        0.415134    2.436006    1.363881
     34          6           0        1.581921    1.053881   -0.459793
     35          6           0        2.902600    1.460891   -0.514381
     36          6           0        3.901804    0.563172   -0.926888
     37          6           0        3.553097   -0.765256   -1.254041
     38          6           0        2.209516   -1.159512   -1.209852
     39          6           0        1.222980   -0.260206   -0.816147
     40          8           0        4.446977   -1.691138   -1.761800
     41          6           0        5.623705   -2.111709   -1.039869
     42          6           0        5.320082   -3.172954    0.045953
     43          6           0        4.472444   -2.679560    1.230751
     44          6           0        4.696860   -4.428994   -0.582715
     45          6           0        6.510910   -0.933739   -0.566090
     46          6           0        8.002839   -1.340304   -0.599710
     47          6           0        8.916749   -0.457914    0.258000
     48          6           0        6.264493    0.310731   -1.425134
     49          8           0        5.162319    1.093783   -0.962700
     50          1           0       -6.915028   -5.165032   -2.000480
     51          1           0       -5.868104   -5.969024   -3.180025
     52          1           0       -6.868942   -4.594310   -3.670124
     53          1           0       -5.519502   -3.068095   -2.179971
     54          1           0       -4.544044   -3.815364   -3.433283
     55          1           0       -3.729670   -5.517578   -1.798969
     56          1           0       -4.062449   -5.151733    0.650323
     57          1           0       -5.604711   -5.501136   -0.138424
     58          1           0       -5.194985   -3.833123    0.309865
     59          1           0       -2.185377   -4.046495   -0.611332
     60          1           0       -2.410066   -3.524003   -2.298891
     61          1           0       -0.661150   -2.442646   -1.246459
     62          1           0       -2.521253    1.911748    0.323654
     63          1           0       -4.591754    1.957801   -0.041002
     64          1           0       -6.025645    0.935799    0.123137
     65          1           0       -3.821376    1.117733    2.227490
     66          1           0       -6.620847   -0.130867    2.410586
     67          1           0       -5.428774   -0.046163    3.719447
     68          1           0       -5.093668   -1.007859    2.266035
     69          1           0       -4.839008    3.299417    2.054213
     70          1           0       -5.267509    2.527637    3.568795
     71          1           0       -7.143038    2.807880    1.134034
     72          1           0       -7.217354    3.729281    2.636609
     73          1           0       -7.573296    1.999901    2.648309
     74          1           0        0.026029    2.372012   -2.892184
     75          1           0        0.660061    4.613759   -4.825055
     76          1           0       -0.941638    3.877313   -4.763037
     77          1           0       -0.766407    5.633546   -4.604671
     78          1           0       -0.387569    6.629736   -2.435025
     79          1           0       -0.136954    6.420127    0.017462
     80          1           0        0.173712    5.635657    2.541646
     81          1           0        0.489483    4.421324    4.673913
     82          1           0        0.492047    2.340624    5.931687
     83          1           0        1.910181    1.539221    5.247685
     84          1           0        0.322211    0.784653    5.100681
     85          1           0        0.700332    0.675898    2.567652
     86          1           0        3.203768    2.473543   -0.263256
     87          1           0        1.974973   -2.179774   -1.499682
     88          1           0        6.182168   -2.627382   -1.832428
     89          1           0        6.304841   -3.460313    0.445711
     90          1           0        4.432684   -3.456094    2.003800
     91          1           0        3.445333   -2.458510    0.927466
     92          1           0        4.883079   -1.776853    1.695531
     93          1           0        3.726999   -4.198351   -1.035327
     94          1           0        5.339780   -4.844999   -1.367845
     95          1           0        4.542704   -5.207540    0.173156
     96          1           0        6.252737   -0.657843    0.464454
     97          1           0        8.101777   -2.379213   -0.260946
     98          1           0        8.348983   -1.333905   -1.643973
     99          1           0        8.880613    0.594285   -0.046021
    100          1           0        9.959444   -0.785565    0.180596
    101          1           0        8.629084   -0.505462    1.315001
    102          1           0        7.111099    0.998245   -1.356353
    103          1           0        6.128584    0.042755   -2.480574
 ---------------------------------------------------------------------

 SCF Done:  E(RB3LYP) =  -2048.23671525     A.U. after   16 cycles

 Excitation energies and oscillator strengths:

 Excited state symmetry could not be determined.
 Excited State   1:      Triplet-?Sym    2.7822 eV  445.63 nm  f=0.0000  <S**2>=2.000
     175 ->180         0.10413
     178 ->180         0.62231
     178 ->182         0.22196
 This state for optimization and/or second-order correction.
 Total Energy, E(TD-HF/TD-DFT) =  -2048.13447069
 Copying the excited state density for this state as the 1-particle RhoCI density.

 Excited state symmetry could not be determined.
 Excited State   2:      Triplet-?Sym    2.9706 eV  417.37 nm  f=0.0000  <S**2>=2.000
     171 ->185        -0.12985
     172 ->181         0.14658
     173 ->183         0.13587
     175 ->179        -0.12695
     177 ->179         0.59808
     177 ->181        -0.12478
     178 ->179        -0.17583

 Excited state symmetry could not be determined.
 Excited State   3:      Singlet-?Sym    3.5721 eV  347.09 nm  f=0.0044  <S**2>=0.000
     178 ->179         0.70378

 Excited state symmetry could not be determined.
 Excited State   4:      Singlet-?Sym    3.9488 eV  313.98 nm  f=0.0068  <S**2>=0.000
     178 ->181         0.69657

 Alpha  occ. eigenvalues --  -19.16645 -19.16594 -19.16459 -19.15798 -10.24084
 Alpha  occ. eigenvalues --  -10.23831 -10.23787 -10.23743 -10.23589 -10.23522
 Alpha  occ. eigenvalues --  -10.23249 -10.23020 -10.20428 -10.19403 -10.19383
 Alpha  occ. eigenvalues --  -10.19260 -10.18967 -10.18881 -10.18752 -10.18487
 Alpha  occ. eigenvalues --  -10.18450 -10.18395 -10.18317 -10.18265 -10.18245
 Alpha  occ. eigenvalues --  -10.18231 -10.18211 -10.18157 -10.18087 -10.18054
 Alpha  occ. eigenvalues --  -10.18037 -10.17990 -10.17959 -10.17936 -10.17888
 Alpha  occ. eigenvalues --  -10.17873 -10.17846 -10.17833 -10.17776 -10.17682
 Alpha  occ. eigenvalues --  -10.17680 -10.17629 -10.17352 -10.17280 -10.17239
 Alpha  occ. eigenvalues --  -10.17104 -10.16907 -10.16662 -10.16636  -1.06199
 Alpha  occ. eigenvalues --   -1.05854  -1.04143  -1.03407  -0.89055  -0.86231
 Alpha  occ. eigenvalues --   -0.83961  -0.83868  -0.82255  -0.80722  -0.80462
 Alpha  occ. eigenvalues --   -0.79992  -0.78977  -0.77802  -0.76255  -0.74634
 Alpha  occ. eigenvalues --   -0.74083  -0.73991  -0.73571  -0.73063  -0.72501
 Alpha  occ. eigenvalues --   -0.72443  -0.70643  -0.69544  -0.69128  -0.68294
 Alpha  occ. eigenvalues --   -0.68161  -0.67556  -0.65925  -0.65325  -0.64046
 Alpha  occ. eigenvalues --   -0.62956  -0.62683  -0.61580  -0.60855  -0.59283
 Alpha  occ. eigenvalues --   -0.58719  -0.58063  -0.57756  -0.57675  -0.55937
 Alpha  occ. eigenvalues --   -0.55736  -0.55347  -0.54504  -0.54017  -0.52020
 Alpha  occ. eigenvalues --   -0.51541  -0.50711  -0.50170  -0.49230  -0.48222
 Alpha  occ. eigenvalues --   -0.47759  -0.47394  -0.47059  -0.46954  -0.46198
 Alpha  occ. eigenvalues --   -0.45949  -0.45446  -0.45372  -0.44982  -0.44670
 Alpha  occ. eigenvalues --   -0.44278  -0.43753  -0.43461  -0.43221  -0.43080
 Alpha  occ. eigenvalues --   -0.42860  -0.42711  -0.42650  -0.42267  -0.42208
 Alpha  occ. eigenvalues --   -0.41905  -0.41504  -0.41293  -0.41111  -0.40993
 Alpha  occ. eigenvalues --   -0.40342  -0.40091  -0.39374  -0.39018  -0.38911
 Alpha  occ. eigenvalues --   -0.38721  -0.38532  -0.37903  -0.37846  -0.37761
 Alpha  occ. eigenvalues --   -0.37699  -0.37557  -0.37415  -0.37132  -0.37007
 Alpha  occ. eigenvalues --   -0.36850  -0.36325  -0.36073  -0.35979  -0.35664
 Alpha  occ. eigenvalues --   -0.35470  -0.35342  -0.34832  -0.34244  -0.34159
 Alpha  occ. eigenvalues --   -0.33987  -0.33843  -0.33533  -0.33418  -0.33203
 Alpha  occ. eigenvalues --   -0.32955  -0.32858  -0.32569  -0.32166  -0.31908
 Alpha  occ. eigenvalues --   -0.31805  -0.31622  -0.31487  -0.30811  -0.30524
 Alpha  occ. eigenvalues --   -0.30366  -0.30298  -0.29843  -0.28764  -0.27484
 Alpha  occ. eigenvalues --   -0.26165  -0.24353  -0.23529  -0.23334  -0.22086
 Alpha  occ. eigenvalues --   -0.20942  -0.19869  -0.17212
 Alpha virt. eigenvalues --   -0.02083  -0.01149  -0.00476   0.00184   0.01408
 Alpha virt. eigenvalues --    0.02725   0.04788   0.06386   0.07399   0.08116
 Alpha virt. eigenvalues --    0.08645   0.09124   0.09465   0.10186   0.10517

 Mulliken charges:
               1
     1  C   -0.448900
     2  C   -0.248728
     3  C   -0.093215
     4  C   -0.453972
     5  C   -0.031758
     6  O   -0.521336
     7  C    0.344279
     8  C   -0.281583
     9  C    0.066671
    10  C    0.108751
    11  C   -0.264778
    12  C    0.334871
    13  O   -0.531515
    14  C   -0.036599
    15  C   -0.099945
    16  C   -0.453411
    17  C   -0.260750
    18  C   -0.453246
    19  C   -0.274840
    20  C    0.132505
    21  C   -0.243930
    22  C    0.175400
    23  C   -0.530381
    24  C   -0.191508
    25  C   -0.191903
    26  C    0.063970
    27  C    0.063748
    28  C   -0.191728
    29  C   -0.191490
    30  C    0.175503
    31  C   -0.530288
    32  C   -0.245619
    33  C    0.133391
    34  C    0.136484
    35  C   -0.278428
    36  C    0.350500
    37  C    0.333351
    38  C   -0.291762
    39  C    0.079336
    40  O   -0.572737
    41  C    0.143711
    42  C   -0.088566
    43  C   -0.464035
    44  C   -0.448987
    45  C   -0.136981
    46  C   -0.280740
    47  C   -0.450464
    48  C   -0.042123
    49  O   -0.541239
    50  H    0.146704
    51  H    0.137308
    52  H    0.143357
    53  H    0.159614
    54  H    0.125143
    55  H    0.120218
    56  H    0.135736
    57  H    0.144105
    58  H    0.169257
    59  H    0.132561
    60  H    0.134356
    61  H    0.133204
    62  H    0.142912
    63  H    0.140868
    64  H    0.149615
    65  H    0.143796
    66  H    0.139406
    67  H    0.138734
    68  H    0.166542
    69  H    0.134388
    70  H    0.136017
    71  H    0.145208
    72  H    0.145637
    73  H    0.149339
    74  H    0.131635
    75  H    0.165060
    76  H    0.159383
    77  H    0.152265
    78  H    0.117609
    79  H    0.125019
    80  H    0.125411
    81  H    0.117396
    82  H    0.152732
    83  H    0.164014
    84  H    0.158048
    85  H    0.129556
    86  H    0.145089
    87  H    0.133178
    88  H    0.130472
    89  H    0.124740
    90  H    0.140736
    91  H    0.166982
    92  H    0.147021
    93  H    0.159115
    94  H    0.138184
    95  H    0.140078
    96  H    0.149210
    97  H    0.144746
    98  H    0.138152
    99  H    0.151413
   100  H    0.148552
   101  H    0.149797
   102  H    0.149966
   103  H    0.155428
 Sum of Mulliken charges =  -0.00000

 Dipole moment (field-independent basis, Debye):
    X=              1.5671    Y=             -1.0889    Z=              0.9213  Tot=              2.1190
 Quadrupole moment (field-independent basis, Debye-Ang):
   XX=           -267.4406   YY=           -276.4539   ZZ=           -283.7811
   XY=            -12.2444   XZ=             -0.8035   YZ=              1.8243

 Normal termination of Gaussian 16 at Sat Nov  5 10:29:06 2022.
