 Gaussian 16, Revision B.01,
 Gaussian 16:  ES64L-G16RevB.01 20-Dec-2017

 -----------------------------
 #p b3lyp/6-31g(d) opt SCF=XQC
 -----------------------------

 ------------------------------
 Gaussian input prepared by ASE
 ------------------------------
 Symbolic Z-matrix:
 Charge =  0 Multiplicity = 1

 SCF Done:  E(RB3LYP) =  -2048.22456934     A.U. after   16 cycles
 SCF Done:  E(RB3LYP) =  -2048.23503080     A.U. after   12 cycles
 SCF Done:  E(RB3LYP) =  -2048.23618104     A.U. after   12 cycles
 SCF Done:  E(RB3LYP) =  -2048.23653858     A.U. after   11 cycles
 SCF Done:  E(RB3LYP) =  -2048.23660658     A.U. after   10 cycles
 SCF Done:  E(RB3LYP) =  -2048.23664898     A.U. after   10 cycles
 SCF Done:  E(RB3LYP) =  -2048.23666963     A.U. after   10 cycles
 SCF Done:  E(RB3LYP) =  -2048.23667990     A.U. after   10 cycles
 SCF Done:  E(RB3LYP) =  -2048.23668703     A.U. after   10 cycles
 SCF Done:  E(RB3LYP) =  -2048.23669511     A.U. after   10 cycles
 SCF Done:  E(RB3LYP) =  -2048.23670740     A.U. after    9 cycles
 SCF Done:  E(RB3LYP) =  -2048.23670818     A.U. after    9 cycles
 SCF Done:  E(RB3LYP) =  -2048.23670853     A.U. after    9 cycles
 SCF Done:  E(RB3LYP) =  -2048.23670866     A.U. after    7 cycles
 SCF Done:  E(RB3LYP) =  -2048.23670873     A.U. after    7 cycles
 SCF Done:  E(RB3LYP) =  -2048.23670875     A.U. after    6 cycles
 SCF Done:  E(RB3LYP) =  -2048.23670877     A.U. after    6 cycles
 SCF Done:  E(RB3LYP) =  -2048.23670879     A.U. after    6 cycles
 SCF Done:  E(RB3LYP) =  -2048.23670879     A.U. after    6 cycles
 SCF Done:  E(RB3LYP) =  -2048.23670878     A.U. after    5 cycles
 Optimization completed.
    -- Stationary point found.

                         Standard orientation:
 ---------------------------------------------------------------------
 Center     Atomic      Atomic             Coordinates (Angstroms)
 Number     Number       Type             X           Y           Z
 ---------------------------------------------------------------------
      1          6           0       -6.100385    6.015521    1.691001
      2          6           0       -5.003414    4.955514    1.542725
      3          6           0       -4.078131    5.158823    0.325257
      4          6           0       -4.817811    5.054019   -1.017602
      5          6           0       -2.892003    4.191836    0.372183
      6          8           0       -3.393514    2.861889    0.279272
      7          6           0       -2.511797    1.822553    0.303088
      8          6           0       -1.128053    1.957089    0.403698
      9          6           0       -0.325982    0.808086    0.414402
     10          6           0       -0.909107   -0.459801    0.326098
     11          6           0       -2.291739   -0.606270    0.225718
     12          6           0       -3.103311    0.529857    0.216515
     13          8           0       -4.467286    0.530061    0.148469
     14          6           0       -5.169574   -0.701005   -0.038046
     15          6           0       -5.172228   -1.173007   -1.500576
     16          6           0       -5.844391   -0.135375   -2.411255
     17          6           0       -5.783751   -2.586578   -1.630428
     18          6           0       -7.253711   -2.732341   -1.210696
     19          6           0        0.158601   -1.558634    0.349816
     20          6           0       -0.024111   -2.575479    1.481947
     21          6           0       -0.082959   -2.343866    2.848590
     22          6           0       -0.261238   -3.419541    3.734622
     23          6           0       -0.298373   -3.182997    5.227066
     24          6           0       -0.382870   -4.714859    3.208364
     25          6           0       -0.325313   -4.956146    1.834091
     26          6           0       -0.144195   -3.879798    0.965203
     27          6           0       -0.049294   -3.815777   -0.498824
     28          6           0       -0.112159   -4.811500   -1.474213
     29          6           0        0.005308   -4.451686   -2.818275
     30          6           0        0.186491   -3.116165   -3.210137
     31          6           0        0.341440   -2.752088   -4.669036
     32          6           0        0.243992   -2.122742   -2.218529
     33          6           0        0.129367   -2.472383   -0.880590
     34          6           0        1.437100   -0.721730    0.469409
     35          6           0        2.749476   -1.150247    0.552306
     36          6           0        3.791654   -0.215111    0.670014
     37          6           0        3.492884    1.164773    0.670623
     38          6           0        2.158026    1.584391    0.602240
     39          6           0        1.129624    0.651959    0.502403
     40          8           0        4.436506    2.154842    0.879042
     41          6           0        5.574866    2.338061    0.011102
     42          6           0        5.227344    3.104351   -1.288692
     43          6           0        4.297106    2.361676   -2.262738
     44          6           0        4.671850    4.499677   -0.963484
     45          6           0        6.405103    1.047342   -0.198579
     46          6           0        7.904699    1.394453   -0.350242
     47          6           0        8.744099    0.292700   -1.006792
     48          6           0        6.185692    0.067203    0.958386
     49          8           0        5.040148   -0.765707    0.769198
     50          1           0       -6.810583    5.991843    0.857210
     51          1           0       -5.675082    7.026413    1.737029
     52          1           0       -6.673061    5.855612    2.611657
     53          1           0       -5.452406    3.956794    1.482336
     54          1           0       -4.384856    4.957553    2.451632
     55          1           0       -3.637046    6.165837    0.399182
     56          1           0       -4.129477    5.211408   -1.856964
     57          1           0       -5.611716    5.803256   -1.098374
     58          1           0       -5.266964    4.062282   -1.133835
     59          1           0       -2.201939    4.388892   -0.462409
     60          1           0       -2.332441    4.313724    1.312037
     61          1           0       -0.676287    2.940169    0.471709
     62          1           0       -2.724520   -1.597380    0.153326
     63          1           0       -4.768823   -1.474871    0.630705
     64          1           0       -6.187643   -0.474593    0.293261
     65          1           0       -4.123085   -1.257748   -1.814931
     66          1           0       -6.900780    0.007053   -2.152943
     67          1           0       -5.794598   -0.445965   -3.461555
     68          1           0       -5.348902    0.835768   -2.317843
     69          1           0       -5.175044   -3.287941   -1.042244
     70          1           0       -5.680138   -2.904386   -2.676558
     71          1           0       -7.406131   -2.497791   -0.150725
     72          1           0       -7.593791   -3.762389   -1.366377
     73          1           0       -7.912173   -2.079072   -1.793764
     74          1           0        0.007388   -1.331612    3.236855
     75          1           0        0.711713   -3.040286    5.634308
     76          1           0       -0.874388   -2.284596    5.476653
     77          1           0       -0.747490   -4.029814    5.756386
     78          1           0       -0.526121   -5.550233    3.890214
     79          1           0       -0.424143   -5.970073    1.454075
     80          1           0       -0.254238   -5.853858   -1.199420
     81          1           0       -0.045522   -5.223898   -3.582793
     82          1           0       -0.076111   -3.525495   -5.322279
     83          1           0        1.398894   -2.630983   -4.940943
     84          1           0       -0.160106   -1.805979   -4.901956
     85          1           0        0.377204   -1.081005   -2.502634
     86          1           0        3.012394   -2.203855    0.548225
     87          1           0        1.964163    2.652602    0.638150
     88          1           0        6.192628    3.014773    0.616395
     89          1           0        6.191314    3.246305   -1.801276
     90          1           0        4.226164    2.921074   -3.203074
     91          1           0        3.286310    2.261298   -1.857748
     92          1           0        4.658340    1.356989   -2.506943
     93          1           0        3.727265    4.425272   -0.414934
     94          1           0        5.371261    5.075005   -0.344892
     95          1           0        4.487872    5.069510   -1.881462
     96          1           0        6.077367    0.532089   -1.110662
     97          1           0        8.004873    2.311254   -0.944654
     98          1           0        8.314945    1.636790    0.641378
     99          1           0        8.704138   -0.647950   -0.446043
    100          1           0        9.796451    0.590870   -1.071660
    101          1           0        8.392304    0.084847   -2.024289
    102          1           0        7.011263   -0.646199    1.018710
    103          1           0        6.121581    0.595458    1.918111
 ---------------------------------------------------------------------

 The electronic state is 1-A.
 Alpha  occ. eigenvalues --  -19.16645 -19.16594 -19.16459 -19.15798 -10.24083
 Alpha  occ. eigenvalues --  -10.23831 -10.23787 -10.23743 -10.23589 -10.23523
 Alpha  occ. eigenvalues --  -10.23249 -10.23020 -10.20428 -10.19403 -10.19383
 Alpha  occ. eigenvalues --  -10.19259 -10.18967 -10.18881 -10.18752 -10.18487
 Alpha  occ. eigenvalues --  -10.18450 -10.18395 -10.18317 -10.18266 -10.18245
 Alpha  occ. eigenvalues --  -10.18231 -10.18211 -10.18157 -10.18087 -10.18054
 Alpha  occ. eigenvalues --  -10.18037 -10.17990 -10.17959 -10.17936 -10.17888
 Alpha  occ. eigenvalues --  -10.17873 -10.17846 -10.17833 -10.17776 -10.17682
 Alpha  occ. eigenvalues --  -10.17680 -10.17629 -10.17353 -10.17280 -10.17239
 Alpha  occ. eigenvalues --  -10.17104 -10.16907 -10.16662 -10.16636  -1.06199
 Alpha  occ. eigenvalues --   -1.05854  -1.04143  -1.03407  -0.89055  -0.86231
 Alpha  occ. eigenvalues --   -0.83961  -0.83868  -0.82255  -0.80721  -0.80462
 Alpha  occ. eigenvalues --   -0.79992  -0.78977  -0.77802  -0.76255  -0.74634
 Alpha  occ. eigenvalues --   -0.74083  -0.73991  -0.73571  -0.73063  -0.72501
 Alpha  occ. eigenvalues --   -0.72443  -0.70643  -0.69544  -0.69128  -0.68294
 Alpha  occ. eigenvalues --   -0.68161  -0.67556  -0.65925  -0.65325  -0.64046
 Alpha  occ. eigenvalues --   -0.62956  -0.62683  -0.61580  -0.60855  -0.59283
 Alpha  occ. eigenvalues --   -0.58719  -0.58063  -0.57756  -0.57675  -0.55937
 Alpha  occ. eigenvalues --   -0.55736  -0.55347  -0.54504  -0.54017  -0.52020
 Alpha  occ. eigenvalues --   -0.51541  -0.50711  -0.50170  -0.49230  -0.48222
 Alpha  occ. eigenvalues --   -0.47759  -0.47394  -0.47059  -0.46954  -0.46198
 Alpha  occ. eigenvalues --   -0.45949  -0.45446  -0.45372  -0.44982  -0.44670
 Alpha  occ. eigenvalues --   -0.44278  -0.43753  -0.43461  -0.43221  -0.43080
 Alpha  occ. eigenvalues --   -0.42860  -0.42711  -0.42650  -0.42267  -0.42208
 Alpha  occ. eigenvalues --   -0.41905  -0.41504  -0.41293  -0.41111  -0.40993
 Alpha  occ. eigenvalues --   -0.40342  -0.40091  -0.39374  -0.39018  -0.38911
 Alpha  occ. eigenvalues --   -0.38721  -0.38531  -0.37903  -0.37846  -0.37761
 Alpha  occ. eigenvalues --   -0.37699  -0.37557  -0.37415  -0.37132  -0.37007
 Alpha  occ. eigenvalues --   -0.36850  -0.36325  -0.36073  -0.35979  -0.35664
 Alpha  occ. eigenvalues --   -0.35470  -0.35342  -0.34832  -0.34244  -0.34159
 Alpha  occ. eigenvalues --   -0.33987  -0.33843  -0.33533  -0.33418  -0.33203
 Alpha  occ. eigenvalues --   -0.32955  -0.32858  -0.32569  -0.32165  -0.31908
 Alpha  occ. eigenvalues --   -0.31805  -0.31622  -0.31487  -0.30811  -0.30524
 Alpha  occ. eigenvalues --   -0.30366  -0.30298  -0.29843  -0.28764  -0.27484
 Alpha  occ. eigenvalues --   -0.26165  -0.24353  -0.23529  -0.23334  -0.22086
 Alpha  occ. eigenvalues --   -0.20942  -0.19869  -0.17212
 Alpha virt. eigenvalues --   -0.02083  -0.01149  -0.00476   0.00184   0.01408
 Alpha virt. eigenvalues --    0.02725   0.04788   0.06386   0.07398   0.08116
 Alpha virt. eigenvalues --    0.08645   0.09124   0.09466   0.10186   0.10517

 Mulliken charges:
               1
     1  C   -0.448909
     2  C   -0.248742
     3  C   -0.093201
     4  C   -0.453971
     5  C   -0.031726
     6  O   -0.521349
     7  C    0.344280
     8  C   -0.281596
     9  C    0.066665
    10  C    0.108723
    11  C   -0.264766
    12  C    0.334903
    13  O   -0.531538
    14  C   -0.036599
    15  C   -0.099905
    16  C   -0.453419
    17  C   -0.260761
    18  C   -0.453257
    19  C   -0.274819
    20  C    0.132495
    21  C   -0.243928
    22  C    0.175396
    23  C   -0.530381
    24  C   -0.191506
    25  C   -0.191903
    26  C    0.063971
    27  C    0.063725
    28  C   -0.191738
    29  C   -0.191474
    30  C    0.175504
    31  C   -0.530288
    32  C   -0.245641
    33  C    0.133424
    34  C    0.136481
    35  C   -0.278421
    36  C    0.350497
    37  C    0.333323
    38  C   -0.291740
    39  C    0.079343
    40  O   -0.572744
    41  C    0.143757
    42  C   -0.088540
    43  C   -0.464080
    44  C   -0.448990
    45  C   -0.137017
    46  C   -0.280740
    47  C   -0.450459
    48  C   -0.042134
    49  O   -0.541227
    50  H    0.146707
    51  H    0.137310
    52  H    0.143358
    53  H    0.159618
    54  H    0.125143
    55  H    0.120214
    56  H    0.135734
    57  H    0.144103
    58  H    0.169254
    59  H    0.132556
    60  H    0.134351
    61  H    0.133207
    62  H    0.142914
    63  H    0.140867
    64  H    0.149612
    65  H    0.143791
    66  H    0.139405
    67  H    0.138734
    68  H    0.166543
    69  H    0.134387
    70  H    0.136016
    71  H    0.145209
    72  H    0.145639
    73  H    0.149341
    74  H    0.131635
    75  H    0.165060
    76  H    0.159383
    77  H    0.152265
    78  H    0.117609
    79  H    0.125019
    80  H    0.125411
    81  H    0.117395
    82  H    0.152732
    83  H    0.164013
    84  H    0.158048
    85  H    0.129556
    86  H    0.145089
    87  H    0.133179
    88  H    0.130466
    89  H    0.124739
    90  H    0.140744
    91  H    0.166991
    92  H    0.147029
    93  H    0.159112
    94  H    0.138184
    95  H    0.140078
    96  H    0.149213
    97  H    0.144747
    98  H    0.138154
    99  H    0.151412
   100  H    0.148551
   101  H    0.149796
   102  H    0.149966
   103  H    0.155431
 Sum of Mulliken charges =  -0.00000

 Dipole moment (field-independent basis, Debye):
    X=              1.5297    Y=              0.7656    Z=             -1.2503  Tot=              2.1188
 Quadrupole moment (field-independent basis, Debye-Ang):
   XX=           -267.3230   YY=           -276.5315   ZZ=           -283.5182
   XY=             11.9418   XZ=             -3.2951   YZ=             -1.1567

 1\1\GINC-NODE58\FOpt\RB3LYP\6-31G(d)\C45H54O4\WYKGROUP\05-Nov-2022\0\\
 #p b3lyp/6-31g(d) opt SCF=XQC\\Gaussian input prepared by ASE\\0,1\C,-
 6.2529252832,-4.9933360914,-2.8562205422\C,-5.111382226,-4.028903181,-
 2.5160814601\C,-4.1288539655,-4.5523275022,-1.4481984231\C,-4.78950932
 9,-4.7731131308,-0.0784653837\C,-2.9124499738,-3.6306608746,-1.3254816
 1\O,-3.3590571774,-2.3564371447,-0.8718275546\C,-2.4424863757,-1.36398
 94642,-0.6897389238\C,-1.0721930952,-1.4988303081,-0.9067244234\C,-0.2
 303584832,-0.4018518281,-0.6795771148\C,-0.7609281859,0.8152570171,-0.

 Normal termination of Gaussian 16 at Sat Nov  5 01:24:13 2022.
