 Gaussian 16, Revision B.01,
 Gaussian 16:  ES64L-G16RevB.01 20-Dec-2017

 -----------------------------
 #p b3lyp/6-31g(d) opt SCF=XQC
 -----------------------------

 ------------------------------
 Gaussian input prepared by ASE
 ------------------------------
 Symbolic Z-matrix:
 Charge =  0 Multiplicity = 1

 SCF Done:  E(RB3LYP) =  -2071.21888276     A.U. after   16 cycles
 SCF Done:  E(RB3LYP) =  -2071.22315859     A.U. after   12 cycles
 SCF Done:  E(RB3LYP) =  -2071.22477769     A.U. after   12 cycles
 SCF Done:  E(RB3LYP) =  -2071.22492421     A.U. after   11 cycles
 SCF Done:  E(RB3LYP) =  -2071.22493503     A.U. after    9 cycles
 SCF Done:  E(RB3LYP) =  -2071.22493597     A.U. after    8 cycles
 SCF Done:  E(RB3LYP) =  -2071.22493617     A.U. after    8 cycles
 SCF Done:  E(RB3LYP) =  -2071.22493627     A.U. after    8 cycles
 SCF Done:  E(RB3LYP) =  -2071.22493654     A.U. after    9 cycles
 SCF Done:  E(RB3LYP) =  -2071.22493814     A.U. after   11 cycles
 SCF Done:  E(RB3LYP) =  -2071.22774580     A.U. after   15 cycles
 SCF Done:  E(RB3LYP) =  -2071.22785184     A.U. after   12 cycles
 SCF Done:  E(RB3LYP) =  -2071.22770486     A.U. after   15 cycles
 SCF Done:  E(RB3LYP) =  -2071.22795907     A.U. after   14 cycles
 SCF Done:  E(RB3LYP) =  -2071.22781053     A.U. after   13 cycles
 SCF Done:  E(RB3LYP) =  -2071.22798946     A.U. after   14 cycles
 SCF Done:  E(RB3LYP) =  -2071.22796093     A.U. after   12 cycles
 SCF Done:  E(RB3LYP) =  -2071.22799170     A.U. after   12 cycles
 SCF Done:  E(RB3LYP) =  -2071.22799140     A.U. after   10 cycles
 SCF Done:  E(RB3LYP) =  -2071.22799183     A.U. after   10 cycles
 Optimization completed.
    -- Stationary point found.

                         Standard orientation:
 ---------------------------------------------------------------------
 Center     Atomic      Atomic             Coordinates (Angstroms)
 Number     Number       Type             X           Y           Z
 ---------------------------------------------------------------------
      1          6           0        4.441871    3.091915    1.255228
      2          6           0        5.578154    2.883788    0.456285
      3          6           0        5.704920    1.738072   -0.327143
      4          6           0        4.668827    0.803998   -0.293912
      5         16           0        4.522878   -0.722709   -1.155992
      6          6           0        2.945048   -0.944164   -0.353120
      7         16           0        2.032009   -2.430910   -0.729327
      8          6           0        0.580331   -2.193407    0.214062
      9          6           0        0.170502   -2.737782    1.403788
     10          6           0       -1.137624   -2.241268    1.648012
     11          6           0       -1.440972   -1.422729    0.586570
     12          6           0       -2.611234   -0.636972    0.275056
     13          7           0       -3.664791   -0.596726    1.037266
     14          6           0       -4.631437    0.229601    0.499163
     15          6           0       -5.884761    0.486864    1.077497
     16          6           0       -6.764015    1.341478    0.425959
     17          6           0       -6.413556    1.945128   -0.795197
     18          6           0       -5.176122    1.704224   -1.386635
     19          6           0       -4.290468    0.844728   -0.732777
     20         16           0       -2.679778    0.344895   -1.209702
     21          8           0       -0.405046   -1.393480   -0.299237
     22          7           0        2.566785   -0.009631    0.446701
     23          6           0        3.518919    1.001135    0.507385
     24          6           0        3.410358    2.159950    1.287558
     25          1           0        4.368604    3.994031    1.855816
     26          1           0        6.371851    3.625375    0.446260
     27          1           0        6.584614    1.581139   -0.943746
     28          1           0        0.750576   -3.405006    2.024969
     29          1           0       -1.784159   -2.442553    2.489304
     30          1           0       -6.140685    0.013635    2.020134
     31          1           0       -7.736430    1.547944    0.863850
     32          1           0       -7.117777    2.610307   -1.286841
     33          1           0       -4.910528    2.172817   -2.329351
     34          1           0        2.526150    2.306886    1.899409
 ---------------------------------------------------------------------

 The electronic state is 1-A.
 Alpha  occ. eigenvalues --  -88.91993 -88.91903 -88.91427 -19.23548 -14.34340
 Alpha  occ. eigenvalues --  -14.34074 -10.28850 -10.27973 -10.27053 -10.26638
 Alpha  occ. eigenvalues --  -10.23158 -10.23067 -10.22860 -10.22744 -10.21214
 Alpha  occ. eigenvalues --  -10.20692 -10.20638 -10.20455 -10.19934 -10.19879
 Alpha  occ. eigenvalues --  -10.19771 -10.19689 -10.19676 -10.19606  -7.98031
 Alpha  occ. eigenvalues --   -7.98030  -7.97528  -5.94585  -5.94462  -5.94132
 Alpha  occ. eigenvalues --   -5.94117  -5.93943  -5.93643  -5.93603  -5.93515
 Alpha  occ. eigenvalues --   -5.93172  -1.13233  -0.97565  -0.97035  -0.85894
 Alpha  occ. eigenvalues --   -0.85497  -0.83084  -0.81774  -0.80633  -0.80163
 Alpha  occ. eigenvalues --   -0.77085  -0.74604  -0.74198  -0.73020  -0.70666
 Alpha  occ. eigenvalues --   -0.64152  -0.62529  -0.61575  -0.60384  -0.59864
 Alpha  occ. eigenvalues --   -0.59066  -0.56844  -0.56560  -0.52158  -0.49574
 Alpha  occ. eigenvalues --   -0.49287  -0.49084  -0.48735  -0.48458  -0.47182
 Alpha  occ. eigenvalues --   -0.45130  -0.44484  -0.44319  -0.43861  -0.43040
 Alpha  occ. eigenvalues --   -0.42429  -0.41271  -0.41026  -0.40437  -0.40208
 Alpha  occ. eigenvalues --   -0.39284  -0.37909  -0.37131  -0.36695  -0.35790
 Alpha  occ. eigenvalues --   -0.35041  -0.34546  -0.34163  -0.30684  -0.30512
 Alpha  occ. eigenvalues --   -0.29723  -0.29026  -0.28428  -0.28204  -0.27038
 Alpha  occ. eigenvalues --   -0.23902  -0.23657  -0.22961  -0.21789
 Alpha virt. eigenvalues --   -0.06720  -0.03582  -0.01421  -0.00861  -0.00676
 Alpha virt. eigenvalues --    0.00824   0.01179   0.02518   0.02974   0.03448
 Alpha virt. eigenvalues --    0.06788   0.08150   0.09357   0.10567   0.10634

 Mulliken charges:
               1
     1  C   -0.148102
     2  C   -0.118007
     3  C   -0.175436
     4  C   -0.136587
     5  S    0.237535
     6  C   -0.089764
     7  S    0.220715
     8  C    0.131763
     9  C   -0.169570
    10  C   -0.164331
    11  C    0.343383
    12  C    0.025768
    13  N   -0.504274
    14  C    0.296910
    15  C   -0.147721
    16  C   -0.147670
    17  C   -0.117781
    18  C   -0.184315
    19  C   -0.125664
    20  S    0.248852
    21  O   -0.442879
    22  N   -0.445111
    23  C    0.280036
    24  C   -0.139807
    25  H    0.136619
    26  H    0.135888
    27  H    0.146454
    28  H    0.168081
    29  H    0.172230
    30  H    0.145531
    31  H    0.135745
    32  H    0.135777
    33  H    0.146819
    34  H    0.148914
 Sum of Mulliken charges =  -0.00000

 Dipole moment (field-independent basis, Debye):
    X=              0.2341    Y=              1.0614    Z=              0.4627  Tot=              1.1813
 Quadrupole moment (field-independent basis, Debye-Ang):
   XX=           -133.7409   YY=           -146.0548   ZZ=           -152.1040
   XY=             -0.0548   XZ=              0.2422   YZ=             -4.0141

 Normal termination of Gaussian 16 at Fri Nov  4 23:33:21 2022.
