 Gaussian 16, Revision B.01,
 Gaussian 16:  ES64L-G16RevB.01 20-Dec-2017

 -----------------------------
 #p b3lyp/6-31g(d) opt SCF=XQC
 -----------------------------

 ------------------------------
 Gaussian input prepared by ASE
 ------------------------------
 Symbolic Z-matrix:
 Charge =  0 Multiplicity = 1

 SCF Done:  E(RB3LYP) =  -1355.03945674     A.U. after   15 cycles
 SCF Done:  E(RB3LYP) =  -1355.04215807     A.U. after   15 cycles
 SCF Done:  E(RB3LYP) =  -1355.04457659     A.U. after   15 cycles
 SCF Done:  E(RB3LYP) =  -1355.04697475     A.U. after   13 cycles
 SCF Done:  E(RB3LYP) =  -1355.04732358     A.U. after   11 cycles
 SCF Done:  E(RB3LYP) =  -1355.04742216     A.U. after   11 cycles
 SCF Done:  E(RB3LYP) =  -1355.04746462     A.U. after   11 cycles
 SCF Done:  E(RB3LYP) =  -1355.04747673     A.U. after   11 cycles
 SCF Done:  E(RB3LYP) =  -1355.04748029     A.U. after    9 cycles
 SCF Done:  E(RB3LYP) =  -1355.04748250     A.U. after    9 cycles
 SCF Done:  E(RB3LYP) =  -1355.04748428     A.U. after    9 cycles
 SCF Done:  E(RB3LYP) =  -1355.04748559     A.U. after    9 cycles
 SCF Done:  E(RB3LYP) =  -1355.04748623     A.U. after    9 cycles
 SCF Done:  E(RB3LYP) =  -1355.04748634     A.U. after    7 cycles
 SCF Done:  E(RB3LYP) =  -1355.04748635     A.U. after    6 cycles
 Optimization completed.
    -- Stationary point found.

                         Standard orientation:
 ---------------------------------------------------------------------
 Center     Atomic      Atomic             Coordinates (Angstroms)
 Number     Number       Type             X           Y           Z
 ---------------------------------------------------------------------
      1          8           0       -0.444603   -2.420623   -1.417169
      2          6           0       -0.173448   -1.432526   -0.747294
      3          7           0        1.012320   -1.264385   -0.068042
      4          6           0        2.121710   -2.125561   -0.017610
      5          6           0        2.174342   -3.398646   -0.605334
      6          6           0        3.331079   -4.168656   -0.483345
      7          6           0        4.440240   -3.699539    0.222142
      8          6           0        4.395135   -2.436386    0.813456
      9          6           0        3.250206   -1.658913    0.684248
     10          8           0        3.149421   -0.422321    1.315458
     11          6           0        3.843254    0.667085    0.809298
     12          6           0        3.880682    1.794532    1.634622
     13          6           0        4.520494    2.948861    1.189737
     14          6           0        5.123383    2.985086   -0.071248
     15          6           0        5.079678    1.851748   -0.883403
     16          6           0        4.440931    0.685467   -0.452969
     17          6           0       -1.176823   -0.318985   -0.548835
     18          6           0       -2.476326   -0.711096   -0.319049
     19          6           0       -3.478175    0.263890   -0.066511
     20          6           0       -4.879155   -0.161889    0.211549
     21          6           0       -5.884714    0.788215    0.444338
     22          6           0       -7.178080    0.343462    0.697781
     23          6           0       -7.431125   -1.028702    0.711726
     24          6           0       -6.364847   -1.896197    0.469026
     25          7           0       -5.118276   -1.484929    0.224928
     26          7           0       -3.222439    1.562174   -0.054659
     27          6           0       -1.956940    1.981816   -0.322903
     28          6           0       -1.719905    3.382720   -0.338457
     29          6           0       -0.471849    3.882139   -0.630538
     30          6           0        0.590865    2.999658   -0.935223
     31          6           0        0.395950    1.634941   -0.923895
     32          6           0       -0.871671    1.080611   -0.595053
     33          1           0        1.105852   -0.439726    0.512049
     34          1           0        1.312451   -3.759212   -1.148616
     35          1           0        3.357682   -5.151886   -0.944455
     36          1           0        5.332579   -4.310814    0.318251
     37          1           0        5.236275   -2.042036    1.375278
     38          1           0        3.406791    1.747386    2.610057
     39          1           0        4.549492    3.823463    1.833985
     40          1           0        5.624836    3.885581   -0.413522
     41          1           0        5.545255    1.866464   -1.865274
     42          1           0        4.411350   -0.194105   -1.086549
     43          1           0       -2.744320   -1.759897   -0.311775
     44          1           0       -5.631618    1.841411    0.420971
     45          1           0       -7.977603    1.056454    0.881170
     46          1           0       -8.425455   -1.420060    0.904739
     47          1           0       -6.519072   -2.974141    0.470975
     48          1           0       -2.561967    4.032094   -0.120597
     49          1           0       -0.301345    4.955147   -0.641077
     50          1           0        1.570707    3.396969   -1.183988
     51          1           0        1.218973    0.981633   -1.191038
 ---------------------------------------------------------------------

 The electronic state is 1-A.
 Alpha  occ. eigenvalues --  -19.19949 -19.12454 -14.38119 -14.33237 -14.33060
 Alpha  occ. eigenvalues --  -10.30139 -10.26053 -10.25457 -10.24347 -10.23371
 Alpha  occ. eigenvalues --  -10.22982 -10.22950 -10.22365 -10.21851 -10.21456
 Alpha  occ. eigenvalues --  -10.20850 -10.20098 -10.20067 -10.20040 -10.20001
 Alpha  occ. eigenvalues --  -10.19958 -10.19935 -10.19922 -10.19732 -10.19676
 Alpha  occ. eigenvalues --  -10.19564 -10.19553 -10.19493 -10.19451 -10.19391
 Alpha  occ. eigenvalues --  -10.19365 -10.19039  -1.08631  -1.04378  -0.95567
 Alpha  occ. eigenvalues --   -0.94671  -0.93679  -0.86401  -0.85440  -0.84954
 Alpha  occ. eigenvalues --   -0.81700  -0.80241  -0.78176  -0.76976  -0.75505
 Alpha  occ. eigenvalues --   -0.75342  -0.74548  -0.74020  -0.73088  -0.67499
 Alpha  occ. eigenvalues --   -0.65529  -0.64481  -0.63930  -0.62230  -0.61889
 Alpha  occ. eigenvalues --   -0.61145  -0.60577  -0.58992  -0.57532  -0.55655
 Alpha  occ. eigenvalues --   -0.54195  -0.53245  -0.52871  -0.51886  -0.50417
 Alpha  occ. eigenvalues --   -0.49235  -0.47936  -0.47918  -0.47255  -0.46605
 Alpha  occ. eigenvalues --   -0.46213  -0.45451  -0.45224  -0.44892  -0.44030
 Alpha  occ. eigenvalues --   -0.43305  -0.43101  -0.42791  -0.42657  -0.42159
 Alpha  occ. eigenvalues --   -0.41791  -0.41012  -0.40845  -0.40273  -0.39721
 Alpha  occ. eigenvalues --   -0.39503  -0.37605  -0.37208  -0.37115  -0.36707
 Alpha  occ. eigenvalues --   -0.36377  -0.36151  -0.35168  -0.34637  -0.34471
 Alpha  occ. eigenvalues --   -0.33511  -0.31532  -0.30454  -0.28903  -0.27455
 Alpha  occ. eigenvalues --   -0.27000  -0.26081  -0.26003  -0.25412  -0.24995
 Alpha  occ. eigenvalues --   -0.24044  -0.23424  -0.22927  -0.22192
 Alpha virt. eigenvalues --   -0.07188  -0.04019  -0.01955  -0.01555  -0.01208
 Alpha virt. eigenvalues --   -0.00463   0.00260   0.00620   0.01697   0.05914
 Alpha virt. eigenvalues --    0.08239   0.09093   0.09433   0.09760   0.10111

 Mulliken charges:
               1
     1  O   -0.496676
     2  C    0.554266
     3  N   -0.735032
     4  C    0.328431
     5  C   -0.176850
     6  C   -0.138567
     7  C   -0.138974
     8  C   -0.159632
     9  C    0.274574
    10  O   -0.602050
    11  C    0.343808
    12  C   -0.168121
    13  C   -0.137090
    14  C   -0.131781
    15  C   -0.141459
    16  C   -0.180830
    17  C    0.041893
    18  C   -0.202914
    19  C    0.269937
    20  C    0.255258
    21  C   -0.147285
    22  C   -0.103660
    23  C   -0.141919
    24  C    0.044274
    25  N   -0.487150
    26  N   -0.592781
    27  C    0.249625
    28  C   -0.149010
    29  C   -0.134696
    30  C   -0.133697
    31  C   -0.226581
    32  C    0.117009
    33  H    0.359598
    34  H    0.193224
    35  H    0.137452
    36  H    0.135412
    37  H    0.146907
    38  H    0.145179
    39  H    0.136607
    40  H    0.131432
    41  H    0.138106
    42  H    0.156200
    43  H    0.192269
    44  H    0.166117
    45  H    0.144411
    46  H    0.140281
    47  H    0.143260
    48  H    0.143921
    49  H    0.136579
    50  H    0.146152
    51  H    0.154576
 Sum of Mulliken charges =  -0.00000

 Dipole moment (field-independent basis, Debye):
    X=              1.2556    Y=              2.5457    Z=              1.1783  Tot=              3.0733
 Quadrupole moment (field-independent basis, Debye-Ang):
   XX=           -146.5013   YY=           -168.5737   ZZ=           -184.3338
   XY=             -0.2916   XZ=             -7.9144   YZ=             -2.0146

 Normal termination of Gaussian 16 at Fri Nov  4 23:29:51 2022.
