 Gaussian 16, Revision B.01,
 Gaussian 16:  ES64L-G16RevB.01 20-Dec-2017

 -------------------------------------------------------------------
 #p b3lyp/6-31g(d) 6D 10F nosymm GFInput td=(50-50,nstate=2) SCF=XQC
 -------------------------------------------------------------------

 ------------------------------
 Gaussian input prepared by ASE
 ------------------------------
 Symbolic Z-matrix:
 Charge =  0 Multiplicity = 1

                          Input orientation:
 ---------------------------------------------------------------------
 Center     Atomic      Atomic             Coordinates (Angstroms)
 Number     Number       Type             X           Y           Z
 ---------------------------------------------------------------------
      1          8           0       -0.551483    1.220465    2.509286
      2          6           0       -0.293001    0.810659    1.385080
      3          7           0        0.901577    1.036625    0.738842
      4          6           0        2.034279    1.723336    1.208231
      5          6           0        2.108668    2.400529    2.434939
      6          6           0        3.287735    3.054441    2.792758
      7          6           0        4.398284    3.055868    1.947359
      8          6           0        4.331756    2.388550    0.723633
      9          6           0        3.164143    1.723960    0.367234
     10          8           0        3.043492    1.103495   -0.873012
     11          6           0        3.697564   -0.097029   -1.108256
     12          6           0        3.721939   -0.519464   -2.440417
     13          6           0        4.321553   -1.734303   -2.763510
     14          6           0        4.897238   -2.528803   -1.767405
     15          6           0        4.867018   -2.093627   -0.442387
     16          6           0        4.268490   -0.877729   -0.100573
     17          6           0       -1.321347    0.064016    0.565845
     18          6           0       -2.604969    0.559511    0.611238
     19          6           0       -3.626995   -0.043545   -0.169697
     20          6           0       -5.010150    0.511022   -0.143418
     21          6           0       -6.035627   -0.083521   -0.893719
     22          6           0       -7.311229    0.468180   -0.836278
     23          6           0       -7.527352    1.591000   -0.036512
     24          6           0       -6.443590    2.111058    0.672995
     25          7           0       -5.213674    1.593442    0.627774
     26          7           0       -3.405688   -1.091660   -0.946589
     27          6           0       -2.157573   -1.630929   -0.977271
     28          6           0       -1.958248   -2.777329   -1.792744
     29          6           0       -0.730178   -3.394403   -1.851380
     30          6           0        0.349147   -2.898769   -1.083024
     31          6           0        0.190869   -1.785450   -0.285500
     32          6           0       -1.054539   -1.101736   -0.224067
     33          1           0        0.985039    0.711482   -0.216477
     34          1           0        1.245694    2.399132    3.085549
     35          1           0        3.331001    3.573670    3.745965
     36          1           0        5.308350    3.575417    2.231983
     37          1           0        5.173472    2.374366    0.038080
     38          1           0        3.269603    0.110790   -3.199654
     39          1           0        4.340506   -2.059629   -3.800152
     40          1           0        5.367430   -3.473754   -2.023304
     41          1           0        5.311773   -2.701263    0.341206
     42          1           0        4.249304   -0.542074    0.930404
     43          1           0       -2.844770    1.418234    1.225200
     44          1           0       -5.811164   -0.954795   -1.497312
     45          1           0       -8.125496    0.028661   -1.406382
     46          1           0       -8.506748    2.053911    0.038352
     47          1           0       -6.569021    2.986304    1.308576
     48          1           0       -2.812630   -3.143771   -2.353074
     49          1           0       -0.588523   -4.271292   -2.477100
     50          1           0        1.312760   -3.398932   -1.116454
     51          1           0        1.025315   -1.444316    0.316886
 ---------------------------------------------------------------------

 SCF Done:  E(RB3LYP) =  -1355.04747669     A.U. after   16 cycles

 Excitation energies and oscillator strengths:

 Excited state symmetry could not be determined.
 Excited State   1:      Triplet-?Sym    2.5498 eV  486.25 nm  f=0.0000  <S**2>=2.000
     106 ->110         0.15559
     106 ->111        -0.16818
     107 ->110         0.15546
     108 ->110         0.54307
     109 ->110         0.27532
 This state for optimization and/or second-order correction.
 Total Energy, E(TD-HF/TD-DFT) =  -1354.95377373
 Copying the excited state density for this state as the 1-particle RhoCI density.

 Excited state symmetry could not be determined.
 Excited State   2:      Triplet-?Sym    3.1795 eV  389.94 nm  f=0.0000  <S**2>=2.000
     106 ->110         0.50400
     107 ->110        -0.23586
     108 ->110        -0.21371
     108 ->111        -0.11492
     109 ->110         0.22483
     109 ->111        -0.11265

 Excited state symmetry could not be determined.
 Excited State   3:      Singlet-?Sym    3.6064 eV  343.79 nm  f=0.0930  <S**2>=0.000
     109 ->110         0.69935

 Excited state symmetry could not be determined.
 Excited State   4:      Singlet-?Sym    3.7766 eV  328.29 nm  f=0.0120  <S**2>=0.000
     101 ->110        -0.14198
     105 ->110         0.48672
     106 ->110         0.30966
     108 ->110         0.35413

 Alpha  occ. eigenvalues --  -19.19949 -19.12454 -14.38119 -14.33237 -14.33060
 Alpha  occ. eigenvalues --  -10.30139 -10.26053 -10.25457 -10.24347 -10.23371
 Alpha  occ. eigenvalues --  -10.22982 -10.22950 -10.22364 -10.21851 -10.21456
 Alpha  occ. eigenvalues --  -10.20850 -10.20098 -10.20067 -10.20040 -10.20001
 Alpha  occ. eigenvalues --  -10.19958 -10.19935 -10.19922 -10.19732 -10.19676
 Alpha  occ. eigenvalues --  -10.19564 -10.19553 -10.19493 -10.19451 -10.19391
 Alpha  occ. eigenvalues --  -10.19365 -10.19039  -1.08631  -1.04378  -0.95567
 Alpha  occ. eigenvalues --   -0.94671  -0.93679  -0.86401  -0.85440  -0.84954
 Alpha  occ. eigenvalues --   -0.81700  -0.80241  -0.78176  -0.76976  -0.75505
 Alpha  occ. eigenvalues --   -0.75342  -0.74548  -0.74020  -0.73088  -0.67500
 Alpha  occ. eigenvalues --   -0.65529  -0.64481  -0.63930  -0.62230  -0.61889
 Alpha  occ. eigenvalues --   -0.61145  -0.60577  -0.58992  -0.57532  -0.55655
 Alpha  occ. eigenvalues --   -0.54195  -0.53245  -0.52871  -0.51886  -0.50416
 Alpha  occ. eigenvalues --   -0.49235  -0.47935  -0.47918  -0.47256  -0.46605
 Alpha  occ. eigenvalues --   -0.46213  -0.45451  -0.45224  -0.44892  -0.44030
 Alpha  occ. eigenvalues --   -0.43305  -0.43101  -0.42791  -0.42657  -0.42159
 Alpha  occ. eigenvalues --   -0.41791  -0.41012  -0.40845  -0.40272  -0.39721
 Alpha  occ. eigenvalues --   -0.39504  -0.37605  -0.37208  -0.37115  -0.36707
 Alpha  occ. eigenvalues --   -0.36377  -0.36151  -0.35168  -0.34637  -0.34471
 Alpha  occ. eigenvalues --   -0.33511  -0.31532  -0.30454  -0.28903  -0.27455
 Alpha  occ. eigenvalues --   -0.27000  -0.26081  -0.26003  -0.25412  -0.24995
 Alpha  occ. eigenvalues --   -0.24044  -0.23424  -0.22927  -0.22193
 Alpha virt. eigenvalues --   -0.07188  -0.04019  -0.01955  -0.01555  -0.01208
 Alpha virt. eigenvalues --   -0.00463   0.00261   0.00620   0.01697   0.05914
 Alpha virt. eigenvalues --    0.08240   0.09093   0.09433   0.09760   0.10111

 Mulliken charges:
               1
     1  O   -0.496675
     2  C    0.554266
     3  N   -0.735032
     4  C    0.328404
     5  C   -0.176838
     6  C   -0.138573
     7  C   -0.138977
     8  C   -0.159629
     9  C    0.274584
    10  O   -0.602076
    11  C    0.343848
    12  C   -0.168108
    13  C   -0.137088
    14  C   -0.131795
    15  C   -0.141460
    16  C   -0.180838
    17  C    0.041868
    18  C   -0.202884
    19  C    0.269910
    20  C    0.255248
    21  C   -0.147277
    22  C   -0.103661
    23  C   -0.141924
    24  C    0.044283
    25  N   -0.487150
    26  N   -0.592773
    27  C    0.249622
    28  C   -0.149002
    29  C   -0.134699
    30  C   -0.133698
    31  C   -0.226596
    32  C    0.117026
    33  H    0.359599
    34  H    0.193225
    35  H    0.137453
    36  H    0.135414
    37  H    0.146905
    38  H    0.145178
    39  H    0.136605
    40  H    0.131432
    41  H    0.138105
    42  H    0.156200
    43  H    0.192269
    44  H    0.166117
    45  H    0.144411
    46  H    0.140281
    47  H    0.143259
    48  H    0.143920
    49  H    0.136579
    50  H    0.146154
    51  H    0.154588
 Sum of Mulliken charges =  -0.00000

 Dipole moment (field-independent basis, Debye):
    X=              1.2113    Y=             -1.3979    Z=             -2.4542  Tot=              3.0732
 Quadrupole moment (field-independent basis, Debye-Ang):
   XX=           -147.1855   YY=           -172.0895   ZZ=           -180.4195
   XY=             -4.9903   XZ=              7.0844   YZ=              6.5447

 Normal termination of Gaussian 16 at Sat Nov  5 10:11:57 2022.
