 Gaussian 16, Revision B.01,
 Gaussian 16:  ES64L-G16RevB.01 20-Dec-2017

 -------------------------------------------------------------------
 #p b3lyp/6-31g(d) 6D 10F nosymm GFInput td=(50-50,nstate=2) SCF=XQC
 -------------------------------------------------------------------

 ------------------------------
 Gaussian input prepared by ASE
 ------------------------------
 Symbolic Z-matrix:
 Charge =  0 Multiplicity = 1

                          Input orientation:
 ---------------------------------------------------------------------
 Center     Atomic      Atomic             Coordinates (Angstroms)
 Number     Number       Type             X           Y           Z
 ---------------------------------------------------------------------
      1          6           0        4.899864    2.590098    0.021496
      2          6           0        5.877683    2.354206   -0.958806
      3          6           0        5.859298    1.190665   -1.725832
      4          6           0        4.840048    0.267160   -1.490551
      5         16           0        4.537370   -1.276446   -2.278576
      6          6           0        3.123224   -1.465844   -1.207355
      7         16           0        2.150537   -2.951876   -1.383929
      8          6           0        0.887629   -2.680567   -0.206980
      9          6           0        0.689421   -3.195226    1.048246
     10          6           0       -0.553121   -2.681452    1.505945
     11          6           0       -1.033169   -1.883324    0.495385
     12          6           0       -2.235685   -1.093701    0.375315
     13          7           0       -3.139376   -1.027203    1.308849
     14          6           0       -4.180857   -0.203814    0.929211
     15          6           0       -5.312252    0.077505    1.711696
     16          6           0       -6.287389    0.925908    1.204473
     17          6           0       -6.152820    1.499695   -0.072672
     18          6           0       -5.039275    1.234593   -0.865652
     19          6           0       -4.057457    0.381301   -0.357152
     20         16           0       -2.557761   -0.143633   -1.096726
     21          8           0       -0.168094   -1.882859   -0.558321
     22          7           0        2.895740   -0.510744   -0.375379
     23          6           0        3.849169    0.492243   -0.505298
     24          6           0        3.884978    1.668641    0.255040
     25          1           0        4.937629    3.505652    0.604783
     26          1           0        6.661315    3.088024   -1.124450
     27          1           0        6.616671    1.012276   -2.482966
     28          1           0        1.365685   -3.854179    1.573592
     29          1           0       -1.043525   -2.858473    2.451706
     30          1           0       -5.401790   -0.372805    2.695164
     31          1           0       -7.167060    1.150803    1.800769
     32          1           0       -6.928656    2.160559   -0.448759
     33          1           0       -4.940255    1.680178   -1.850782
     34          1           0        3.122276    1.836973    1.008516
 ---------------------------------------------------------------------

 SCF Done:  E(RB3LYP) =  -2071.22799049     A.U. after   15 cycles

 Excitation energies and oscillator strengths:

 Excited state symmetry could not be determined.
 Excited State   1:      Triplet-?Sym    2.4441 eV  507.29 nm  f=0.0000  <S**2>=2.000
      93 -> 95         0.11777
      94 -> 95         0.66903
 This state for optimization and/or second-order correction.
 Total Energy, E(TD-HF/TD-DFT) =  -2071.13817303
 Copying the excited state density for this state as the 1-particle RhoCI density.

 Excited state symmetry could not be determined.
 Excited State   2:      Triplet-?Sym    3.2835 eV  377.60 nm  f=0.0000  <S**2>=2.000
      91 -> 96         0.20719
      91 -> 98        -0.24412
      93 -> 96         0.57715
      94 -> 96        -0.15575

 Excited state symmetry could not be determined.
 Excited State   3:      Singlet-?Sym    3.7434 eV  331.20 nm  f=0.4752  <S**2>=0.000
      93 -> 95        -0.36565
      94 -> 95         0.58979

 Excited state symmetry could not be determined.
 Excited State   4:      Singlet-?Sym    3.9026 eV  317.70 nm  f=0.4014  <S**2>=0.000
      92 -> 95         0.13982
      93 -> 95         0.58717
      94 -> 95         0.34833

 Alpha  occ. eigenvalues --  -88.91993 -88.91903 -88.91427 -19.23548 -14.34340
 Alpha  occ. eigenvalues --  -14.34074 -10.28850 -10.27973 -10.27053 -10.26638
 Alpha  occ. eigenvalues --  -10.23158 -10.23067 -10.22860 -10.22744 -10.21214
 Alpha  occ. eigenvalues --  -10.20693 -10.20638 -10.20455 -10.19933 -10.19879
 Alpha  occ. eigenvalues --  -10.19771 -10.19689 -10.19676 -10.19606  -7.98031
 Alpha  occ. eigenvalues --   -7.98030  -7.97528  -5.94585  -5.94462  -5.94131
 Alpha  occ. eigenvalues --   -5.94117  -5.93943  -5.93644  -5.93603  -5.93515
 Alpha  occ. eigenvalues --   -5.93172  -1.13233  -0.97565  -0.97035  -0.85894
 Alpha  occ. eigenvalues --   -0.85497  -0.83084  -0.81774  -0.80633  -0.80163
 Alpha  occ. eigenvalues --   -0.77085  -0.74604  -0.74198  -0.73020  -0.70666
 Alpha  occ. eigenvalues --   -0.64152  -0.62529  -0.61575  -0.60384  -0.59864
 Alpha  occ. eigenvalues --   -0.59066  -0.56844  -0.56560  -0.52158  -0.49574
 Alpha  occ. eigenvalues --   -0.49287  -0.49084  -0.48735  -0.48458  -0.47182
 Alpha  occ. eigenvalues --   -0.45130  -0.44484  -0.44319  -0.43861  -0.43040
 Alpha  occ. eigenvalues --   -0.42429  -0.41271  -0.41026  -0.40437  -0.40208
 Alpha  occ. eigenvalues --   -0.39284  -0.37909  -0.37130  -0.36695  -0.35790
 Alpha  occ. eigenvalues --   -0.35040  -0.34546  -0.34163  -0.30684  -0.30512
 Alpha  occ. eigenvalues --   -0.29723  -0.29026  -0.28428  -0.28204  -0.27038
 Alpha  occ. eigenvalues --   -0.23902  -0.23657  -0.22961  -0.21789
 Alpha virt. eigenvalues --   -0.06720  -0.03582  -0.01421  -0.00861  -0.00676
 Alpha virt. eigenvalues --    0.00824   0.01179   0.02518   0.02974   0.03448
 Alpha virt. eigenvalues --    0.06788   0.08150   0.09357   0.10567   0.10634

 Mulliken charges:
               1
     1  C   -0.148090
     2  C   -0.118010
     3  C   -0.175433
     4  C   -0.136573
     5  S    0.237527
     6  C   -0.089773
     7  S    0.220732
     8  C    0.131762
     9  C   -0.169571
    10  C   -0.164325
    11  C    0.343372
    12  C    0.025767
    13  N   -0.504272
    14  C    0.296934
    15  C   -0.147740
    16  C   -0.147667
    17  C   -0.117772
    18  C   -0.184318
    19  C   -0.125674
    20  S    0.248848
    21  O   -0.442881
    22  N   -0.445110
    23  C    0.280031
    24  C   -0.139815
    25  H    0.136618
    26  H    0.135887
    27  H    0.146455
    28  H    0.168077
    29  H    0.172230
    30  H    0.145531
    31  H    0.135745
    32  H    0.135775
    33  H    0.146819
    34  H    0.148913
 Sum of Mulliken charges =  -0.00000

 Dipole moment (field-independent basis, Debye):
    X=              0.3171    Y=              1.0689    Z=              0.3902  Tot=              1.1813
 Quadrupole moment (field-independent basis, Debye-Ang):
   XX=           -134.0440   YY=           -147.2706   ZZ=           -151.7282
   XY=             -0.7309   XZ=             -2.9406   YZ=             -4.6327

 Normal termination of Gaussian 16 at Sat Nov  5 09:58:33 2022.
