 Gaussian 16, Revision B.01,
 Gaussian 16:  ES64L-G16RevB.01 20-Dec-2017

 -----------------------------
 #p b3lyp/6-31g(d) opt SCF=XQC
 -----------------------------

 ------------------------------
 Gaussian input prepared by ASE
 ------------------------------
 Symbolic Z-matrix:
 Charge =  0 Multiplicity = 1

 SCF Done:  E(RB3LYP) =  -1010.62163973     A.U. after   17 cycles
 SCF Done:  E(RB3LYP) =  -1010.62210352     A.U. after   15 cycles
 SCF Done:  E(RB3LYP) =  -1010.62653255     A.U. after   15 cycles
 SCF Done:  E(RB3LYP) =  -1010.62785014     A.U. after   12 cycles
 SCF Done:  E(RB3LYP) =  -1010.62812545     A.U. after   12 cycles
 SCF Done:  E(RB3LYP) =  -1010.62827817     A.U. after   12 cycles
 SCF Done:  E(RB3LYP) =  -1010.62836892     A.U. after   12 cycles
 SCF Done:  E(RB3LYP) =  -1010.62841629     A.U. after   11 cycles
 SCF Done:  E(RB3LYP) =  -1010.62843892     A.U. after   10 cycles
 SCF Done:  E(RB3LYP) =  -1010.62844480     A.U. after   10 cycles
 SCF Done:  E(RB3LYP) =  -1010.62844697     A.U. after    8 cycles
 SCF Done:  E(RB3LYP) =  -1010.62844845     A.U. after    8 cycles
 SCF Done:  E(RB3LYP) =  -1010.62844921     A.U. after    8 cycles
 SCF Done:  E(RB3LYP) =  -1010.62844951     A.U. after    8 cycles
 Optimization completed.
    -- Stationary point found.

                         Standard orientation:
 ---------------------------------------------------------------------
 Center     Atomic      Atomic             Coordinates (Angstroms)
 Number     Number       Type             X           Y           Z
 ---------------------------------------------------------------------
      1          8           0        2.340955   -2.428873   -0.829689
      2          6           0        2.843177   -1.373957   -0.391038
      3          6           0        4.288071   -1.359269   -0.136767
      4          6           0        5.135075   -0.353423    0.223013
      5          6           0        4.880762    1.029450    0.498958
      6          6           0        3.677781    1.674754    0.501361
      7          6           0        2.408120    1.103855    0.222864
      8          7           0        1.269375    1.858132    0.294967
      9          6           0        0.144474    1.127576   -0.059114
     10          6           0       -1.148505    1.786371   -0.193510
     11          6           0       -2.147357    1.290469   -1.050318
     12          6           0       -3.341277    1.995001   -1.178349
     13          7           0       -3.621972    3.134840   -0.531062
     14          6           0       -2.671821    3.601521    0.289067
     15          6           0       -1.443053    2.980053    0.492859
     16          6           0        0.579977   -0.184808   -0.297836
     17          7           0       -0.149237   -1.307425   -0.662306
     18          6           0       -1.332387   -1.788918   -0.064942
     19          6           0       -1.924723   -2.927733   -0.640427
     20          6           0       -3.080274   -3.477074   -0.094379
     21          6           0       -3.679652   -2.899186    1.028339
     22          6           0       -3.094892   -1.769795    1.600256
     23          6           0       -1.930266   -1.215752    1.067078
     24          6           0        2.009481   -0.202483   -0.147273
     25          1           0        4.722722   -2.341819   -0.304752
     26          1           0        6.181788   -0.639776    0.312940
     27          1           0        5.754567    1.627692    0.743762
     28          1           0        3.675572    2.734596    0.752543
     29          1           0        1.266183    2.861050    0.408236
     30          1           0       -1.985733    0.383411   -1.620291
     31          1           0       -4.117579    1.621987   -1.844191
     32          1           0       -2.908236    4.522154    0.820842
     33          1           0       -0.743784    3.407848    1.206945
     34          1           0        0.493458   -2.042720   -0.966307
     35          1           0       -1.466662   -3.373444   -1.519998
     36          1           0       -3.517765   -4.359986   -0.553338
     37          1           0       -4.586605   -3.323545    1.449039
     38          1           0       -3.541649   -1.311631    2.479037
     39          1           0       -1.477345   -0.353582    1.542819
 ---------------------------------------------------------------------

 The electronic state is 1-A.
 Alpha  occ. eigenvalues --  -19.11896 -14.40701 -14.34880 -14.32862 -10.27067
 Alpha  occ. eigenvalues --  -10.25487 -10.24223 -10.23991 -10.22768 -10.22759
 Alpha  occ. eigenvalues --  -10.22563 -10.22472 -10.22228 -10.21929 -10.21764
 Alpha  occ. eigenvalues --  -10.20639 -10.20623 -10.20440 -10.19885 -10.18256
 Alpha  occ. eigenvalues --  -10.18253 -10.17892 -10.17863 -10.17552  -1.02026
 Alpha  occ. eigenvalues --   -1.00938  -0.94002  -0.93854  -0.84879  -0.83916
 Alpha  occ. eigenvalues --   -0.82445  -0.79780  -0.77850  -0.76289  -0.74574
 Alpha  occ. eigenvalues --   -0.73635  -0.72228  -0.67571  -0.65950  -0.63372
 Alpha  occ. eigenvalues --   -0.62993  -0.62060  -0.60176  -0.57475  -0.56843
 Alpha  occ. eigenvalues --   -0.55287  -0.52243  -0.52133  -0.51509  -0.49142
 Alpha  occ. eigenvalues --   -0.48325  -0.48082  -0.47536  -0.46782  -0.45386
 Alpha  occ. eigenvalues --   -0.44933  -0.43785  -0.43075  -0.42988  -0.42523
 Alpha  occ. eigenvalues --   -0.41234  -0.40906  -0.40647  -0.39956  -0.39040
 Alpha  occ. eigenvalues --   -0.38609  -0.37779  -0.36678  -0.35994  -0.35122
 Alpha  occ. eigenvalues --   -0.34892  -0.33656  -0.32002  -0.30598  -0.26807
 Alpha  occ. eigenvalues --   -0.26618  -0.25791  -0.25538  -0.24858  -0.24096
 Alpha  occ. eigenvalues --   -0.22079  -0.18598
 Alpha virt. eigenvalues --   -0.08150  -0.04070  -0.03243  -0.01434   0.00944
 Alpha virt. eigenvalues --    0.01866   0.05217   0.06497   0.07307   0.10222
 Alpha virt. eigenvalues --    0.10671   0.11194   0.11951   0.13716   0.13984

 Mulliken charges:
               1
     1  O   -0.558968
     2  C    0.424036
     3  C   -0.185354
     4  C   -0.117538
     5  C   -0.134598
     6  C   -0.173303
     7  C    0.328150
     8  N   -0.743863
     9  C    0.278697
    10  C    0.134551
    11  C   -0.169536
    12  C    0.032617
    13  N   -0.410190
    14  C    0.039344
    15  C   -0.203042
    16  C    0.225607
    17  N   -0.814385
    18  C    0.307102
    19  C   -0.181761
    20  C   -0.135220
    21  C   -0.132242
    22  C   -0.142193
    23  C   -0.156975
    24  C   -0.025015
    25  H    0.155087
    26  H    0.146573
    27  H    0.142614
    28  H    0.138715
    29  H    0.336384
    30  H    0.170235
    31  H    0.146988
    32  H    0.139899
    33  H    0.122217
    34  H    0.373516
    35  H    0.132450
    36  H    0.127884
    37  H    0.123224
    38  H    0.127541
    39  H    0.130752
 Sum of Mulliken charges =  -0.00000

 Dipole moment (field-independent basis, Debye):
    X=              3.7197    Y=              3.3497    Z=              1.5445  Tot=              5.2386
 Quadrupole moment (field-independent basis, Debye-Ang):
   XX=           -128.5392   YY=           -134.0793   ZZ=           -136.5640
   XY=             18.9781   XZ=              2.6365   YZ=              6.3597

 Normal termination of Gaussian 16 at Fri Nov  4 23:18:03 2022.
