 Gaussian 16, Revision B.01,
 Gaussian 16:  ES64L-G16RevB.01 20-Dec-2017

 -------------------------------------------------------------------
 #p b3lyp/6-31g(d) 6D 10F nosymm GFInput td=(50-50,nstate=2) SCF=XQC
 -------------------------------------------------------------------

 ------------------------------
 Gaussian input prepared by ASE
 ------------------------------
 Symbolic Z-matrix:
 Charge =  0 Multiplicity = 1

                          Input orientation:
 ---------------------------------------------------------------------
 Center     Atomic      Atomic             Coordinates (Angstroms)
 Number     Number       Type             X           Y           Z
 ---------------------------------------------------------------------
      1          8           0        0.462689    3.423830   -0.702312
      2          6           0       -0.551200    3.192478   -0.012390
      3          6           0       -1.269575    4.340178    0.552685
      4          6           0       -2.446635    4.426352    1.235099
      5          6           0       -3.363553    3.406596    1.650450
      6          6           0       -3.245395    2.056812    1.483993
      7          6           0       -2.175697    1.370304    0.851552
      8          7           0       -2.162849    0.004306    0.782594
      9          6           0       -1.059472   -0.465791    0.085418
     10          6           0       -0.938003   -1.883242   -0.230726
     11          6           0       -0.215498   -2.333565   -1.350074
     12          6           0       -0.182235   -3.696609   -1.631511
     13          7           0       -0.796868   -4.636879   -0.899990
     14          6           0       -1.478807   -4.206157    0.168948
     15          6           0       -1.579261   -2.869256    0.543420
     16          6           0       -0.286931    0.658415   -0.243740
     17          7           0        0.920869    0.735246   -0.922102
     18          6           0        2.087621   -0.018092   -0.677773
     19          6           0        3.183765    0.200751   -1.531893
     20          6           0        4.378159   -0.486445   -1.341041
     21          6           0        4.505334   -1.415594   -0.304597
     22          6           0        3.419979   -1.634930    0.543018
     23          6           0        2.220112   -0.944257    0.367268
     24          6           0       -0.996419    1.822174    0.213156
     25          1           0       -0.746353    5.269564    0.340490
     26          1           0       -2.749663    5.435599    1.509483
     27          1           0       -4.252995    3.757309    2.167413
     28          1           0       -4.040922    1.428865    1.882969
     29          1           0       -2.945679   -0.578479    1.039935
     30          1           0        0.292975   -1.630359   -1.998690
     31          1           0        0.369264   -4.053638   -2.499560
     32          1           0       -1.967868   -4.974420    0.766301
     33          1           0       -2.122262   -2.611064    1.449174
     34          1           0        1.099606    1.707932   -1.182998
     35          1           0        3.084569    0.915280   -2.345362
     36          1           0        5.213270   -0.297737   -2.010783
     37          1           0        5.435328   -1.958028   -0.161387
     38          1           0        3.502877   -2.347203    1.360060
     39          1           0        1.397721   -1.110248    1.053506
 ---------------------------------------------------------------------

 SCF Done:  E(RB3LYP) =  -1010.62844360     A.U. after   17 cycles

 Excitation energies and oscillator strengths:

 Excited state symmetry could not be determined.
 Excited State   1:      Triplet-?Sym    1.7177 eV  721.80 nm  f=0.0000  <S**2>=2.000
      81 -> 83        -0.28129
      82 -> 83         0.63250
 This state for optimization and/or second-order correction.
 Total Energy, E(TD-HF/TD-DFT) =  -1010.56531905
 Copying the excited state density for this state as the 1-particle RhoCI density.

 Excited state symmetry could not be determined.
 Excited State   2:      Singlet-?Sym    2.3820 eV  520.50 nm  f=0.0733  <S**2>=0.000
      82 -> 83         0.69468

 Excited state symmetry could not be determined.
 Excited State   3:      Triplet-?Sym    2.5386 eV  488.40 nm  f=0.0000  <S**2>=2.000
      75 -> 83        -0.11473
      76 -> 83         0.10850
      77 -> 83        -0.17310
      78 -> 83         0.10213
      81 -> 83         0.55201
      82 -> 83         0.28928
      82 -> 85         0.12809

 Excited state symmetry could not be determined.
 Excited State   4:      Singlet-?Sym    3.2557 eV  380.82 nm  f=0.0314  <S**2>=0.000
      81 -> 83         0.46479
      82 -> 84         0.51739

 Alpha  occ. eigenvalues --  -19.11896 -14.40701 -14.34880 -14.32862 -10.27067
 Alpha  occ. eigenvalues --  -10.25487 -10.24223 -10.23991 -10.22768 -10.22759
 Alpha  occ. eigenvalues --  -10.22563 -10.22472 -10.22228 -10.21929 -10.21764
 Alpha  occ. eigenvalues --  -10.20639 -10.20623 -10.20440 -10.19885 -10.18256
 Alpha  occ. eigenvalues --  -10.18253 -10.17892 -10.17863 -10.17552  -1.02026
 Alpha  occ. eigenvalues --   -1.00938  -0.94002  -0.93854  -0.84879  -0.83915
 Alpha  occ. eigenvalues --   -0.82445  -0.79779  -0.77850  -0.76289  -0.74574
 Alpha  occ. eigenvalues --   -0.73635  -0.72228  -0.67571  -0.65950  -0.63372
 Alpha  occ. eigenvalues --   -0.62993  -0.62060  -0.60176  -0.57475  -0.56843
 Alpha  occ. eigenvalues --   -0.55286  -0.52242  -0.52133  -0.51509  -0.49142
 Alpha  occ. eigenvalues --   -0.48325  -0.48082  -0.47536  -0.46782  -0.45386
 Alpha  occ. eigenvalues --   -0.44933  -0.43785  -0.43075  -0.42988  -0.42523
 Alpha  occ. eigenvalues --   -0.41234  -0.40906  -0.40647  -0.39956  -0.39040
 Alpha  occ. eigenvalues --   -0.38609  -0.37779  -0.36678  -0.35994  -0.35122
 Alpha  occ. eigenvalues --   -0.34892  -0.33656  -0.32002  -0.30598  -0.26807
 Alpha  occ. eigenvalues --   -0.26618  -0.25791  -0.25538  -0.24858  -0.24096
 Alpha  occ. eigenvalues --   -0.22079  -0.18598
 Alpha virt. eigenvalues --   -0.08150  -0.04070  -0.03243  -0.01434   0.00944
 Alpha virt. eigenvalues --    0.01866   0.05217   0.06497   0.07307   0.10222
 Alpha virt. eigenvalues --    0.10671   0.11194   0.11951   0.13716   0.13984

 Mulliken charges:
               1
     1  O   -0.558968
     2  C    0.424024
     3  C   -0.185342
     4  C   -0.117545
     5  C   -0.134592
     6  C   -0.173304
     7  C    0.328133
     8  N   -0.743870
     9  C    0.278705
    10  C    0.134527
    11  C   -0.169506
    12  C    0.032603
    13  N   -0.410188
    14  C    0.039342
    15  C   -0.203037
    16  C    0.225599
    17  N   -0.814387
    18  C    0.307143
    19  C   -0.181782
    20  C   -0.135200
    21  C   -0.132262
    22  C   -0.142160
    23  C   -0.157011
    24  C   -0.024988
    25  H    0.155085
    26  H    0.146572
    27  H    0.142614
    28  H    0.138716
    29  H    0.336384
    30  H    0.170229
    31  H    0.146989
    32  H    0.139899
    33  H    0.122217
    34  H    0.373516
    35  H    0.132451
    36  H    0.127882
    37  H    0.123223
    38  H    0.127538
    39  H    0.130751
 Sum of Mulliken charges =  -0.00000

 Dipole moment (field-independent basis, Debye):
    X=             -4.3132    Y=              0.9876    Z=              2.8042  Tot=              5.2386
 Quadrupole moment (field-independent basis, Debye-Ang):
   XX=           -119.0504   YY=           -147.6178   ZZ=           -132.2626
   XY=             -9.1643   XZ=            -11.9713   YZ=             -0.2990

 Normal termination of Gaussian 16 at Sat Nov  5 09:55:10 2022.
