 Gaussian 16, Revision B.01,
 Gaussian 16:  ES64L-G16RevB.01 20-Dec-2017

 -------------------------------------------------------------------
 #p b3lyp/6-31g(d) 6D 10F nosymm GFInput td=(50-50,nstate=2) SCF=XQC
 -------------------------------------------------------------------

 ------------------------------
 Gaussian input prepared by ASE
 ------------------------------
 Symbolic Z-matrix:
 Charge =  0 Multiplicity = 1

                          Input orientation:
 ---------------------------------------------------------------------
 Center     Atomic      Atomic             Coordinates (Angstroms)
 Number     Number       Type             X           Y           Z
 ---------------------------------------------------------------------
      1          6           0       -4.400866   -1.626635   -4.398051
      2          6           0       -3.572809   -2.627096   -3.876896
      3          6           0       -3.544813   -2.882859   -2.501619
      4          6           0       -4.353529   -2.126646   -1.661878
      5          6           0       -5.189214   -1.120572   -2.182908
      6          6           0       -5.215057   -0.866428   -3.555789
      7          6           0       -5.923860   -0.498383   -1.072575
      8          6           0       -6.866837    0.531496   -1.060297
      9          6           0       -7.417934    0.927162    0.160375
     10          6           0       -7.033198    0.302894    1.352184
     11          6           0       -6.088000   -0.728653    1.342213
     12          6           0       -5.538008   -1.123145    0.128626
     13          6           0       -4.497647   -2.215558   -0.139237
     14          6           0       -4.914762   -3.602233    0.362766
     15          6           0       -6.041467   -4.342023    0.026675
     16          6           0       -6.224832   -5.599574    0.613022
     17          6           0       -5.287843   -6.103428    1.521884
     18          6           0       -4.153556   -5.362137    1.860477
     19          6           0       -3.968886   -4.106322    1.277128
     20          6           0       -2.896355   -3.117903    1.432965
     21          6           0       -1.735077   -3.122181    2.208312
     22          6           0       -0.875097   -2.026878    2.166023
     23          6           0       -1.149475   -0.921228    1.337107
     24          7           0       -0.276435    0.198345    1.286431
     25          6           0        1.120482    0.052107    1.486295
     26          6           0        1.817152   -1.030979    0.922365
     27          6           0        3.188579   -1.167367    1.105565
     28          6           0        3.926916   -0.222820    1.838401
     29          6           0        5.388322   -0.367500    2.064139
     30          6           0        5.919820   -0.206044    3.351847
     31          6           0        7.290346   -0.326826    3.609861
     32          6           0        8.179148   -0.612521    2.581335
     33          6           0        7.692736   -0.775263    1.276397
     34          6           0        6.304450   -0.653821    1.033246
     35         16           0        5.916276   -0.840799   -0.687334
     36          6           0        7.617890   -1.099821   -1.078519
     37          6           0        8.140259   -1.342629   -2.351368
     38          6           0        9.514095   -1.526431   -2.483020
     39          6           0       10.355091   -1.469947   -1.360369
     40          6           0        9.829981   -1.228574   -0.095881
     41          6           0        8.448189   -1.040383    0.061796
     42          6           0        3.224042    0.859976    2.389860
     43          6           0        1.849332    0.997454    2.225502
     44          6           0       -0.846121    1.515032    1.333715
     45          6           0       -1.704766    1.781740    2.397566
     46          6           0       -2.234109    3.057289    2.585686
     47          6           0       -1.818403    4.089168    1.764708
     48          6           0       -0.926911    3.867837    0.694792
     49          6           0       -0.381692    5.001474   -0.064475
     50          6           0       -0.615901    6.338099    0.330962
     51          6           0       -0.032504    7.407129   -0.326226
     52          6           0        0.829959    7.171360   -1.404524
     53          6           0        1.072272    5.872075   -1.813551
     54          6           0        0.466310    4.766662   -1.176349
     55          6           0        0.661856    3.396203   -1.653435
     56          6           0        1.276219    3.147853   -2.900006
     57          6           0        1.405987    1.869008   -3.410597
     58          6           0        0.892841    0.788191   -2.686120
     59          6           0        0.292716    1.002946   -1.457473
     60          6           0        0.179538    2.294412   -0.890894
     61          6           0       -0.513485    2.535464    0.386995
     62          6           0       -2.323251   -0.919030    0.557620
     63          6           0       -3.180499   -2.006290    0.617404
     64          1           0       -4.410609   -1.439267   -5.468495
     65          1           0       -2.946193   -3.210965   -4.545750
     66          1           0       -2.902136   -3.661141   -2.098497
     67          1           0       -5.856316   -0.090485   -3.966076
     68          1           0       -7.169579    1.019691   -1.983152
     69          1           0       -8.152960    1.727327    0.184578
     70          1           0       -7.472507    0.621245    2.293788
     71          1           0       -5.791394   -1.213704    2.268497
     72          1           0       -6.769620   -3.951894   -0.679589
     73          1           0       -7.101971   -6.188853    0.359750
     74          1           0       -5.443578   -7.081860    1.968715
     75          1           0       -3.428539   -5.759917    2.566148
     76          1           0       -1.501133   -3.962065    2.857654
     77          1           0        0.018757   -2.020747    2.780209
     78          1           0        1.277426   -1.775340    0.346383
     79          1           0        3.691375   -2.029311    0.677330
     80          1           0        5.236501   -0.002647    4.171457
     81          1           0        7.657128   -0.200838    4.624685
     82          1           0        9.243031   -0.703248    2.782408
     83          1           0        7.489544   -1.386361   -3.220024
     84          1           0        9.937137   -1.715558   -3.465784
     85          1           0       11.424790   -1.616148   -1.480937
     86          1           0       10.487194   -1.186717    0.768676
     87          1           0        3.766204    1.614791    2.952823
     88          1           0        1.338336    1.845978    2.666946
     89          1           0       -1.941735    0.977490    3.086682
     90          1           0       -2.924414    3.248854    3.402204
     91          1           0       -2.197295    5.085442    1.955382
     92          1           0       -1.243558    6.548952    1.188345
     93          1           0       -0.229642    8.421544    0.009407
     94          1           0        1.314578    8.000014   -1.913488
     95          1           0        1.760909    5.709565   -2.634375
     96          1           0        1.627307    3.979348   -3.499489
     97          1           0        1.878868    1.714106   -4.376533
     98          1           0        0.949319   -0.220283   -3.086254
     99          1           0       -0.124478    0.156638   -0.934666
    100          1           0       -2.548352   -0.068088   -0.078025
 ---------------------------------------------------------------------

 SCF Done:  E(RB3LYP) =  -2799.81157611     A.U. after   16 cycles

 Excitation energies and oscillator strengths:

 Excited state symmetry could not be determined.
 Excited State   1:      Triplet-?Sym    2.6429 eV  469.12 nm  f=0.0000  <S**2>=2.000
     209 -> 214        0.14083
     209 -> 218       -0.11147
     210 -> 215       -0.17898
     210 -> 216       -0.11204
     213 -> 214        0.48390
     213 -> 216        0.18933
     213 -> 218        0.17529
 This state for optimization and/or second-order correction.
 Total Energy, E(TD-HF/TD-DFT) =  -2799.71445049
 Copying the excited state density for this state as the 1-particle RhoCI density.

 Excited state symmetry could not be determined.
 Excited State   2:      Triplet-?Sym    2.7232 eV  455.29 nm  f=0.0000  <S**2>=2.000
     209 -> 214       -0.18747
     210 -> 215        0.16712
     210 -> 216        0.12011
     213 -> 215       -0.28668
     213 -> 216        0.32884
     213 -> 218        0.30711
     213 -> 219        0.12100

 Excited state symmetry could not be determined.
 Excited State   3:      Singlet-?Sym    3.2326 eV  383.54 nm  f=0.1436  <S**2>=0.000
     213 -> 214        0.67358
     213 -> 216       -0.16453

 Excited state symmetry could not be determined.
 Excited State   4:      Singlet-?Sym    3.3125 eV  374.29 nm  f=0.0322  <S**2>=0.000
     213 -> 215        0.63303
     213 -> 216        0.26719

 Alpha  occ. eigenvalues --  -88.89578 -14.36494 -10.23171 -10.23086 -10.22908
 Alpha  occ. eigenvalues --  -10.22089 -10.21929 -10.21307 -10.20682 -10.20396
 Alpha  occ. eigenvalues --  -10.20353 -10.19996 -10.19936 -10.19903 -10.19841
 Alpha  occ. eigenvalues --  -10.19840 -10.19689 -10.19559 -10.19548 -10.19427
 Alpha  occ. eigenvalues --  -10.19342 -10.19261 -10.19257 -10.19246 -10.19234
 Alpha  occ. eigenvalues --  -10.19204 -10.19180 -10.19179 -10.19173 -10.19152
 Alpha  occ. eigenvalues --  -10.19151 -10.18983 -10.18968 -10.18959 -10.18938
 Alpha  occ. eigenvalues --  -10.18935 -10.18921 -10.18890 -10.18889 -10.18875
 Alpha  occ. eigenvalues --  -10.18866 -10.18846 -10.18843 -10.18841 -10.18834
 Alpha  occ. eigenvalues --  -10.18823 -10.18822 -10.18815 -10.18790 -10.18772
 Alpha  occ. eigenvalues --  -10.18766 -10.18761 -10.18753 -10.18741 -10.18725
 Alpha  occ. eigenvalues --  -10.18691 -10.18636 -10.18612 -10.18509 -10.18489
 Alpha  occ. eigenvalues --  -10.18392 -10.18258 -10.18004  -7.95632  -5.92089
 Alpha  occ. eigenvalues --   -5.91732  -5.91227  -0.96510  -0.89925  -0.89333
 Alpha  occ. eigenvalues --   -0.88189  -0.86964  -0.85873  -0.84790  -0.84404
 Alpha  occ. eigenvalues --   -0.84311  -0.84050  -0.83336  -0.80586  -0.80508
 Alpha  occ. eigenvalues --   -0.78814  -0.78464  -0.78049  -0.76902  -0.76764
 Alpha  occ. eigenvalues --   -0.76334  -0.75441  -0.74569  -0.74452  -0.74075
 Alpha  occ. eigenvalues --   -0.73955  -0.73154  -0.72502  -0.71814  -0.71669
 Alpha  occ. eigenvalues --   -0.71550  -0.71115  -0.70253  -0.69071  -0.68074
 Alpha  occ. eigenvalues --   -0.64444  -0.63906  -0.63342  -0.62661  -0.62593
 Alpha  occ. eigenvalues --   -0.62110  -0.61462  -0.61247  -0.59900  -0.58756
 Alpha  occ. eigenvalues --   -0.58618  -0.58466  -0.58163  -0.58122  -0.57872
 Alpha  occ. eigenvalues --   -0.57242  -0.57072  -0.56676  -0.55791  -0.55097
 Alpha  occ. eigenvalues --   -0.53813  -0.52649  -0.51980  -0.51145  -0.50838
 Alpha  occ. eigenvalues --   -0.50362  -0.49633  -0.49410  -0.49090  -0.48490
 Alpha  occ. eigenvalues --   -0.48324  -0.47814  -0.47547  -0.47121  -0.46486
 Alpha  occ. eigenvalues --   -0.46116  -0.45804  -0.45399  -0.45067  -0.44507
 Alpha  occ. eigenvalues --   -0.44158  -0.43965  -0.43916  -0.43666  -0.43487
 Alpha  occ. eigenvalues --   -0.43179  -0.42939  -0.42883  -0.42594  -0.42564
 Alpha  occ. eigenvalues --   -0.42495  -0.41979  -0.41862  -0.41704  -0.41658
 Alpha  occ. eigenvalues --   -0.41574  -0.41433  -0.41199  -0.41141  -0.40322
 Alpha  occ. eigenvalues --   -0.40081  -0.39834  -0.39312  -0.38473  -0.38149
 Alpha  occ. eigenvalues --   -0.37997  -0.37475  -0.37426  -0.36901  -0.36485
 Alpha  occ. eigenvalues --   -0.36229  -0.36153  -0.35978  -0.35849  -0.35779
 Alpha  occ. eigenvalues --   -0.35533  -0.35466  -0.35063  -0.35044  -0.34834
 Alpha  occ. eigenvalues --   -0.34717  -0.34475  -0.34010  -0.33673  -0.33532
 Alpha  occ. eigenvalues --   -0.33384  -0.33250  -0.32773  -0.32390  -0.32237
 Alpha  occ. eigenvalues --   -0.31983  -0.30820  -0.30220  -0.29026  -0.28577
 Alpha  occ. eigenvalues --   -0.27965  -0.27909  -0.27499  -0.26914  -0.26225
 Alpha  occ. eigenvalues --   -0.25431  -0.24934  -0.24438  -0.24257  -0.23809
 Alpha  occ. eigenvalues --   -0.23369  -0.22732  -0.21876  -0.21582  -0.21377
 Alpha  occ. eigenvalues --   -0.21029  -0.20687  -0.17918
 Alpha virt. eigenvalues --   -0.03864  -0.03727  -0.03629  -0.02858  -0.02773
 Alpha virt. eigenvalues --   -0.02484  -0.01524  -0.01146  -0.00925  -0.00164
 Alpha virt. eigenvalues --    0.00070   0.00447   0.01742   0.01775   0.03062

 Mulliken charges:
               1
     1  C   -0.134082
     2  C   -0.135967
     3  C   -0.188078
     4  C    0.125915
     5  C    0.066404
     6  C   -0.188864
     7  C    0.066424
     8  C   -0.188916
     9  C   -0.134540
    10  C   -0.135700
    11  C   -0.187609
    12  C    0.127559
    13  C   -0.274166
    14  C    0.123294
    15  C   -0.188961
    16  C   -0.136924
    17  C   -0.135105
    18  C   -0.193235
    19  C    0.068626
    20  C    0.069923
    21  C   -0.203777
    22  C   -0.192021
    23  C    0.296306
    24  N   -0.672162
    25  C    0.320731
    26  C   -0.168627
    27  C   -0.184385
    28  C    0.071907
    29  C    0.053954
    30  C   -0.157209
    31  C   -0.148255
    32  C   -0.168385
    33  C    0.111729
    34  C   -0.220411
    35  S    0.222126
    36  C   -0.137768
    37  C   -0.186792
    38  C   -0.113966
    39  C   -0.148418
    40  C   -0.164631
    41  C    0.098666
    42  C   -0.180177
    43  C   -0.183660
    44  C    0.159473
    45  C   -0.150478
    46  C   -0.141172
    47  C   -0.191795
    48  C    0.051901
    49  C    0.063578
    50  C   -0.198537
    51  C   -0.131752
    52  C   -0.131932
    53  C   -0.200420
    54  C    0.073008
    55  C    0.066155
    56  C   -0.199659
    57  C   -0.129560
    58  C   -0.134951
    59  C   -0.186941
    60  C    0.067746
    61  C    0.064644
    62  C   -0.245172
    63  C    0.121906
    64  H    0.128814
    65  H    0.128505
    66  H    0.137899
    67  H    0.129931
    68  H    0.129891
    69  H    0.128296
    70  H    0.127790
    71  H    0.137439
    72  H    0.138757
    73  H    0.128439
    74  H    0.127774
    75  H    0.127798
    76  H    0.132612
    77  H    0.146644
    78  H    0.143690
    79  H    0.150995
    80  H    0.132827
    81  H    0.130667
    82  H    0.131707
    83  H    0.140876
    84  H    0.131352
    85  H    0.130553
    86  H    0.132490
    87  H    0.136283
    88  H    0.148150
    89  H    0.143901
    90  H    0.133726
    91  H    0.135846
    92  H    0.132219
    93  H    0.129033
    94  H    0.129762
    95  H    0.136469
    96  H    0.131191
    97  H    0.128001
    98  H    0.128916
    99  H    0.158484
   100  H    0.155461
 Sum of Mulliken charges =  -0.00000

 Dipole moment (field-independent basis, Debye):
    X=             -0.1022    Y=              0.6517    Z=              0.4253  Tot=              0.7849
 Quadrupole moment (field-independent basis, Debye-Ang):
   XX=           -339.1440   YY=           -342.5437   ZZ=           -334.8872
   XY=             -6.5027   XZ=             -4.1122   YZ=              1.5721

 Normal termination of Gaussian 16 at Sat Nov  5 10:36:07 2022.
