 Gaussian 16, Revision B.01,
 Gaussian 16:  ES64L-G16RevB.01 20-Dec-2017

 -----------------------------
 #p b3lyp/6-31g(d) opt SCF=XQC
 -----------------------------

 ------------------------------
 Gaussian input prepared by ASE
 ------------------------------
 Symbolic Z-matrix:
 Charge =  0 Multiplicity = 1

 SCF Done:  E(RB3LYP) =  -2616.97448285     A.U. after   16 cycles
 SCF Done:  E(RB3LYP) =  -2616.98333578     A.U. after   13 cycles
 SCF Done:  E(RB3LYP) =  -2616.98391009     A.U. after   12 cycles
 SCF Done:  E(RB3LYP) =  -2616.98407096     A.U. after   11 cycles
 SCF Done:  E(RB3LYP) =  -2616.98408556     A.U. after   10 cycles
 SCF Done:  E(RB3LYP) =  -2616.98408844     A.U. after    8 cycles
 SCF Done:  E(RB3LYP) =  -2616.98408897     A.U. after    8 cycles
 SCF Done:  E(RB3LYP) =  -2616.98408904     A.U. after    7 cycles
 SCF Done:  E(RB3LYP) =  -2616.98408905     A.U. after    6 cycles
 Optimization completed.
    -- Stationary point found.

                         Standard orientation:
 ---------------------------------------------------------------------
 Center     Atomic      Atomic             Coordinates (Angstroms)
 Number     Number       Type             X           Y           Z
 ---------------------------------------------------------------------
      1          6           0       -5.302374   -6.987227    0.154112
      2          6           0       -3.906968   -6.897038    0.014119
      3          6           0       -3.266878   -5.660053   -0.033277
      4          6           0       -4.042245   -4.497611    0.061528
      5          6           0       -5.437867   -4.621763    0.200776
      6          6           0       -6.095808   -5.842639    0.250342
      7          8           0       -6.046809   -3.391288    0.279342
      8          6           0       -5.037570   -2.459417    0.189302
      9          6           0       -3.767972   -3.071932    0.053656
     10          6           0       -2.560142   -2.336562   -0.054870
     11          6           0       -2.692377   -0.955372   -0.015821
     12          6           0       -3.983066   -0.397608    0.107361
     13          6           0       -5.208061   -1.066234    0.220570
     14          6           0       -6.364211   -0.207832    0.338799
     15          6           0       -6.250191    1.166791    0.342174
     16          6           0       -4.977110    1.847350    0.223715
     17          6           0       -4.669587    3.218573    0.225808
     18          6           0       -3.327769    3.625001    0.119742
     19          6           0       -2.845903    5.001899    0.135947
     20          6           0       -3.589659    6.188476    0.235328
     21          6           0       -2.939966    7.417900    0.238866
     22          6           0       -1.541788    7.486546    0.144465
     23          6           0       -0.781478    6.323950    0.044979
     24          6           0       -1.441140    5.093510    0.041359
     25         16           0       -0.663180    3.510145   -0.078672
     26          6           0       -2.232811    2.700214   -0.004996
     27          6           0       -2.519371    1.335660   -0.030015
     28          6           0       -3.876397    0.987453    0.097188
     29          7           0       -1.783089    0.131557   -0.101502
     30          6           0       -0.384619   -0.007694   -0.311627
     31          6           0        0.383371   -0.773556    0.574400
     32          6           0        1.747202   -0.938684    0.353671
     33          6           0        2.389315   -0.330947   -0.739390
     34          6           0        3.847943   -0.497203   -0.961169
     35          6           0        4.364030   -0.644375   -2.267812
     36          6           0        5.725309   -0.801524   -2.500251
     37          6           0        6.596859   -0.812691   -1.409636
     38         16           0        8.351936   -0.995210   -1.471968
     39          6           0        8.455144   -0.873216    0.289625
     40          6           0        9.624817   -0.934599    1.049888
     41          6           0        9.524815   -0.818812    2.434078
     42          6           0        8.275971   -0.644495    3.050419
     43          6           0        7.114324   -0.584763    2.288702
     44          6           0        7.188755   -0.699119    0.892264
     45          6           0        6.114813   -0.667464   -0.089683
     46          6           0        4.738776   -0.510757    0.117757
     47          6           0        1.604500    0.438388   -1.614262
     48          6           0        0.234387    0.589498   -1.416094
     49          1           0       -5.774699   -7.964875    0.188147
     50          1           0       -3.319144   -7.807673   -0.058447
     51          1           0       -2.187369   -5.600739   -0.142310
     52          1           0       -7.174104   -5.895033    0.358537
     53          1           0       -1.605684   -2.840512   -0.162608
     54          1           0       -7.347395   -0.659636    0.429999
     55          1           0       -7.153294    1.764744    0.438415
     56          1           0       -5.452159    3.966134    0.319562
     57          1           0       -4.672820    6.146918    0.309302
     58          1           0       -3.520481    8.332904    0.315611
     59          1           0       -1.045414    8.452952    0.148450
     60          1           0        0.301137    6.373963   -0.028261
     61          1           0       -0.093928   -1.234638    1.433669
     62          1           0        2.322814   -1.558452    1.035043
     63          1           0        3.678952   -0.662143   -3.110254
     64          1           0        6.098071   -0.922337   -3.513161
     65          1           0       10.591581   -1.069059    0.573545
     66          1           0       10.424881   -0.863968    3.040827
     67          1           0        8.216714   -0.555279    4.131356
     68          1           0        6.150784   -0.449148    2.772709
     69          1           0        4.360790   -0.370279    1.126554
     70          1           0        2.073556    0.936229   -2.457781
     71          1           0       -0.358805    1.170231   -2.115102
 ---------------------------------------------------------------------

 The electronic state is 1-A.
 Alpha  occ. eigenvalues --  -88.90521 -88.90172 -19.20675 -14.39251 -10.24733
 Alpha  occ. eigenvalues --  -10.24446 -10.24202 -10.23882 -10.23251 -10.23026
 Alpha  occ. eigenvalues --  -10.22920 -10.22859 -10.22245 -10.21025 -10.20819
 Alpha  occ. eigenvalues --  -10.20790 -10.20709 -10.20688 -10.20509 -10.20463
 Alpha  occ. eigenvalues --  -10.20344 -10.20277 -10.20263 -10.20237 -10.20231
 Alpha  occ. eigenvalues --  -10.20170 -10.20155 -10.20154 -10.20128 -10.20056
 Alpha  occ. eigenvalues --  -10.20054 -10.20036 -10.19993 -10.19915 -10.19888
 Alpha  occ. eigenvalues --  -10.19793 -10.19640 -10.19605 -10.19523 -10.19486
 Alpha  occ. eigenvalues --  -10.19437 -10.19407 -10.19331 -10.19236 -10.19142
 Alpha  occ. eigenvalues --  -10.18876 -10.18557 -10.18403  -7.96620  -7.96201
 Alpha  occ. eigenvalues --   -5.93073  -5.92723  -5.92667  -5.92306  -5.92209
 Alpha  occ. eigenvalues --   -5.91784  -1.10196  -0.99347  -0.90194  -0.89496
 Alpha  occ. eigenvalues --   -0.88368  -0.86732  -0.85738  -0.85220  -0.84920
 Alpha  occ. eigenvalues --   -0.82364  -0.82000  -0.79678  -0.79413  -0.78107
 Alpha  occ. eigenvalues --   -0.77368  -0.76546  -0.76348  -0.75843  -0.74742
 Alpha  occ. eigenvalues --   -0.74490  -0.73713  -0.72774  -0.72291  -0.70763
 Alpha  occ. eigenvalues --   -0.70440  -0.69333  -0.65819  -0.64862  -0.64094
 Alpha  occ. eigenvalues --   -0.62785  -0.62294  -0.61847  -0.61009  -0.60179
 Alpha  occ. eigenvalues --   -0.59539  -0.59442  -0.58856  -0.58135  -0.57749
 Alpha  occ. eigenvalues --   -0.57328  -0.55234  -0.54042  -0.52636  -0.52125
 Alpha  occ. eigenvalues --   -0.51112  -0.50729  -0.50606  -0.49588  -0.49176
 Alpha  occ. eigenvalues --   -0.48371  -0.47800  -0.47452  -0.46971  -0.46780
 Alpha  occ. eigenvalues --   -0.46294  -0.45712  -0.45374  -0.45116  -0.44781
 Alpha  occ. eigenvalues --   -0.44545  -0.44152  -0.43903  -0.43655  -0.43286
 Alpha  occ. eigenvalues --   -0.42957  -0.42766  -0.42379  -0.41981  -0.41502
 Alpha  occ. eigenvalues --   -0.41338  -0.41229  -0.40990  -0.40219  -0.40020
 Alpha  occ. eigenvalues --   -0.39683  -0.38518  -0.38254  -0.37749  -0.37106
 Alpha  occ. eigenvalues --   -0.36917  -0.36525  -0.36329  -0.36154  -0.35671
 Alpha  occ. eigenvalues --   -0.35467  -0.35434  -0.35015  -0.34657  -0.34549
 Alpha  occ. eigenvalues --   -0.34386  -0.34122  -0.33679  -0.33401  -0.33174
 Alpha  occ. eigenvalues --   -0.32113  -0.31702  -0.30229  -0.29148  -0.28057
 Alpha  occ. eigenvalues --   -0.27505  -0.26763  -0.26314  -0.26045  -0.24432
 Alpha  occ. eigenvalues --   -0.24045  -0.23524  -0.22746  -0.22435  -0.21349
 Alpha  occ. eigenvalues --   -0.19992  -0.18424
 Alpha virt. eigenvalues --   -0.05193  -0.04051  -0.03911  -0.03590  -0.01782
 Alpha virt. eigenvalues --   -0.01445  -0.00654  -0.00127   0.00903   0.01175
 Alpha virt. eigenvalues --    0.01297   0.02609   0.02750   0.03338   0.04439

 Mulliken charges:
               1
     1  C   -0.138088
     2  C   -0.144185
     3  C   -0.192454
     4  C    0.053818
     5  C    0.336441
     6  C   -0.207243
     7  O   -0.554726
     8  C    0.155552
     9  C    0.133602
    10  C   -0.267351
    11  C    0.356256
    12  C   -0.053159
    13  C    0.150513
    14  C   -0.179688
    15  C   -0.216914
    16  C    0.219378
    17  C   -0.321398
    18  C    0.154029
    19  C    0.081986
    20  C   -0.161862
    21  C   -0.148705
    22  C   -0.113393
    23  C   -0.192394
    24  C   -0.131731
    25  S    0.222168
    26  C   -0.230972
    27  C    0.331515
    28  C   -0.060980
    29  N   -0.804160
    30  C    0.265855
    31  C   -0.157539
    32  C   -0.188538
    33  C    0.100444
    34  C    0.073894
    35  C   -0.160300
    36  C   -0.186123
    37  C   -0.143259
    38  S    0.215981
    39  C   -0.145544
    40  C   -0.182363
    41  C   -0.113634
    42  C   -0.147576
    43  C   -0.163853
    44  C    0.107590
    45  C    0.108163
    46  C   -0.221591
    47  C   -0.188088
    48  C   -0.151355
    49  H    0.132324
    50  H    0.129284
    51  H    0.133334
    52  H    0.145650
    53  H    0.146301
    54  H    0.143698
    55  H    0.132877
    56  H    0.131764
    57  H    0.134513
    58  H    0.131775
    59  H    0.132547
    60  H    0.141974
    61  H    0.152234
    62  H    0.139972
    63  H    0.137224
    64  H    0.145289
    65  H    0.143768
    66  H    0.135021
    67  H    0.134244
    68  H    0.135463
    69  H    0.139129
    70  H    0.142926
    71  H    0.160675
 Sum of Mulliken charges =  -0.00000

 Dipole moment (field-independent basis, Debye):
    X=              1.4241    Y=              0.1707    Z=              0.4433  Tot=              1.5013
 Quadrupole moment (field-independent basis, Debye-Ang):
   XX=           -263.9948   YY=           -263.0936   ZZ=           -278.1885
   XY=             -5.1440   XZ=              5.3840   YZ=             -1.6333

 Normal termination of Gaussian 16 at Fri Nov  4 23:42:18 2022.
