 Gaussian 16, Revision B.01,
 Gaussian 16:  ES64L-G16RevB.01 20-Dec-2017

 -----------------------------
 #p b3lyp/6-31g(d) opt SCF=XQC
 -----------------------------

 ------------------------------
 Gaussian input prepared by ASE
 ------------------------------
 Symbolic Z-matrix:
 Charge =  0 Multiplicity = 1

 SCF Done:  E(RB3LYP) =  -2799.78814823     A.U. after   16 cycles
 SCF Done:  E(RB3LYP) =  -2799.80109061     A.U. after   16 cycles
 SCF Done:  E(RB3LYP) =  -2799.80629073     A.U. after   14 cycles
 SCF Done:  E(RB3LYP) =  -2799.81044565     A.U. after   15 cycles
 SCF Done:  E(RB3LYP) =  -2799.81122108     A.U. after   13 cycles
 SCF Done:  E(RB3LYP) =  -2799.81147577     A.U. after   12 cycles
 SCF Done:  E(RB3LYP) =  -2799.81154690     A.U. after   11 cycles
 SCF Done:  E(RB3LYP) =  -2799.81156890     A.U. after   11 cycles
 SCF Done:  E(RB3LYP) =  -2799.81157545     A.U. after   10 cycles
 SCF Done:  E(RB3LYP) =  -2799.81157754     A.U. after   10 cycles
 SCF Done:  E(RB3LYP) =  -2799.81157938     A.U. after   10 cycles
 SCF Done:  E(RB3LYP) =  -2799.81157982     A.U. after   10 cycles
 SCF Done:  E(RB3LYP) =  -2799.81157990     A.U. after    7 cycles
 SCF Done:  E(RB3LYP) =  -2799.81157990     A.U. after    6 cycles
 Optimization completed.
    -- Stationary point found.

                         Standard orientation:
 ---------------------------------------------------------------------
 Center     Atomic      Atomic             Coordinates (Angstroms)
 Number     Number       Type             X           Y           Z
 ---------------------------------------------------------------------
      1          6           0        4.839695   -0.462932    4.419191
      2          6           0        4.125140   -1.612173    4.063018
      3          6           0        4.088615   -2.043610    2.732562
      4          6           0        4.774244   -1.311605    1.770727
      5          6           0        5.495678   -0.155957    2.125744
      6          6           0        5.530195    0.273325    3.454120
      7          6           0        6.116316    0.400685    0.915528
      8          6           0        6.925791    1.524012    0.734168
      9          6           0        7.388770    1.821888   -0.549272
     10          6           0        7.048631    1.009195   -1.636459
     11          6           0        6.237089   -0.116333   -1.457081
     12          6           0        5.774857   -0.413831   -0.180859
     13          6           0        4.883826   -1.577413    0.265918
     14          6           0        5.452298   -2.958361   -0.078587
     15          6           0        6.670157   -3.511544    0.296270
     16          6           0        6.988515   -4.803585   -0.137481
     17          6           0        6.094012   -5.526260   -0.934633
     18          6           0        4.868375   -4.972809   -1.311821
     19          6           0        4.548847   -3.683016   -0.880769
     20          6           0        3.359627   -2.855524   -1.110102
     21          6           0        2.185515   -3.095444   -1.826794
     22          6           0        1.199880   -2.112348   -1.882355
     23          6           0        1.361237   -0.885069   -1.209601
     24          7           0        0.359926    0.121470   -1.259273
     25          6           0       -1.013913   -0.212149   -1.377476
     26          6           0       -1.556503   -1.288250   -0.653567
     27          6           0       -2.905772   -1.607040   -0.757598
     28          6           0       -3.774852   -0.857478   -1.568287
     29          6           0       -5.213613   -1.200449   -1.709478
     30          6           0       -5.798038   -1.268899   -2.982472
     31          6           0       -7.150491   -1.581804   -3.162639
     32          6           0       -7.967513   -1.835656   -2.068340
     33          6           0       -7.427160   -1.771556   -0.776111
     34          6           0       -6.057599   -1.457821   -0.611546
     35         16           0       -5.599672   -1.375846    1.100067
     36          6           0       -7.244859   -1.780541    1.595230
     37          6           0       -7.696478   -1.917825    2.910206
     38          6           0       -9.033200   -2.243234    3.124270
     39          6           0       -9.907070   -2.430234    2.041592
     40          6           0       -9.452314   -2.292970    0.734959
     41          6           0       -8.108991   -1.965641    0.494201
     42          6           0       -3.225709    0.220664   -2.280073
     43          6           0       -1.873864    0.538498   -2.195001
     44          6           0        0.763038    1.478932   -1.494306
     45          6           0        1.551431    1.706017   -2.619939
     46          6           0        1.915447    3.000180   -2.987710
     47          6           0        1.400945    4.072782   -2.283152
     48          6           0        0.574602    3.887304   -1.155668
     49          6           0       -0.082603    5.037001   -0.519146
     50          6           0       -0.024867    6.330090   -1.086931
     51          6           0       -0.715030    7.398598   -0.541917
     52          6           0       -1.510568    7.203384    0.594377
     53          6           0       -1.580505    5.947858    1.171372
     54          6           0       -0.862935    4.848731    0.649675
     55          6           0       -0.875810    3.537329    1.300876
     56          6           0       -1.418783    3.380419    2.594560
     57          6           0       -1.376607    2.171251    3.264728
     58          6           0       -0.756658    1.074263    2.657576
     59          6           0       -0.223189    1.198716    1.386448
     60          6           0       -0.284991    2.411188    0.659952
     61          6           0        0.336001    2.566130   -0.667357
     62          6           0        2.548122   -0.645200   -0.489101
     63          6           0        3.529557   -1.622939   -0.451758
     64          1           0        4.857600   -0.140065    5.456732
     65          1           0        3.594172   -2.174984    4.826061
     66          1           0        3.534289   -2.937162    2.457698
     67          1           0        6.083608    1.165325    3.736439
     68          1           0        7.193376    2.158606    1.575202
     69          1           0        8.019627    2.693058   -0.704822
     70          1           0        7.418251    1.253579   -2.628737
     71          1           0        5.975107   -0.747549   -2.302176
     72          1           0        7.365467   -2.951346    0.915899
     73          1           0        7.938004   -5.248460    0.147696
     74          1           0        6.354947   -6.528791   -1.263397
     75          1           0        4.177127   -5.540098   -1.930053
     76          1           0        2.037056   -4.033239   -2.356210
     77          1           0        0.294492   -2.289967   -2.452408
     78          1           0       -0.913456   -1.884093   -0.014354
     79          1           0       -3.286952   -2.459998   -0.204155
     80          1           0       -5.168760   -1.093437   -3.850388
     81          1           0       -7.559242   -1.630869   -4.168017
     82          1           0       -9.017760   -2.075667   -2.209351
     83          1           0       -7.020323   -1.773160    3.747937
     84          1           0       -9.401258   -2.353175    4.140639
     85          1           0      -10.946969   -2.684330    2.226553
     86          1           0      -10.134566   -2.439719   -0.098189
     87          1           0       -3.872071    0.828185   -2.907565
     88          1           0       -1.483294    1.377511   -2.760240
     89          1           0        1.864660    0.853498   -3.214038
     90          1           0        2.553190    3.165206   -3.851407
     91          1           0        1.649710    5.073931   -2.612235
     92          1           0        0.547180    6.501519   -1.990751
     93          1           0       -0.653010    8.377695   -1.008901
     94          1           0       -2.077703    8.027773    1.017828
     95          1           0       -2.220014    5.812192    2.035667
     96          1           0       -1.851158    4.234882    3.101483
     97          1           0       -1.798776    2.087006    4.262384
     98          1           0       -0.677979    0.125798    3.181541
     99          1           0        0.278805    0.347253    0.954444
    100          1           0        2.686060    0.300691    0.025760
 ---------------------------------------------------------------------

 The electronic state is 1-A.
 Alpha  occ. eigenvalues --  -88.89578 -14.36494 -10.23171 -10.23086 -10.22908
 Alpha  occ. eigenvalues --  -10.22089 -10.21929 -10.21307 -10.20682 -10.20396
 Alpha  occ. eigenvalues --  -10.20353 -10.19996 -10.19936 -10.19903 -10.19841
 Alpha  occ. eigenvalues --  -10.19840 -10.19689 -10.19559 -10.19548 -10.19427
 Alpha  occ. eigenvalues --  -10.19342 -10.19261 -10.19258 -10.19247 -10.19234
 Alpha  occ. eigenvalues --  -10.19204 -10.19180 -10.19179 -10.19174 -10.19152
 Alpha  occ. eigenvalues --  -10.19151 -10.18982 -10.18968 -10.18959 -10.18938
 Alpha  occ. eigenvalues --  -10.18935 -10.18921 -10.18890 -10.18889 -10.18875
 Alpha  occ. eigenvalues --  -10.18866 -10.18846 -10.18843 -10.18841 -10.18834
 Alpha  occ. eigenvalues --  -10.18823 -10.18822 -10.18815 -10.18790 -10.18772
 Alpha  occ. eigenvalues --  -10.18766 -10.18761 -10.18753 -10.18741 -10.18725
 Alpha  occ. eigenvalues --  -10.18691 -10.18636 -10.18612 -10.18510 -10.18489
 Alpha  occ. eigenvalues --  -10.18392 -10.18258 -10.18004  -7.95632  -5.92089
 Alpha  occ. eigenvalues --   -5.91732  -5.91227  -0.96510  -0.89925  -0.89333
 Alpha  occ. eigenvalues --   -0.88189  -0.86963  -0.85873  -0.84790  -0.84404
 Alpha  occ. eigenvalues --   -0.84311  -0.84050  -0.83336  -0.80586  -0.80508
 Alpha  occ. eigenvalues --   -0.78814  -0.78464  -0.78049  -0.76902  -0.76764
 Alpha  occ. eigenvalues --   -0.76334  -0.75441  -0.74569  -0.74452  -0.74075
 Alpha  occ. eigenvalues --   -0.73955  -0.73154  -0.72502  -0.71814  -0.71669
 Alpha  occ. eigenvalues --   -0.71550  -0.71115  -0.70253  -0.69071  -0.68074
 Alpha  occ. eigenvalues --   -0.64444  -0.63906  -0.63342  -0.62661  -0.62593
 Alpha  occ. eigenvalues --   -0.62110  -0.61462  -0.61247  -0.59900  -0.58756
 Alpha  occ. eigenvalues --   -0.58618  -0.58466  -0.58163  -0.58122  -0.57872
 Alpha  occ. eigenvalues --   -0.57242  -0.57072  -0.56676  -0.55791  -0.55097
 Alpha  occ. eigenvalues --   -0.53813  -0.52649  -0.51980  -0.51145  -0.50838
 Alpha  occ. eigenvalues --   -0.50362  -0.49634  -0.49410  -0.49090  -0.48490
 Alpha  occ. eigenvalues --   -0.48324  -0.47814  -0.47547  -0.47121  -0.46486
 Alpha  occ. eigenvalues --   -0.46116  -0.45804  -0.45399  -0.45067  -0.44507
 Alpha  occ. eigenvalues --   -0.44158  -0.43965  -0.43916  -0.43666  -0.43487
 Alpha  occ. eigenvalues --   -0.43179  -0.42939  -0.42883  -0.42594  -0.42564
 Alpha  occ. eigenvalues --   -0.42495  -0.41979  -0.41862  -0.41704  -0.41657
 Alpha  occ. eigenvalues --   -0.41574  -0.41433  -0.41199  -0.41141  -0.40322
 Alpha  occ. eigenvalues --   -0.40081  -0.39834  -0.39312  -0.38473  -0.38149
 Alpha  occ. eigenvalues --   -0.37997  -0.37475  -0.37426  -0.36901  -0.36485
 Alpha  occ. eigenvalues --   -0.36229  -0.36153  -0.35978  -0.35849  -0.35779
 Alpha  occ. eigenvalues --   -0.35533  -0.35466  -0.35063  -0.35044  -0.34834
 Alpha  occ. eigenvalues --   -0.34717  -0.34475  -0.34010  -0.33673  -0.33532
 Alpha  occ. eigenvalues --   -0.33384  -0.33250  -0.32773  -0.32390  -0.32237
 Alpha  occ. eigenvalues --   -0.31983  -0.30821  -0.30220  -0.29026  -0.28577
 Alpha  occ. eigenvalues --   -0.27965  -0.27909  -0.27499  -0.26914  -0.26225
 Alpha  occ. eigenvalues --   -0.25431  -0.24934  -0.24438  -0.24257  -0.23809
 Alpha  occ. eigenvalues --   -0.23369  -0.22732  -0.21876  -0.21582  -0.21377
 Alpha  occ. eigenvalues --   -0.21029  -0.20687  -0.17918
 Alpha virt. eigenvalues --   -0.03864  -0.03727  -0.03629  -0.02858  -0.02773
 Alpha virt. eigenvalues --   -0.02484  -0.01524  -0.01146  -0.00925  -0.00164
 Alpha virt. eigenvalues --    0.00070   0.00447   0.01742   0.01775   0.03062

 Mulliken charges:
               1
     1  C   -0.134085
     2  C   -0.135962
     3  C   -0.188093
     4  C    0.125928
     5  C    0.066393
     6  C   -0.188857
     7  C    0.066406
     8  C   -0.188901
     9  C   -0.134536
    10  C   -0.135719
    11  C   -0.187580
    12  C    0.127543
    13  C   -0.274153
    14  C    0.123281
    15  C   -0.188948
    16  C   -0.136926
    17  C   -0.135113
    18  C   -0.193227
    19  C    0.068627
    20  C    0.069922
    21  C   -0.203776
    22  C   -0.192018
    23  C    0.296308
    24  N   -0.672168
    25  C    0.320701
    26  C   -0.168619
    27  C   -0.184392
    28  C    0.071918
    29  C    0.053952
    30  C   -0.157201
    31  C   -0.148268
    32  C   -0.168362
    33  C    0.111717
    34  C   -0.220417
    35  S    0.222124
    36  C   -0.137764
    37  C   -0.186795
    38  C   -0.113965
    39  C   -0.148417
    40  C   -0.164641
    41  C    0.098670
    42  C   -0.180169
    43  C   -0.183651
    44  C    0.159471
    45  C   -0.150475
    46  C   -0.141175
    47  C   -0.191791
    48  C    0.051921
    49  C    0.063558
    50  C   -0.198534
    51  C   -0.131756
    52  C   -0.131931
    53  C   -0.200417
    54  C    0.073013
    55  C    0.066167
    56  C   -0.199664
    57  C   -0.129565
    58  C   -0.134944
    59  C   -0.186933
    60  C    0.067724
    61  C    0.064645
    62  C   -0.245184
    63  C    0.121904
    64  H    0.128813
    65  H    0.128504
    66  H    0.137901
    67  H    0.129932
    68  H    0.129891
    69  H    0.128295
    70  H    0.127791
    71  H    0.137438
    72  H    0.138755
    73  H    0.128439
    74  H    0.127775
    75  H    0.127797
    76  H    0.132611
    77  H    0.146645
    78  H    0.143689
    79  H    0.150997
    80  H    0.132825
    81  H    0.130669
    82  H    0.131707
    83  H    0.140877
    84  H    0.131352
    85  H    0.130553
    86  H    0.132491
    87  H    0.136283
    88  H    0.148151
    89  H    0.143905
    90  H    0.133726
    91  H    0.135846
    92  H    0.132218
    93  H    0.129033
    94  H    0.129763
    95  H    0.136469
    96  H    0.131190
    97  H    0.128001
    98  H    0.128917
    99  H    0.158484
   100  H    0.155465
 Sum of Mulliken charges =  -0.00000

 Dipole moment (field-independent basis, Debye):
    X=              0.0094    Y=              0.5992    Z=             -0.5068  Tot=              0.7849
 Quadrupole moment (field-independent basis, Debye-Ang):
   XX=           -340.9887   YY=           -341.3176   ZZ=           -334.2484
   XY=              6.2161   XZ=             -4.6094   YZ=             -1.3858

 Normal termination of Gaussian 16 at Sat Nov  5 01:13:10 2022.
