 Gaussian 16, Revision B.01,
 Gaussian 16:  ES64L-G16RevB.01 20-Dec-2017

 -------------------------------------------------------------------
 #p b3lyp/6-31g(d) 6D 10F nosymm GFInput td=(50-50,nstate=2) SCF=XQC
 -------------------------------------------------------------------

 ------------------------------
 Gaussian input prepared by ASE
 ------------------------------
 Symbolic Z-matrix:
 Charge =  0 Multiplicity = 1

                          Input orientation:
 ---------------------------------------------------------------------
 Center     Atomic      Atomic             Coordinates (Angstroms)
 Number     Number       Type             X           Y           Z
 ---------------------------------------------------------------------
      1          6           0       -4.618930   -7.260024    1.040055
      2          6           0       -3.246438   -7.079813    0.797824
      3          6           0       -2.712174   -5.808727    0.595350
      4          6           0       -3.571478   -4.703606    0.637251
      5          6           0       -4.941495   -4.917617    0.881828
      6          6           0       -5.494685   -6.173837    1.086218
      7          8           0       -5.641694   -3.734104    0.890117
      8          6           0       -4.718177   -2.742431    0.647723
      9          6           0       -3.413962   -3.268719    0.481893
     10          6           0       -2.278159   -2.459057    0.225376
     11          6           0       -2.518636   -1.094165    0.148329
     12          6           0       -3.840179   -0.624987    0.308161
     13          6           0       -4.998153   -1.369228    0.564466
     14          6           0       -6.210371   -0.592066    0.683043
     15          6           0       -6.207492    0.781265    0.554382
     16          6           0       -5.002959    1.540436    0.288510
     17          6           0       -4.807369    2.924697    0.145710
     18          6           0       -3.511607    3.418061   -0.087750
     19          6           0       -3.142165    4.822303   -0.228908
     20          6           0       -3.971685    5.954175   -0.186793
     21          6           0       -3.424161    7.223332   -0.338630
     22          6           0       -2.044400    7.386715   -0.533805
     23          6           0       -1.200348    6.279871   -0.579318
     24          6           0       -1.757714    5.008955   -0.426792
     25         16           0       -0.863448    3.483794   -0.455887
     26          6           0       -2.355316    2.569820   -0.202629
     27          6           0       -2.531981    1.191554   -0.084638
     28          6           0       -3.846278    0.756865    0.165596
     29          7           0       -1.706787    0.044388   -0.096946
     30          6           0       -0.317024   -0.009616   -0.388328
     31          6           0        0.562650   -0.628040    0.508958
     32          6           0        1.919391   -0.711325    0.211736
     33          6           0        2.442763   -0.164477   -0.972947
     34          6           0        3.893843   -0.241913   -1.277563
     35          6           0        4.339670   -0.474194   -2.597642
     36          6           0        5.692516   -0.550865   -2.907045
     37          6           0        6.626854   -0.392907   -1.881752
     38         16           0        8.383880   -0.449169   -2.046654
     39          6           0        8.583887   -0.152298   -0.314428
     40          6           0        9.798777   -0.053478    0.366880
     41          6           0        9.774156    0.186071    1.738521
     42          6           0        8.555139    0.324797    2.420156
     43          6           0        7.348279    0.224798    1.737006
     44          6           0        7.346599   -0.016406    0.354807
     45          6           0        6.215862   -0.158749   -0.550591
     46          6           0        4.846848   -0.086001   -0.264981
     47          6           0        1.546749    0.457206   -1.858318
     48          6           0        0.183515    0.523955   -1.581818
     49          1           0       -5.007996   -8.262448    1.194393
     50          1           0       -2.592655   -7.946842    0.768023
     51          1           0       -1.649592   -5.679763    0.408173
     52          1           0       -6.556668   -6.295920    1.271853
     53          1           0       -1.294524   -2.898414    0.098912
     54          1           0       -7.146579   -1.105151    0.881422
     55          1           0       -7.148307    1.316664    0.657431
     56          1           0       -5.640475    3.617353    0.224560
     57          1           0       -5.041463    5.839220   -0.035807
     58          1           0       -4.070769    8.095641   -0.305570
     59          1           0       -1.628190    8.383400   -0.650987
     60          1           0       -0.131749    6.403249   -0.730303
     61          1           0        0.177212   -1.039331    1.436875
     62          1           0        2.583448   -1.218602    0.905570
     63          1           0        3.608278   -0.623291   -3.386433
     64          1           0        6.011494   -0.739641   -3.927903
     65          1           0       10.742459   -0.160315   -0.160057
     66          1           0       10.710170    0.266250    2.284188
     67          1           0        8.554749    0.512074    3.490121
     68          1           0        6.408177    0.333753    2.271235
     69          1           0        4.520838    0.121512    0.750369
     70          1           0        1.921982    0.905874   -2.773349
     71          1           0       -0.495961    0.989490   -2.288450
 ---------------------------------------------------------------------

 SCF Done:  E(RB3LYP) =  -2616.98408530     A.U. after   16 cycles

 Excitation energies and oscillator strengths:

 Excited state symmetry could not be determined.
 Excited State   1:      Triplet-?Sym    2.2800 eV  543.78 nm  f=0.0000  <S**2>=2.000
     160 ->168        -0.10050
     166 ->168        -0.17555
     167 ->168         0.56505
     167 ->170        -0.22329
     167 ->171        -0.19790
 This state for optimization and/or second-order correction.
 Total Energy, E(TD-HF/TD-DFT) =  -2616.90029527
 Copying the excited state density for this state as the 1-particle RhoCI density.

 Excited state symmetry could not be determined.
 Excited State   2:      Triplet-?Sym    2.8446 eV  435.85 nm  f=0.0000  <S**2>=2.000
     166 ->168         0.42919
     166 ->171         0.14099
     167 ->168         0.36989
     167 ->170         0.21146
     167 ->171         0.24624

 Excited state symmetry could not be determined.
 Excited State   3:      Singlet-?Sym    3.1460 eV  394.11 nm  f=0.1226  <S**2>=0.000
     166 ->170        -0.13020
     166 ->171        -0.14206
     167 ->168         0.65160
     167 ->170         0.11022

 Excited state symmetry could not be determined.
 Excited State   4:      Singlet-?Sym    3.3907 eV  365.66 nm  f=0.0059  <S**2>=0.000
     166 ->168         0.43073
     167 ->168        -0.16781
     167 ->169         0.12080
     167 ->170         0.45033
     167 ->171         0.23762

 Alpha  occ. eigenvalues --  -88.90521 -88.90172 -19.20675 -14.39251 -10.24733
 Alpha  occ. eigenvalues --  -10.24446 -10.24202 -10.23882 -10.23251 -10.23026
 Alpha  occ. eigenvalues --  -10.22920 -10.22860 -10.22245 -10.21026 -10.20819
 Alpha  occ. eigenvalues --  -10.20790 -10.20708 -10.20688 -10.20509 -10.20463
 Alpha  occ. eigenvalues --  -10.20344 -10.20277 -10.20263 -10.20237 -10.20231
 Alpha  occ. eigenvalues --  -10.20170 -10.20155 -10.20154 -10.20128 -10.20056
 Alpha  occ. eigenvalues --  -10.20054 -10.20037 -10.19993 -10.19915 -10.19888
 Alpha  occ. eigenvalues --  -10.19793 -10.19640 -10.19605 -10.19523 -10.19486
 Alpha  occ. eigenvalues --  -10.19437 -10.19407 -10.19331 -10.19236 -10.19142
 Alpha  occ. eigenvalues --  -10.18876 -10.18557 -10.18403  -7.96620  -7.96200
 Alpha  occ. eigenvalues --   -5.93073  -5.92723  -5.92666  -5.92305  -5.92209
 Alpha  occ. eigenvalues --   -5.91784  -1.10196  -0.99347  -0.90194  -0.89496
 Alpha  occ. eigenvalues --   -0.88368  -0.86732  -0.85738  -0.85220  -0.84920
 Alpha  occ. eigenvalues --   -0.82364  -0.82000  -0.79678  -0.79413  -0.78107
 Alpha  occ. eigenvalues --   -0.77368  -0.76546  -0.76348  -0.75843  -0.74742
 Alpha  occ. eigenvalues --   -0.74490  -0.73713  -0.72774  -0.72291  -0.70763
 Alpha  occ. eigenvalues --   -0.70440  -0.69333  -0.65819  -0.64862  -0.64094
 Alpha  occ. eigenvalues --   -0.62785  -0.62294  -0.61847  -0.61009  -0.60179
 Alpha  occ. eigenvalues --   -0.59539  -0.59442  -0.58856  -0.58135  -0.57749
 Alpha  occ. eigenvalues --   -0.57328  -0.55234  -0.54042  -0.52636  -0.52125
 Alpha  occ. eigenvalues --   -0.51112  -0.50729  -0.50606  -0.49588  -0.49176
 Alpha  occ. eigenvalues --   -0.48371  -0.47800  -0.47452  -0.46971  -0.46780
 Alpha  occ. eigenvalues --   -0.46294  -0.45712  -0.45374  -0.45116  -0.44781
 Alpha  occ. eigenvalues --   -0.44545  -0.44152  -0.43903  -0.43655  -0.43286
 Alpha  occ. eigenvalues --   -0.42957  -0.42766  -0.42379  -0.41981  -0.41502
 Alpha  occ. eigenvalues --   -0.41338  -0.41229  -0.40990  -0.40219  -0.40020
 Alpha  occ. eigenvalues --   -0.39683  -0.38518  -0.38254  -0.37749  -0.37106
 Alpha  occ. eigenvalues --   -0.36917  -0.36525  -0.36329  -0.36154  -0.35671
 Alpha  occ. eigenvalues --   -0.35467  -0.35434  -0.35015  -0.34657  -0.34549
 Alpha  occ. eigenvalues --   -0.34386  -0.34122  -0.33679  -0.33401  -0.33174
 Alpha  occ. eigenvalues --   -0.32113  -0.31702  -0.30229  -0.29148  -0.28057
 Alpha  occ. eigenvalues --   -0.27505  -0.26763  -0.26314  -0.26045  -0.24432
 Alpha  occ. eigenvalues --   -0.24045  -0.23524  -0.22746  -0.22435  -0.21349
 Alpha  occ. eigenvalues --   -0.19992  -0.18424
 Alpha virt. eigenvalues --   -0.05193  -0.04051  -0.03911  -0.03590  -0.01782
 Alpha virt. eigenvalues --   -0.01445  -0.00654  -0.00127   0.00903   0.01175
 Alpha virt. eigenvalues --    0.01297   0.02609   0.02750   0.03338   0.04439

 Mulliken charges:
               1
     1  C   -0.138091
     2  C   -0.144185
     3  C   -0.192453
     4  C    0.053816
     5  C    0.336446
     6  C   -0.207241
     7  O   -0.554727
     8  C    0.155524
     9  C    0.133627
    10  C   -0.267374
    11  C    0.356263
    12  C   -0.053197
    13  C    0.150561
    14  C   -0.179692
    15  C   -0.216921
    16  C    0.219411
    17  C   -0.321411
    18  C    0.154044
    19  C    0.081985
    20  C   -0.161858
    21  C   -0.148709
    22  C   -0.113391
    23  C   -0.192395
    24  C   -0.131735
    25  S    0.222175
    26  C   -0.230970
    27  C    0.331488
    28  C   -0.061007
    29  N   -0.804105
    30  C    0.265829
    31  C   -0.157545
    32  C   -0.188541
    33  C    0.100446
    34  C    0.073897
    35  C   -0.160298
    36  C   -0.186119
    37  C   -0.143264
    38  S    0.215986
    39  C   -0.145542
    40  C   -0.182370
    41  C   -0.113635
    42  C   -0.147580
    43  C   -0.163840
    44  C    0.107576
    45  C    0.108175
    46  C   -0.221603
    47  C   -0.188089
    48  C   -0.151350
    49  H    0.132325
    50  H    0.129285
    51  H    0.133334
    52  H    0.145649
    53  H    0.146299
    54  H    0.143698
    55  H    0.132877
    56  H    0.131763
    57  H    0.134513
    58  H    0.131775
    59  H    0.132547
    60  H    0.141973
    61  H    0.152235
    62  H    0.139973
    63  H    0.137224
    64  H    0.145289
    65  H    0.143768
    66  H    0.135022
    67  H    0.134244
    68  H    0.135463
    69  H    0.139129
    70  H    0.142927
    71  H    0.160677
 Sum of Mulliken charges =  -0.00000

 Dipole moment (field-independent basis, Debye):
    X=              1.4302    Y=              0.3179    Z=              0.3281  Tot=              1.5014
 Quadrupole moment (field-independent basis, Debye-Ang):
   XX=           -262.3085   YY=           -264.1949   ZZ=           -278.5667
   XY=             -4.6466   XZ=              4.8991   YZ=             -2.2921

 Normal termination of Gaussian 16 at Sat Nov  5 10:15:16 2022.
