 Gaussian 16, Revision B.01,
 Gaussian 16:  ES64L-G16RevB.01 20-Dec-2017

 -----------------------------
 #p b3lyp/6-31g(d) opt SCF=XQC
 -----------------------------

 ------------------------------
 Gaussian input prepared by ASE
 ------------------------------
 Symbolic Z-matrix:
 Charge =  0 Multiplicity = 1

 SCF Done:  E(RB3LYP) =  -1112.55388317     A.U. after   16 cycles
 SCF Done:  E(RB3LYP) =  -1112.56030547     A.U. after   12 cycles
 SCF Done:  E(RB3LYP) =  -1112.56063825     A.U. after   11 cycles
 SCF Done:  E(RB3LYP) =  -1112.56068496     A.U. after   11 cycles
 SCF Done:  E(RB3LYP) =  -1112.56072745     A.U. after    9 cycles
 SCF Done:  E(RB3LYP) =  -1112.56073951     A.U. after   10 cycles
 SCF Done:  E(RB3LYP) =  -1112.56074450     A.U. after   10 cycles
 SCF Done:  E(RB3LYP) =  -1112.56074701     A.U. after   10 cycles
 SCF Done:  E(RB3LYP) =  -1112.56075522     A.U. after   10 cycles
 SCF Done:  E(RB3LYP) =  -1112.56074156     A.U. after   14 cycles
 SCF Done:  E(RB3LYP) =  -1112.56086634     A.U. after    8 cycles
 SCF Done:  E(RB3LYP) =  -1112.56086716     A.U. after    9 cycles
 SCF Done:  E(RB3LYP) =  -1112.56086871     A.U. after    9 cycles
 SCF Done:  E(RB3LYP) =  -1112.56087079     A.U. after    9 cycles
 SCF Done:  E(RB3LYP) =  -1112.56087391     A.U. after    9 cycles
 SCF Done:  E(RB3LYP) =  -1112.56087802     A.U. after   10 cycles
 SCF Done:  E(RB3LYP) =  -1112.56088002     A.U. after    9 cycles
 SCF Done:  E(RB3LYP) =  -1112.56088172     A.U. after    9 cycles
 SCF Done:  E(RB3LYP) =  -1112.56088181     A.U. after    8 cycles
 SCF Done:  E(RB3LYP) =  -1112.56088184     A.U. after    7 cycles
 Optimization completed.
    -- Stationary point found.

                         Standard orientation:
 ---------------------------------------------------------------------
 Center     Atomic      Atomic             Coordinates (Angstroms)
 Number     Number       Type             X           Y           Z
 ---------------------------------------------------------------------
      1          6           0       -6.367093   -0.015166    1.429251
      2          6           0       -5.086989   -0.195078    0.646713
      3          6           0       -4.500308   -1.453400    0.489984
      4          6           0       -3.315565   -1.609684   -0.235815
      5          6           0       -2.686580   -0.511014   -0.825578
      6          6           0       -1.401965   -0.670481   -1.615902
      7          7           0       -0.249244   -0.006202   -0.992797
      8          6           0        0.188781    1.205092   -1.482918
      9          8           0       -0.259201    1.693469   -2.520458
     10          6           0        1.182942    1.905313   -0.629406
     11          6           0        1.815157    3.045152   -1.133633
     12          6           0        2.669993    3.799209   -0.337487
     13          6           0        2.869866    3.412338    0.990723
     14          6           0        2.243346    2.284640    1.515944
     15          6           0        1.392848    1.503771    0.711634
     16          7           0        0.695005    0.388498    1.188513
     17          6           0        1.115338   -0.271276    2.423250
     18          6           0        2.428121   -1.053535    2.242960
     19          6           0        2.510506   -1.761787    0.899246
     20          6           0        3.577189   -2.633154    0.646133
     21          6           0        3.729740   -3.248488   -0.594279
     22          6           0        2.813557   -2.983508   -1.612862
     23          6           0        1.746229   -2.119443   -1.374020
     24          6           0        1.577419   -1.511563   -0.125107
     25          6           0        0.359860   -0.617089    0.178037
     26          6           0       -3.273493    0.755054   -0.673444
     27          6           0       -4.451215    0.906630    0.050019
     28          1           0       -6.223235    0.658843    2.283100
     29          1           0       -6.736804   -0.969713    1.816988
     30          1           0       -7.158416    0.421450    0.807194
     31          1           0       -4.972585   -2.324482    0.938883
     32          1           0       -2.884010   -2.602521   -0.349796
     33          1           0       -1.495740   -0.222562   -2.607701
     34          1           0       -1.175573   -1.735079   -1.742979
     35          1           0        1.601236    3.322973   -2.160714
     36          1           0        3.164846    4.679113   -0.736970
     37          1           0        3.528218    3.992900    1.632212
     38          1           0        2.423625    2.015114    2.550481
     39          1           0        0.304180   -0.952761    2.705196
     40          1           0        1.195171    0.464139    3.227892
     41          1           0        2.544856   -1.773251    3.063580
     42          1           0        3.277651   -0.361692    2.319848
     43          1           0        4.302739   -2.821942    1.435035
     44          1           0        4.564257   -3.922621   -0.767669
     45          1           0        2.932074   -3.440945   -2.591346
     46          1           0        1.048813   -1.897546   -2.175456
     47          1           0       -0.421430   -1.243588    0.627221
     48          1           0       -2.800981    1.618781   -1.134121
     49          1           0       -4.891707    1.896379    0.152116
 ---------------------------------------------------------------------

 The electronic state is 1-A.
 Alpha  occ. eigenvalues --  -19.10264 -14.35992 -14.35730 -10.27869 -10.26819
 Alpha  occ. eigenvalues --  -10.23441 -10.23005 -10.22065 -10.20309 -10.19992
 Alpha  occ. eigenvalues --  -10.19877 -10.19495 -10.19296 -10.19263 -10.19180
 Alpha  occ. eigenvalues --  -10.19141 -10.19135 -10.19106 -10.18786 -10.18757
 Alpha  occ. eigenvalues --  -10.18730 -10.18572 -10.18498 -10.18346 -10.18312
 Alpha  occ. eigenvalues --  -10.18277 -10.17945  -1.02600  -0.97771  -0.91801
 Alpha  occ. eigenvalues --   -0.86197  -0.85272  -0.84495  -0.79213  -0.78163
 Alpha  occ. eigenvalues --   -0.76721  -0.75640  -0.74085  -0.73951  -0.73202
 Alpha  occ. eigenvalues --   -0.71535  -0.67128  -0.66347  -0.64939  -0.62150
 Alpha  occ. eigenvalues --   -0.60778  -0.60273  -0.59639  -0.57375  -0.56996
 Alpha  occ. eigenvalues --   -0.54702  -0.52835  -0.51650  -0.49623  -0.49097
 Alpha  occ. eigenvalues --   -0.48256  -0.47583  -0.47101  -0.46164  -0.45323
 Alpha  occ. eigenvalues --   -0.45181  -0.44653  -0.43851  -0.43092  -0.42748
 Alpha  occ. eigenvalues --   -0.41981  -0.41720  -0.41445  -0.40891  -0.40525
 Alpha  occ. eigenvalues --   -0.40250  -0.39476  -0.39039  -0.38974  -0.38283
 Alpha  occ. eigenvalues --   -0.37445  -0.36386  -0.35262  -0.35185  -0.35078
 Alpha  occ. eigenvalues --   -0.34689  -0.34329  -0.33940  -0.33261  -0.33128
 Alpha  occ. eigenvalues --   -0.28931  -0.25527  -0.25107  -0.24690  -0.24455
 Alpha  occ. eigenvalues --   -0.24206  -0.23903  -0.22988  -0.20052
 Alpha virt. eigenvalues --   -0.02913  -0.00870  -0.00651   0.00106   0.00243
 Alpha virt. eigenvalues --    0.01210   0.06993   0.08312   0.09314   0.09708
 Alpha virt. eigenvalues --    0.10112   0.10956   0.11830   0.12406   0.13259

 Mulliken charges:
               1
     1  C   -0.530767
     2  C    0.179922
     3  C   -0.183782
     4  C   -0.190590
     5  C    0.169580
     6  C   -0.260253
     7  N   -0.468677
     8  C    0.585629
     9  O   -0.546141
    10  C    0.027335
    11  C   -0.175109
    12  C   -0.142740
    13  C   -0.128330
    14  C   -0.198537
    15  C    0.324616
    16  N   -0.489850
    17  C   -0.167553
    18  C   -0.353608
    19  C    0.125976
    20  C   -0.186857
    21  C   -0.123097
    22  C   -0.132785
    23  C   -0.187125
    24  C    0.112404
    25  C    0.053254
    26  C   -0.176148
    27  C   -0.178094
    28  H    0.162640
    29  H    0.153735
    30  H    0.163636
    31  H    0.120583
    32  H    0.120817
    33  H    0.203939
    34  H    0.146777
    35  H    0.160453
    36  H    0.128432
    37  H    0.129826
    38  H    0.124768
    39  H    0.159253
    40  H    0.162284
    41  H    0.152827
    42  H    0.168779
    43  H    0.123205
    44  H    0.130945
    45  H    0.132458
    46  H    0.146710
    47  H    0.165639
    48  H    0.158345
    49  H    0.125281
 Sum of Mulliken charges =  -0.00000

 Dipole moment (field-independent basis, Debye):
    X=              0.7664    Y=             -2.5407    Z=              3.7209  Tot=              4.5703
 Quadrupole moment (field-independent basis, Debye-Ang):
   XX=           -143.4365   YY=           -150.9781   ZZ=           -154.2023
   XY=              0.4308   XZ=              0.3556   YZ=              5.5164

 Normal termination of Gaussian 16 at Sat Nov  5 00:27:48 2022.
