 Gaussian 16, Revision B.01,
 Gaussian 16:  ES64L-G16RevB.01 20-Dec-2017

 -------------------------------------------------------------------
 #p b3lyp/6-31g(d) 6D 10F nosymm GFInput td=(50-50,nstate=2) SCF=XQC
 -------------------------------------------------------------------

 ------------------------------
 Gaussian input prepared by ASE
 ------------------------------
 Symbolic Z-matrix:
 Charge =  0 Multiplicity = 1

                          Input orientation:
 ---------------------------------------------------------------------
 Center     Atomic      Atomic             Coordinates (Angstroms)
 Number     Number       Type             X           Y           Z
 ---------------------------------------------------------------------
      1          6           0        6.048292   -0.598184    1.800941
      2          6           0        4.843569   -0.048555    1.072964
      3          6           0        4.151385    1.067462    1.549956
      4          6           0        3.037605    1.568521    0.869324
      5          6           0        2.587191    0.967025   -0.307896
      6          6           0        1.380878    1.503885   -1.054132
      7          7           0        0.243742    0.573813   -1.067525
      8          6           0       -0.016498   -0.171401   -2.197236
      9          8           0        0.582762    0.012698   -3.256804
     10          6           0       -1.016713   -1.255169   -2.017883
     11          6           0       -1.474917   -1.938537   -3.147586
     12          6           0       -2.325917   -3.031258   -3.025291
     13          6           0       -2.699169   -3.454568   -1.746522
     14          6           0       -2.247522   -2.793120   -0.606966
     15          6           0       -1.402697   -1.673711   -0.721918
     16          7           0       -0.874255   -0.993719    0.381073
     17          6           0       -1.483773   -1.144456    1.701044
     18          6           0       -2.843728   -0.430640    1.794978
     19          6           0       -2.859340    0.902952    1.063361
     20          6           0       -3.977346    1.738058    1.180920
     21          6           0       -4.063554    2.935076    0.473639
     22          6           0       -3.025610    3.307023   -0.381606
     23          6           0       -1.906243    2.485940   -0.506840
     24          6           0       -1.805575    1.290828    0.213835
     25          6           0       -0.541057    0.412845    0.146240
     26          6           0        3.280862   -0.152860   -0.792888
     27          6           0        4.387457   -0.648903   -0.112597
     28          1           0        5.886789   -1.636979    2.115364
     29          1           0        6.277490   -0.011087    2.695911
     30          1           0        6.939440   -0.592849    1.160936
     31          1           0        4.484276    1.554035    2.464160
     32          1           0        2.521485    2.444552    1.258101
     33          1           0        1.620840    1.686386   -2.103990
     34          1           0        1.061834    2.452439   -0.607784
     35          1           0       -1.129712   -1.591846   -4.116338
     36          1           0       -2.685320   -3.553275   -3.906782
     37          1           0       -3.357491   -4.311749   -1.628875
     38          1           0       -2.559359   -3.149924    0.368155
     39          1           0       -0.779184   -0.713106    2.421726
     40          1           0       -1.570643   -2.205102    1.950324
     41          1           0       -3.116442   -0.292812    2.849334
     42          1           0       -3.622035   -1.071319    1.359056
     43          1           0       -4.795365    1.435890    1.832049
     44          1           0       -4.939980    3.568419    0.581771
     45          1           0       -3.088973    4.228105   -0.954595
     46          1           0       -1.111417    2.766814   -1.190426
     47          1           0        0.122408    0.704652    0.970462
     48          1           0        2.948200   -0.626778   -1.712807
     49          1           0        4.913325   -1.515511   -0.508215
 ---------------------------------------------------------------------

 SCF Done:  E(RB3LYP) =  -1112.56088395     A.U. after   16 cycles

 Excitation energies and oscillator strengths:

 Excited state symmetry could not be determined.
 Excited State   1:      Triplet-?Sym    3.2172 eV  385.38 nm  f=0.0000  <S**2>=2.000
      90 -> 95        -0.17880
      94 -> 95         0.61624
      94 ->100        -0.20023
 This state for optimization and/or second-order correction.
 Total Energy, E(TD-HF/TD-DFT) =  -1112.44265497
 Copying the excited state density for this state as the 1-particle RhoCI density.

 Excited state symmetry could not be determined.
 Excited State   2:      Triplet-?Sym    3.6348 eV  341.10 nm  f=0.0000  <S**2>=2.000
      86 ->100        -0.10023
      87 -> 95         0.13767
      88 -> 95         0.10116
      90 -> 95         0.30937
      92 -> 95         0.12336
      94 -> 95         0.30679
      94 -> 96        -0.13366
      94 ->100         0.37671

 Excited state symmetry could not be determined.
 Excited State   3:      Singlet-?Sym    3.9581 eV  313.24 nm  f=0.0425  <S**2>=0.000
      94 -> 95         0.69340

 Excited state symmetry could not be determined.
 Excited State   4:      Singlet-?Sym    4.5356 eV  273.36 nm  f=0.0016  <S**2>=0.000
      92 -> 95        -0.12528
      94 -> 96         0.66673
      94 -> 97         0.14177

 Alpha  occ. eigenvalues --  -19.10264 -14.35992 -14.35730 -10.27869 -10.26819
 Alpha  occ. eigenvalues --  -10.23440 -10.23005 -10.22065 -10.20309 -10.19992
 Alpha  occ. eigenvalues --  -10.19877 -10.19495 -10.19296 -10.19262 -10.19180
 Alpha  occ. eigenvalues --  -10.19142 -10.19135 -10.19105 -10.18786 -10.18757
 Alpha  occ. eigenvalues --  -10.18730 -10.18572 -10.18498 -10.18346 -10.18312
 Alpha  occ. eigenvalues --  -10.18277 -10.17946  -1.02600  -0.97771  -0.91801
 Alpha  occ. eigenvalues --   -0.86197  -0.85272  -0.84495  -0.79213  -0.78163
 Alpha  occ. eigenvalues --   -0.76722  -0.75640  -0.74085  -0.73951  -0.73202
 Alpha  occ. eigenvalues --   -0.71535  -0.67128  -0.66347  -0.64939  -0.62150
 Alpha  occ. eigenvalues --   -0.60778  -0.60273  -0.59639  -0.57375  -0.56996
 Alpha  occ. eigenvalues --   -0.54702  -0.52835  -0.51650  -0.49623  -0.49097
 Alpha  occ. eigenvalues --   -0.48256  -0.47583  -0.47101  -0.46164  -0.45323
 Alpha  occ. eigenvalues --   -0.45181  -0.44653  -0.43851  -0.43092  -0.42748
 Alpha  occ. eigenvalues --   -0.41981  -0.41720  -0.41446  -0.40891  -0.40525
 Alpha  occ. eigenvalues --   -0.40250  -0.39476  -0.39039  -0.38974  -0.38282
 Alpha  occ. eigenvalues --   -0.37446  -0.36386  -0.35262  -0.35185  -0.35078
 Alpha  occ. eigenvalues --   -0.34689  -0.34329  -0.33940  -0.33261  -0.33128
 Alpha  occ. eigenvalues --   -0.28931  -0.25527  -0.25107  -0.24690  -0.24455
 Alpha  occ. eigenvalues --   -0.24206  -0.23903  -0.22988  -0.20052
 Alpha virt. eigenvalues --   -0.02913  -0.00870  -0.00651   0.00106   0.00243
 Alpha virt. eigenvalues --    0.01210   0.06993   0.08312   0.09314   0.09708
 Alpha virt. eigenvalues --    0.10112   0.10956   0.11830   0.12406   0.13259

 Mulliken charges:
               1
     1  C   -0.530774
     2  C    0.179932
     3  C   -0.183789
     4  C   -0.190587
     5  C    0.169589
     6  C   -0.260266
     7  N   -0.468644
     8  C    0.585582
     9  O   -0.546128
    10  C    0.027343
    11  C   -0.175105
    12  C   -0.142745
    13  C   -0.128328
    14  C   -0.198537
    15  C    0.324637
    16  N   -0.489899
    17  C   -0.167514
    18  C   -0.353629
    19  C    0.126004
    20  C   -0.186850
    21  C   -0.123104
    22  C   -0.132784
    23  C   -0.187112
    24  C    0.112356
    25  C    0.053269
    26  C   -0.176159
    27  C   -0.178087
    28  H    0.162641
    29  H    0.153735
    30  H    0.163637
    31  H    0.120584
    32  H    0.120816
    33  H    0.203943
    34  H    0.146778
    35  H    0.160453
    36  H    0.128432
    37  H    0.129826
    38  H    0.124769
    39  H    0.159249
    40  H    0.162279
    41  H    0.152828
    42  H    0.168780
    43  H    0.123203
    44  H    0.130946
    45  H    0.132457
    46  H    0.146711
    47  H    0.165641
    48  H    0.158343
    49  H    0.125279
 Sum of Mulliken charges =  -0.00000

 Dipole moment (field-independent basis, Debye):
    X=             -1.3978    Y=              0.0183    Z=              4.3513  Tot=              4.5703
 Quadrupole moment (field-independent basis, Debye-Ang):
   XX=           -143.4655   YY=           -146.8417   ZZ=           -160.5216
   XY=              0.7143   XZ=              1.9929   YZ=             -0.4743

 Normal termination of Gaussian 16 at Sat Nov  5 10:12:52 2022.
