 Gaussian 16, Revision B.01,
 Gaussian 16:  ES64L-G16RevB.01 20-Dec-2017

 -------------------------------------------------------------------
 #p b3lyp/6-31g(d) 6D 10F nosymm GFInput td=(50-50,nstate=2) SCF=XQC
 -------------------------------------------------------------------

 ------------------------------
 Gaussian input prepared by ASE
 ------------------------------
 Symbolic Z-matrix:
 Charge =  0 Multiplicity = 1

                          Input orientation:
 ---------------------------------------------------------------------
 Center     Atomic      Atomic             Coordinates (Angstroms)
 Number     Number       Type             X           Y           Z
 ---------------------------------------------------------------------
      1          6           0       -5.575217    3.339054    1.137038
      2          6           0       -5.386872    1.927890    0.640641
      3          6           0       -4.307453    1.173072    1.039389
      4          6           0       -4.123799   -0.161110    0.568148
      5          6           0       -2.926038   -0.996660    1.049475
      6          6           0       -2.852385   -2.340118    0.307802
      7          6           0       -3.098259   -1.271200    2.566385
      8          6           0       -1.598586   -0.213270    0.881305
      9         16           0       -1.205061    0.382268   -0.830475
     10         16           0        0.086888   -1.040815   -1.637040
     11          6           0        1.789391   -0.386503   -1.249246
     12          6           0        2.731981   -1.382517   -0.513732
     13          6           0        2.176915   -1.733344    0.875423
     14          6           0        2.892902   -2.683929   -1.332728
     15          6           0        4.088957   -0.661978   -0.391080
     16          6           0        4.873268   -0.399014   -1.553561
     17          6           0        6.078289    0.260360   -1.466384
     18          6           0        6.904856    0.535157   -2.697096
     19          6           0        6.518358    0.674090   -0.169345
     20          6           0        7.738195    1.359251    0.069860
     21          6           0        8.099352    1.729908    1.347833
     22          6           0        7.256711    1.431868    2.444283
     23          6           0        6.066811    0.767785    2.244162
     24          6           0        5.668354    0.373570    0.940287
     25          7           0        4.476759   -0.281833    0.809883
     26          7           0       -4.979603   -0.731933   -0.254249
     27          6           0       -6.066129   -0.017621   -0.672904
     28          6           0       -6.972374   -0.653203   -1.560949
     29          6           0       -8.086529    0.012005   -2.022642
     30          6           0       -8.341639    1.342412   -1.615402
     31          6           0       -7.478817    1.985257   -0.753201
     32          6           0       -6.322588    1.326652   -0.259310
     33          1           0       -6.525502    3.452404    1.673300
     34          1           0       -5.587191    4.056447    0.307225
     35          1           0       -4.768225    3.626039    1.817242
     36          1           0       -3.588274    1.606753    1.728266
     37          1           0       -1.992678   -2.916961    0.668396
     38          1           0       -3.761834   -2.922915    0.472398
     39          1           0       -2.748487   -2.196709   -0.770339
     40          1           0       -4.023243   -1.828818    2.749314
     41          1           0       -2.261271   -1.869878    2.945410
     42          1           0       -3.142306   -0.344972    3.150535
     43          1           0       -0.758672   -0.824354    1.223135
     44          1           0       -1.602139    0.695459    1.492891
     45          1           0        1.650979    0.517807   -0.650610
     46          1           0        2.226832   -0.089221   -2.207190
     47          1           0        2.034948   -0.838572    1.487239
     48          1           0        1.219473   -2.253004    0.770012
     49          1           0        2.869849   -2.386602    1.413951
     50          1           0        3.228447   -2.497297   -2.358383
     51          1           0        1.936486   -3.215244   -1.388876
     52          1           0        3.619788   -3.350733   -0.855817
     53          1           0        4.519343   -0.723855   -2.527170
     54          1           0        6.411580    0.150478   -3.594190
     55          1           0        7.893924    0.065607   -2.628390
     56          1           0        7.069267    1.610646   -2.837285
     57          1           0        8.392974    1.593231   -0.764093
     58          1           0        9.036274    2.254069    1.515776
     59          1           0        7.553148    1.729561    3.446496
     60          1           0        5.400452    0.525137    3.066108
     61          1           0       -6.749322   -1.673253   -1.857845
     62          1           0       -8.774002   -0.482994   -2.703346
     63          1           0       -9.222836    1.859337   -1.985772
     64          1           0       -7.684417    3.006859   -0.447988
 ---------------------------------------------------------------------

 SCF Done:  E(RB3LYP) =  -1992.18589306     A.U. after   14 cycles

 Excitation energies and oscillator strengths:

 Excited state symmetry could not be determined.
 Excited State   1:      Triplet-?Sym    2.8530 eV  434.57 nm  f=0.0000  <S**2>=2.000
     114 ->129         0.12826
     117 ->127         0.15756
     120 ->124         0.48656
     120 ->125         0.10377
     121 ->124        -0.17045
     122 ->124        -0.34332
     123 ->124        -0.18790
 This state for optimization and/or second-order correction.
 Total Energy, E(TD-HF/TD-DFT) =  -1992.08104611
 Copying the excited state density for this state as the 1-particle RhoCI density.

 Excited state symmetry could not be determined.
 Excited State   2:      Triplet-?Sym    2.8593 eV  433.61 nm  f=0.0000  <S**2>=2.000
     115 ->130        -0.13233
     119 ->128         0.18262
     122 ->125        -0.33939
     123 ->124        -0.10860
     123 ->125         0.54083
     123 ->126         0.10147

 Excited state symmetry could not be determined.
 Excited State   3:      Singlet-?Sym    4.1423 eV  299.31 nm  f=0.0505  <S**2>=0.000
     116 ->124        -0.28250
     117 ->124         0.11606
     120 ->124         0.18391
     121 ->124        -0.12207
     122 ->124         0.42797
     122 ->126         0.11788
     123 ->124         0.31543

 Excited state symmetry could not be determined.
 Excited State   4:      Singlet-?Sym    4.2420 eV  292.28 nm  f=0.0011  <S**2>=0.000
     116 ->124        -0.19874
     118 ->124        -0.14469
     118 ->125         0.56041
     120 ->125         0.10104
     121 ->125        -0.10326
     122 ->125         0.18588
     123 ->125         0.18653

 Alpha  occ. eigenvalues --  -88.88301 -88.88248 -14.32136 -14.31520 -10.22832
 Alpha  occ. eigenvalues --  -10.22267 -10.22155 -10.21599 -10.21555 -10.21206
 Alpha  occ. eigenvalues --  -10.21143 -10.21085 -10.20777 -10.20351 -10.20099
 Alpha  occ. eigenvalues --  -10.19614 -10.19578 -10.19551 -10.19520 -10.19497
 Alpha  occ. eigenvalues --  -10.19369 -10.19144 -10.19127 -10.19061 -10.18991
 Alpha  occ. eigenvalues --  -10.18931 -10.18872 -10.18333 -10.17826 -10.17699
 Alpha  occ. eigenvalues --  -10.16410 -10.15824  -7.94376  -7.94321  -5.90948
 Alpha  occ. eigenvalues --   -5.90884  -5.90486  -5.90438  -5.89791  -5.89742
 Alpha  occ. eigenvalues --   -0.94163  -0.93599  -0.85248  -0.84773  -0.82886
 Alpha  occ. eigenvalues --   -0.82210  -0.81681  -0.81228  -0.78076  -0.74301
 Alpha  occ. eigenvalues --   -0.74189  -0.73735  -0.73636  -0.71719  -0.71363
 Alpha  occ. eigenvalues --   -0.70896  -0.68134  -0.67719  -0.66602  -0.63740
 Alpha  occ. eigenvalues --   -0.63156  -0.62760  -0.62281  -0.59570  -0.58169
 Alpha  occ. eigenvalues --   -0.57715  -0.54873  -0.54250  -0.52308  -0.51827
 Alpha  occ. eigenvalues --   -0.51127  -0.50626  -0.48822  -0.48328  -0.46360
 Alpha  occ. eigenvalues --   -0.45888  -0.45135  -0.44801  -0.44425  -0.44130
 Alpha  occ. eigenvalues --   -0.43780  -0.43368  -0.43263  -0.43123  -0.42894
 Alpha  occ. eigenvalues --   -0.41978  -0.41658  -0.41165  -0.41021  -0.40234
 Alpha  occ. eigenvalues --   -0.39955  -0.39754  -0.39255  -0.38915  -0.38743
 Alpha  occ. eigenvalues --   -0.38264  -0.37826  -0.37240  -0.37145  -0.36178
 Alpha  occ. eigenvalues --   -0.35691  -0.35455  -0.35254  -0.34779  -0.34407
 Alpha  occ. eigenvalues --   -0.33697  -0.33376  -0.33257  -0.32937  -0.32601
 Alpha  occ. eigenvalues --   -0.32480  -0.31851  -0.30229  -0.29242  -0.28730
 Alpha  occ. eigenvalues --   -0.25016  -0.24652  -0.24280  -0.24068  -0.23120
 Alpha  occ. eigenvalues --   -0.22947  -0.22457  -0.22327
 Alpha virt. eigenvalues --   -0.05040  -0.04472  -0.02107  -0.01438  -0.00944
 Alpha virt. eigenvalues --    0.02432   0.03066   0.05077   0.05810   0.07813
 Alpha virt. eigenvalues --    0.08395   0.08984   0.09058   0.09459   0.10013

 Mulliken charges:
               1
     1  C   -0.536994
     2  C    0.170124
     3  C   -0.252212
     4  C    0.343371
     5  C    0.020042
     6  C   -0.434076
     7  C   -0.449707
     8  C   -0.445466
     9  S    0.009706
    10  S    0.009206
    11  C   -0.443761
    12  C    0.023308
    13  C   -0.442908
    14  C   -0.463366
    15  C    0.319139
    16  C   -0.248501
    17  C    0.167192
    18  C   -0.537326
    19  C    0.105946
    20  C   -0.204281
    21  C   -0.130118
    22  C   -0.136606
    23  C   -0.145712
    24  C    0.237999
    25  N   -0.576272
    26  N   -0.578816
    27  C    0.240633
    28  C   -0.145011
    29  C   -0.136749
    30  C   -0.130177
    31  C   -0.204372
    32  C    0.106260
    33  H    0.168439
    34  H    0.171443
    35  H    0.160278
    36  H    0.122637
    37  H    0.129848
    38  H    0.154668
    39  H    0.173392
    40  H    0.159973
    41  H    0.146600
    42  H    0.140418
    43  H    0.191765
    44  H    0.171215
    45  H    0.200136
    46  H    0.175103
    47  H    0.153872
    48  H    0.151185
    49  H    0.149809
    50  H    0.142720
    51  H    0.169180
    52  H    0.153523
    53  H    0.128530
    54  H    0.162546
    55  H    0.170340
    56  H    0.170550
    57  H    0.130561
    58  H    0.132234
    59  H    0.133684
    60  H    0.141125
    61  H    0.142219
    62  H    0.132387
    63  H    0.130385
    64  H    0.128741
 Sum of Mulliken charges =  -0.00000

 Dipole moment (field-independent basis, Debye):
    X=              1.9672    Y=              2.1700    Z=              0.8678  Tot=              3.0549
 Quadrupole moment (field-independent basis, Debye-Ang):
   XX=           -169.4478   YY=           -198.8984   ZZ=           -197.4797
   XY=             -5.2413   XZ=             -9.9659   YZ=              3.3757

 Normal termination of Gaussian 16 at Sat Nov  5 10:10:51 2022.
