 Gaussian 16, Revision B.01,
 Gaussian 16:  ES64L-G16RevB.01 20-Dec-2017

 -----------------------------
 #p b3lyp/6-31g(d) opt SCF=XQC
 -----------------------------

 ------------------------------
 Gaussian input prepared by ASE
 ------------------------------
 Symbolic Z-matrix:
 Charge =  0 Multiplicity = 1

 SCF Done:  E(RB3LYP) =  -1992.17399597     A.U. after   14 cycles
 SCF Done:  E(RB3LYP) =  -1992.18350947     A.U. after   13 cycles
 SCF Done:  E(RB3LYP) =  -1992.18450206     A.U. after   14 cycles
 SCF Done:  E(RB3LYP) =  -1992.18566421     A.U. after   14 cycles
 SCF Done:  E(RB3LYP) =  -1992.18579834     A.U. after   12 cycles
 SCF Done:  E(RB3LYP) =  -1992.18585842     A.U. after   12 cycles
 SCF Done:  E(RB3LYP) =  -1992.18588808     A.U. after   10 cycles
 SCF Done:  E(RB3LYP) =  -1992.18589065     A.U. after    9 cycles
 SCF Done:  E(RB3LYP) =  -1992.18589089     A.U. after    8 cycles
 SCF Done:  E(RB3LYP) =  -1992.18589099     A.U. after    7 cycles
 SCF Done:  E(RB3LYP) =  -1992.18589095     A.U. after    7 cycles
 SCF Done:  E(RB3LYP) =  -1992.18589095     A.U. after    6 cycles
 Optimization completed.
    -- Stationary point found.

                         Standard orientation:
 ---------------------------------------------------------------------
 Center     Atomic      Atomic             Coordinates (Angstroms)
 Number     Number       Type             X           Y           Z
 ---------------------------------------------------------------------
      1          6           0        5.525583    3.223193    1.304805
      2          6           0        5.319090    1.888307    0.634948
      3          6           0        4.212251    1.650145   -0.147407
      4          6           0        4.011498    0.386666   -0.779194
      5          6           0        2.782282    0.151876   -1.672702
      6          6           0        2.698715   -1.312981   -2.128325
      7          6           0        2.906297    1.059125   -2.924728
      8          6           0        1.478068    0.566084   -0.943616
      9         16           0        1.145543   -0.261087    0.682709
     10         16           0       -0.155556   -1.833108    0.257578
     11          6           0       -1.852855   -1.107932    0.522762
     12          6           0       -2.837714   -1.268832   -0.671249
     13          6           0       -2.329301   -0.504993   -1.903724
     14          6           0       -3.005407   -2.760885   -1.040005
     15          6           0       -4.180887   -0.688017   -0.187363
     16          6           0       -4.926647   -1.349752    0.833226
     17          6           0       -6.118367   -0.836196    1.292040
     18          6           0       -6.904205   -1.539245    2.369797
     19          6           0       -6.584590    0.385226    0.710742
     20          6           0       -7.794729    1.026411    1.083717
     21          6           0       -8.182539    2.204624    0.481674
     22          6           0       -7.377457    2.794647   -0.520719
     23          6           0       -6.197837    2.196148   -0.904399
     24          6           0       -5.772569    0.983093   -0.302806
     25          7           0       -4.592983    0.440984   -0.728424
     26          7           0        4.876526   -0.598526   -0.653908
     27          6           0        5.990100   -0.402717    0.112685
     28          6           0        6.905884   -1.479894    0.234743
     29          6           0        8.047145   -1.349008    0.994608
     30          6           0        8.320991   -0.134083    1.665336
     31          6           0        7.449481    0.929623    1.564833
     32          6           0        6.265433    0.826389    0.788992
     33          1           0        6.463025    3.693170    0.982640
     34          1           0        5.576710    3.119376    2.395673
     35          1           0        4.706829    3.909657    1.070958
     36          1           0        3.484338    2.444643   -0.284391
     37          1           0        1.816533   -1.454764   -2.763560
     38          1           0        3.589836   -1.592926   -2.695225
     39          1           0        2.627896   -1.993474   -1.276466
     40          1           0        3.813007    0.809899   -3.486652
     41          1           0        2.045815    0.915669   -3.589270
     42          1           0        2.955173    2.121644   -2.660653
     43          1           0        0.615408    0.387160   -1.591329
     44          1           0        1.485322    1.636162   -0.709694
     45          1           0       -1.710570   -0.049689    0.757655
     46          1           0       -2.256836   -1.596642    1.414587
     47          1           0       -2.184042    0.556199   -1.684950
     48          1           0       -1.381332   -0.936226   -2.240246
     49          1           0       -3.051459   -0.570282   -2.722955
     50          1           0       -3.308195   -3.374568   -0.184959
     51          1           0       -2.060088   -3.164577   -1.418933
     52          1           0       -3.760102   -2.880214   -1.825264
     53          1           0       -4.553429   -2.276368    1.258421
     54          1           0       -6.395193   -2.451322    2.693986
     55          1           0       -7.905177   -1.818372    2.018235
     56          1           0       -7.040275   -0.897933    3.249324
     57          1           0       -8.420767    0.582625    1.851890
     58          1           0       -9.111624    2.684248    0.777535
     59          1           0       -7.694629    3.723418   -0.987316
     60          1           0       -5.560092    2.625316   -1.670951
     61          1           0        6.668061   -2.400431   -0.289141
     62          1           0        8.741757   -2.180116    1.082778
     63          1           0        9.223562   -0.040686    2.263279
     64          1           0        7.669669    1.857168    2.084713
 ---------------------------------------------------------------------

 The electronic state is 1-A.
 Alpha  occ. eigenvalues --  -88.88301 -88.88248 -14.32137 -14.31520 -10.22832
 Alpha  occ. eigenvalues --  -10.22267 -10.22155 -10.21599 -10.21555 -10.21206
 Alpha  occ. eigenvalues --  -10.21143 -10.21085 -10.20777 -10.20351 -10.20099
 Alpha  occ. eigenvalues --  -10.19614 -10.19578 -10.19551 -10.19520 -10.19497
 Alpha  occ. eigenvalues --  -10.19369 -10.19144 -10.19127 -10.19061 -10.18991
 Alpha  occ. eigenvalues --  -10.18931 -10.18872 -10.18333 -10.17826 -10.17699
 Alpha  occ. eigenvalues --  -10.16410 -10.15824  -7.94376  -7.94321  -5.90948
 Alpha  occ. eigenvalues --   -5.90884  -5.90486  -5.90437  -5.89791  -5.89742
 Alpha  occ. eigenvalues --   -0.94163  -0.93599  -0.85248  -0.84773  -0.82886
 Alpha  occ. eigenvalues --   -0.82210  -0.81681  -0.81228  -0.78076  -0.74301
 Alpha  occ. eigenvalues --   -0.74189  -0.73735  -0.73636  -0.71719  -0.71363
 Alpha  occ. eigenvalues --   -0.70896  -0.68134  -0.67719  -0.66602  -0.63740
 Alpha  occ. eigenvalues --   -0.63156  -0.62760  -0.62281  -0.59570  -0.58169
 Alpha  occ. eigenvalues --   -0.57715  -0.54873  -0.54250  -0.52308  -0.51827
 Alpha  occ. eigenvalues --   -0.51127  -0.50626  -0.48822  -0.48328  -0.46360
 Alpha  occ. eigenvalues --   -0.45888  -0.45135  -0.44801  -0.44425  -0.44130
 Alpha  occ. eigenvalues --   -0.43780  -0.43368  -0.43262  -0.43123  -0.42894
 Alpha  occ. eigenvalues --   -0.41978  -0.41658  -0.41165  -0.41021  -0.40234
 Alpha  occ. eigenvalues --   -0.39955  -0.39754  -0.39255  -0.38915  -0.38743
 Alpha  occ. eigenvalues --   -0.38264  -0.37826  -0.37240  -0.37144  -0.36178
 Alpha  occ. eigenvalues --   -0.35691  -0.35455  -0.35254  -0.34779  -0.34407
 Alpha  occ. eigenvalues --   -0.33697  -0.33376  -0.33257  -0.32937  -0.32601
 Alpha  occ. eigenvalues --   -0.32480  -0.31851  -0.30229  -0.29242  -0.28730
 Alpha  occ. eigenvalues --   -0.25017  -0.24652  -0.24281  -0.24068  -0.23120
 Alpha  occ. eigenvalues --   -0.22947  -0.22457  -0.22327
 Alpha virt. eigenvalues --   -0.05040  -0.04472  -0.02107  -0.01438  -0.00944
 Alpha virt. eigenvalues --    0.02432   0.03066   0.05077   0.05810   0.07813
 Alpha virt. eigenvalues --    0.08395   0.08984   0.09058   0.09459   0.10013

 Mulliken charges:
               1
     1  C   -0.536989
     2  C    0.170129
     3  C   -0.252204
     4  C    0.343357
     5  C    0.020057
     6  C   -0.434077
     7  C   -0.449691
     8  C   -0.445488
     9  S    0.009698
    10  S    0.009221
    11  C   -0.443769
    12  C    0.023327
    13  C   -0.442913
    14  C   -0.463379
    15  C    0.319143
    16  C   -0.248510
    17  C    0.167195
    18  C   -0.537322
    19  C    0.105952
    20  C   -0.204294
    21  C   -0.130115
    22  C   -0.136609
    23  C   -0.145712
    24  C    0.238004
    25  N   -0.576270
    26  N   -0.578819
    27  C    0.240633
    28  C   -0.145005
    29  C   -0.136748
    30  C   -0.130178
    31  C   -0.204373
    32  C    0.106254
    33  H    0.168437
    34  H    0.171443
    35  H    0.160278
    36  H    0.122636
    37  H    0.129849
    38  H    0.154670
    39  H    0.173390
    40  H    0.159969
    41  H    0.146595
    42  H    0.140414
    43  H    0.191769
    44  H    0.171219
    45  H    0.200136
    46  H    0.175103
    47  H    0.153871
    48  H    0.151183
    49  H    0.149809
    50  H    0.142721
    51  H    0.169181
    52  H    0.153525
    53  H    0.128531
    54  H    0.162546
    55  H    0.170339
    56  H    0.170549
    57  H    0.130563
    58  H    0.132233
    59  H    0.133684
    60  H    0.141123
    61  H    0.142216
    62  H    0.132387
    63  H    0.130384
    64  H    0.128742
 Sum of Mulliken charges =  -0.00000

 Dipole moment (field-independent basis, Debye):
    X=             -1.9408    Y=              2.1186    Z=              1.0380  Tot=              3.0549
 Quadrupole moment (field-independent basis, Debye-Ang):
   XX=           -169.4498   YY=           -194.3962   ZZ=           -201.5913
   XY=             10.5797   XZ=             -4.0783   YZ=             -1.1495

 Normal termination of Gaussian 16 at Fri Nov  4 23:34:24 2022.
