 Gaussian 16, Revision B.01,
 Gaussian 16:  ES64L-G16RevB.01 20-Dec-2017

 -----------------------------
 #p b3lyp/6-31g(d) opt SCF=XQC
 -----------------------------

 ------------------------------
 Gaussian input prepared by ASE
 ------------------------------
 Symbolic Z-matrix:
 Charge =  0 Multiplicity = 1

 SCF Done:  E(RB3LYP) =  -1184.05932859     A.U. after   16 cycles
 SCF Done:  E(RB3LYP) =  -1184.06521548     A.U. after   15 cycles
 SCF Done:  E(RB3LYP) =  -1184.05943246     A.U. after   17 cycles
 SCF Done:  E(RB3LYP) =  -1184.06647623     A.U. after   14 cycles
 SCF Done:  E(RB3LYP) =  -1184.06749668     A.U. after   14 cycles
 SCF Done:  E(RB3LYP) =  -1184.06753649     A.U. after   11 cycles
 SCF Done:  E(RB3LYP) =  -1184.06754271     A.U. after   10 cycles
 SCF Done:  E(RB3LYP) =  -1184.06754406     A.U. after    9 cycles
 SCF Done:  E(RB3LYP) =  -1184.06754434     A.U. after    9 cycles
 SCF Done:  E(RB3LYP) =  -1184.06754436     A.U. after    8 cycles
 SCF Done:  E(RB3LYP) =  -1184.06754437     A.U. after    8 cycles
 SCF Done:  E(RB3LYP) =  -1184.06754437     A.U. after    7 cycles
 Optimization completed.
    -- Stationary point found.

                         Standard orientation:
 ---------------------------------------------------------------------
 Center     Atomic      Atomic             Coordinates (Angstroms)
 Number     Number       Type             X           Y           Z
 ---------------------------------------------------------------------
      1          8           0       -2.076502   -0.341247    2.372183
      2          7           0       -2.902301    0.388622    1.832022
      3          8           0       -3.317253    1.449399    2.302631
      4          6           0       -3.472547   -0.041319    0.539456
      5          6           0       -4.771560    0.390988    0.269026
      6          6           0       -5.402854   -0.014734   -0.902420
      7          6           0       -4.720590   -0.837950   -1.799155
      8          6           0       -3.414915   -1.242136   -1.523774
      9          6           0       -2.749636   -0.859255   -0.347870
     10          6           0       -1.348015   -1.333104   -0.144125
     11          6           0       -1.122901   -2.696287    0.062767
     12          6           0        0.172445   -3.204427    0.237572
     13          6           0        1.285334   -2.372179    0.190431
     14          6           0        1.066640   -1.013783   -0.051266
     15          6           0       -0.235422   -0.471454   -0.219453
     16          6           0       -0.065680    0.953340   -0.447660
     17          6           0       -0.939281    2.017991   -0.716115
     18          6           0       -0.420870    3.293697   -0.914972
     19          6           0        0.963630    3.524309   -0.858139
     20          6           0        1.856663    2.488290   -0.600061
     21          6           0        1.329542    1.211076   -0.391477
     22          7           0        2.006627    0.013379   -0.150350
     23          6           0        3.416272   -0.133308   -0.025651
     24          6           0        4.108892    0.576589    0.962839
     25          6           0        5.492275    0.439605    1.076135
     26          6           0        6.188141   -0.416987    0.220683
     27          6           0        5.494803   -1.131233   -0.758446
     28          6           0        4.113991   -0.984978   -0.890890
     29          1           0       -5.267537    1.031208    0.988400
     30          1           0       -6.418427    0.308674   -1.109523
     31          1           0       -5.200283   -1.160274   -2.719084
     32          1           0       -2.876977   -1.861874   -2.234549
     33          1           0       -1.974658   -3.367632    0.119823
     34          1           0        0.306953   -4.266898    0.420071
     35          1           0        2.286642   -2.762735    0.336712
     36          1           0       -2.010083    1.856198   -0.773289
     37          1           0       -1.095230    4.120626   -1.117875
     38          1           0        1.347921    4.527503   -1.021552
     39          1           0        2.926699    2.664876   -0.567938
     40          1           0        3.557599    1.221640    1.639962
     41          1           0        6.024256    0.994140    1.844243
     42          1           0        7.264594   -0.527397    0.316635
     43          1           0        6.030356   -1.795304   -1.431354
     44          1           0        3.571793   -1.518474   -1.665515
 ---------------------------------------------------------------------

 The electronic state is 1-A.
 Alpha  occ. eigenvalues --  -19.17451 -19.17285 -14.56407 -14.38137 -10.25162
 Alpha  occ. eigenvalues --  -10.24013 -10.22839 -10.22557 -10.22302 -10.21626
 Alpha  occ. eigenvalues --  -10.21488 -10.21253 -10.21079 -10.20509 -10.20244
 Alpha  occ. eigenvalues --  -10.20198 -10.20175 -10.20106 -10.20012 -10.19248
 Alpha  occ. eigenvalues --  -10.18909 -10.18882 -10.18850 -10.18612 -10.18547
 Alpha  occ. eigenvalues --  -10.18542 -10.18381 -10.17874  -1.21690  -1.04384
 Alpha  occ. eigenvalues --   -0.99033  -0.89171  -0.87067  -0.84640  -0.83958
 Alpha  occ. eigenvalues --   -0.80262  -0.78816  -0.78529  -0.75815  -0.75070
 Alpha  occ. eigenvalues --   -0.74234  -0.71690  -0.71447  -0.69296  -0.65049
 Alpha  occ. eigenvalues --   -0.62845  -0.62256  -0.61707  -0.60041  -0.59688
 Alpha  occ. eigenvalues --   -0.57740  -0.57136  -0.54927  -0.53327  -0.52438
 Alpha  occ. eigenvalues --   -0.51668  -0.51253  -0.50389  -0.49561  -0.49091
 Alpha  occ. eigenvalues --   -0.47105  -0.46897  -0.46250  -0.45844  -0.45186
 Alpha  occ. eigenvalues --   -0.44615  -0.43906  -0.43309  -0.43015  -0.42373
 Alpha  occ. eigenvalues --   -0.41682  -0.41479  -0.39327  -0.38562  -0.37855
 Alpha  occ. eigenvalues --   -0.37543  -0.37258  -0.36494  -0.36055  -0.35819
 Alpha  occ. eigenvalues --   -0.35058  -0.34015  -0.33418  -0.32305  -0.30193
 Alpha  occ. eigenvalues --   -0.29882  -0.29280  -0.27842  -0.27057  -0.26798
 Alpha  occ. eigenvalues --   -0.26231  -0.25941  -0.24613  -0.21140  -0.19754
 Alpha virt. eigenvalues --   -0.07819  -0.03333  -0.01789  -0.01698  -0.01283
 Alpha virt. eigenvalues --   -0.00375   0.00962   0.03446   0.04414   0.08156
 Alpha virt. eigenvalues --    0.08581   0.10696   0.10989   0.13223   0.13535

 Mulliken charges:
               1
     1  O   -0.376908
     2  N    0.352517
     3  O   -0.388926
     4  C    0.241233
     5  C   -0.148306
     6  C   -0.138251
     7  C   -0.113104
     8  C   -0.168866
     9  C    0.040774
    10  C    0.023668
    11  C   -0.174804
    12  C   -0.144525
    13  C   -0.171141
    14  C    0.316455
    15  C    0.031728
    16  C    0.061075
    17  C   -0.202169
    18  C   -0.145307
    19  C   -0.139702
    20  C   -0.177791
    21  C    0.313794
    22  N   -0.731250
    23  C    0.254561
    24  C   -0.144772
    25  C   -0.143047
    26  C   -0.120352
    27  C   -0.143004
    28  C   -0.146133
    29  H    0.180845
    30  H    0.147992
    31  H    0.146646
    32  H    0.153634
    33  H    0.127322
    34  H    0.129908
    35  H    0.141856
    36  H    0.139905
    37  H    0.125509
    38  H    0.127225
    39  H    0.139519
    40  H    0.156831
    41  H    0.140227
    42  H    0.136011
    43  H    0.138568
    44  H    0.150553
 Sum of Mulliken charges =  -0.00000

 Dipole moment (field-independent basis, Debye):
    X=              0.8470    Y=             -1.4412    Z=             -3.4482  Tot=              3.8320
 Quadrupole moment (field-independent basis, Debye-Ang):
   XX=           -122.0284   YY=           -151.2173   ZZ=           -164.5515
   XY=              2.0687   XZ=             12.7235   YZ=              1.8139

 Normal termination of Gaussian 16 at Fri Nov  4 23:51:32 2022.
