 Gaussian 16, Revision B.01,
 Gaussian 16:  ES64L-G16RevB.01 20-Dec-2017

 -------------------------------------------------------------------
 #p b3lyp/6-31g(d) 6D 10F nosymm GFInput td=(50-50,nstate=2) SCF=XQC
 -------------------------------------------------------------------

 ------------------------------
 Gaussian input prepared by ASE
 ------------------------------
 Symbolic Z-matrix:
 Charge =  0 Multiplicity = 1

                          Input orientation:
 ---------------------------------------------------------------------
 Center     Atomic      Atomic             Coordinates (Angstroms)
 Number     Number       Type             X           Y           Z
 ---------------------------------------------------------------------
      1          8           0       -2.521707    1.023842   -2.196703
      2          7           0       -3.251343    0.079237   -1.910730
      3          8           0       -3.647447   -0.770326   -2.710886
      4          6           0       -3.722837   -0.039894   -0.516363
      5          6           0       -4.964696   -0.651537   -0.339908
      6          6           0       -5.506724   -0.754504    0.937212
      7          6           0       -4.791993   -0.256762    2.027494
      8          6           0       -3.542380    0.331160    1.835648
      9          6           0       -2.968271    0.459879    0.560589
     10          6           0       -1.620585    1.094769    0.454566
     11          6           0       -1.493035    2.454185    0.750317
     12          6           0       -0.250254    3.101201    0.690720
     13          6           0        0.907487    2.408185    0.354942
     14          6           0        0.789271    1.041146    0.092812
     15          6           0       -0.458866    0.364225    0.134111
     16          6           0       -0.188433   -1.025913   -0.190409
     17          6           0       -0.971821   -2.186774   -0.276636
     18          6           0       -0.365925   -3.397749   -0.596245
     19          6           0        1.018178   -3.471288   -0.824508
     20          6           0        1.823462   -2.339077   -0.740481
     21          6           0        1.207922   -1.123929   -0.428766
     22          7           0        1.790961    0.133467   -0.255313
     23          6           0        3.172443    0.436811   -0.409118
     24          6           0        3.809575    0.196496   -1.632678
     25          6           0        5.166556    0.484428   -1.777768
     26          6           0        5.889097    1.029289   -0.714358
     27          6           0        5.250138    1.276972    0.502170
     28          6           0        3.898012    0.973715    0.661431
     29          1           0       -5.488162   -1.027668   -1.210472
     30          1           0       -6.478837   -1.217602    1.076529
     31          1           0       -5.201890   -0.332786    3.030724
     32          1           0       -2.976838    0.695035    2.687946
     33          1           0       -2.383006    3.024095    1.000523
     34          1           0       -0.193514    4.164896    0.904206
     35          1           0        1.867254    2.910299    0.297704
     36          1           0       -2.040155   -2.150062   -0.093941
     37          1           0       -0.970759   -4.297010   -0.668694
     38          1           0        1.472055   -4.428154   -1.067790
     39          1           0        2.894191   -2.398664   -0.905346
     40          1           0        3.235306   -0.204227   -2.462224
     41          1           0        5.655621    0.294454   -2.729202
     42          1           0        6.944067    1.259707   -0.833076
     43          1           0        5.807296    1.695509    1.335846
     44          1           0        3.400583    1.140919    1.611824
 ---------------------------------------------------------------------

 SCF Done:  E(RB3LYP) =  -1184.06754444     A.U. after   16 cycles

 Excitation energies and oscillator strengths:

 Excited state symmetry could not be determined.
 Excited State   1:      Triplet-?Sym    2.6105 eV  474.94 nm  f=0.0000  <S**2>=2.000
      95 -> 96         0.69099
 This state for optimization and/or second-order correction.
 Total Energy, E(TD-HF/TD-DFT) =  -1183.97161007
 Copying the excited state density for this state as the 1-particle RhoCI density.

 Excited state symmetry could not be determined.
 Excited State   2:      Singlet-?Sym    2.6473 eV  468.35 nm  f=0.0020  <S**2>=0.000
      95 -> 96         0.70375

 Excited state symmetry could not be determined.
 Excited State   3:      Triplet-?Sym    2.7268 eV  454.69 nm  f=0.0000  <S**2>=2.000
      85 -> 96        -0.48947
      85 ->101        -0.14119
      86 -> 96        -0.15974
      93 -> 96         0.12913
      94 -> 96         0.41528
      85 <- 96        -0.12440

 Excited state symmetry could not be determined.
 Excited State   4:      Singlet-?Sym    2.9585 eV  419.07 nm  f=0.0008  <S**2>=0.000
      94 -> 96         0.70126

 Alpha  occ. eigenvalues --  -19.17451 -19.17285 -14.56407 -14.38137 -10.25162
 Alpha  occ. eigenvalues --  -10.24013 -10.22839 -10.22557 -10.22302 -10.21626
 Alpha  occ. eigenvalues --  -10.21488 -10.21253 -10.21079 -10.20509 -10.20244
 Alpha  occ. eigenvalues --  -10.20198 -10.20175 -10.20106 -10.20012 -10.19248
 Alpha  occ. eigenvalues --  -10.18909 -10.18882 -10.18850 -10.18612 -10.18547
 Alpha  occ. eigenvalues --  -10.18542 -10.18381 -10.17874  -1.21690  -1.04384
 Alpha  occ. eigenvalues --   -0.99033  -0.89171  -0.87067  -0.84640  -0.83958
 Alpha  occ. eigenvalues --   -0.80262  -0.78816  -0.78529  -0.75815  -0.75070
 Alpha  occ. eigenvalues --   -0.74234  -0.71690  -0.71447  -0.69296  -0.65049
 Alpha  occ. eigenvalues --   -0.62845  -0.62256  -0.61707  -0.60041  -0.59688
 Alpha  occ. eigenvalues --   -0.57740  -0.57136  -0.54927  -0.53327  -0.52438
 Alpha  occ. eigenvalues --   -0.51668  -0.51253  -0.50390  -0.49561  -0.49091
 Alpha  occ. eigenvalues --   -0.47105  -0.46897  -0.46250  -0.45844  -0.45186
 Alpha  occ. eigenvalues --   -0.44615  -0.43906  -0.43309  -0.43015  -0.42373
 Alpha  occ. eigenvalues --   -0.41682  -0.41479  -0.39327  -0.38562  -0.37855
 Alpha  occ. eigenvalues --   -0.37542  -0.37258  -0.36494  -0.36055  -0.35819
 Alpha  occ. eigenvalues --   -0.35058  -0.34015  -0.33418  -0.32305  -0.30193
 Alpha  occ. eigenvalues --   -0.29882  -0.29280  -0.27842  -0.27057  -0.26798
 Alpha  occ. eigenvalues --   -0.26231  -0.25941  -0.24613  -0.21140  -0.19753
 Alpha virt. eigenvalues --   -0.07819  -0.03333  -0.01789  -0.01698  -0.01283
 Alpha virt. eigenvalues --   -0.00375   0.00962   0.03446   0.04414   0.08155
 Alpha virt. eigenvalues --    0.08581   0.10696   0.10989   0.13223   0.13535

 Mulliken charges:
               1
     1  O   -0.376902
     2  N    0.352523
     3  O   -0.388929
     4  C    0.241210
     5  C   -0.148308
     6  C   -0.138246
     7  C   -0.113102
     8  C   -0.168873
     9  C    0.040785
    10  C    0.023659
    11  C   -0.174800
    12  C   -0.144520
    13  C   -0.171164
    14  C    0.316495
    15  C    0.031740
    16  C    0.061057
    17  C   -0.202157
    18  C   -0.145312
    19  C   -0.139698
    20  C   -0.177801
    21  C    0.313806
    22  N   -0.731289
    23  C    0.254589
    24  C   -0.144783
    25  C   -0.143036
    26  C   -0.120359
    27  C   -0.143002
    28  C   -0.146137
    29  H    0.180844
    30  H    0.147993
    31  H    0.146647
    32  H    0.153634
    33  H    0.127321
    34  H    0.129908
    35  H    0.141859
    36  H    0.139902
    37  H    0.125509
    38  H    0.127225
    39  H    0.139521
    40  H    0.156829
    41  H    0.140227
    42  H    0.136011
    43  H    0.138568
    44  H    0.150553
 Sum of Mulliken charges =  -0.00000

 Dipole moment (field-independent basis, Debye):
    X=              1.0798    Y=              0.1602    Z=              3.6732  Tot=              3.8320
 Quadrupole moment (field-independent basis, Debye-Ang):
   XX=           -125.0870   YY=           -153.4979   ZZ=           -161.5747
   XY=              5.7329   XZ=            -16.5760   YZ=              4.4301

 Normal termination of Gaussian 16 at Sat Nov  5 10:00:32 2022.
