 Gaussian 16, Revision B.01,
 Gaussian 16:  ES64L-G16RevB.01 20-Dec-2017

 -------------------------------------------------------------------
 #p b3lyp/6-31g(d) 6D 10F nosymm GFInput td=(50-50,nstate=2) SCF=XQC
 -------------------------------------------------------------------

 ------------------------------
 Gaussian input prepared by ASE
 ------------------------------
 Symbolic Z-matrix:
 Charge =  0 Multiplicity = 1

                          Input orientation:
 ---------------------------------------------------------------------
 Center     Atomic      Atomic             Coordinates (Angstroms)
 Number     Number       Type             X           Y           Z
 ---------------------------------------------------------------------
      1          6           0       16.839517    0.849486   -0.600469
      2          6           0       15.945585    1.236186   -1.624592
      3          6           0       14.586451    1.071578   -1.462269
      4          6           0       14.061823    0.513261   -0.269268
      5          6           0       14.965082    0.119006    0.773904
      6          6           0       16.355876    0.304066    0.569832
      7          6           0       14.455741   -0.445894    1.984871
      8          6           0       13.112889   -0.627094    2.187751
      9          6           0       12.198447   -0.244568    1.169238
     10          7           0       10.831123   -0.379950    1.264517
     11          6           0       10.226679    0.047230    0.193487
     12          6           0        8.772417    0.027216    0.010274
     13          6           0        7.959804   -0.494345    1.033216
     14          6           0        6.579583   -0.529434    0.891738
     15          6           0        5.949812   -0.046425   -0.270788
     16          6           0        4.475595   -0.081990   -0.417457
     17          6           0        3.880762   -0.345208   -1.674448
     18          6           0        2.505236   -0.383976   -1.836878
     19          6           0        1.665398   -0.156015   -0.733434
     20          6           0        2.261478    0.107561    0.528774
     21          6           0        3.644349    0.145280    0.688520
     22         16           0        1.059085    0.380382    1.800476
     23          6           0       -0.236470    0.134307    0.640856
     24          6           0       -1.665398    0.156016    0.748354
     25          6           0       -2.505237    0.383978    1.851798
     26          6           0       -3.880762    0.345209    1.689369
     27          6           0       -4.475595    0.081991    0.432378
     28          6           0       -5.949812    0.046426    0.285708
     29          6           0       -6.579583    0.529435   -0.876818
     30          6           0       -7.959804    0.494346   -1.018296
     31          6           0       -8.772417   -0.027215    0.004646
     32          6           0      -10.226679   -0.047229   -0.178566
     33          7           0      -10.831123    0.379949   -1.249597
     34          6           0      -12.198447    0.244568   -1.154318
     35          6           0      -13.112889    0.627091   -2.172832
     36          6           0      -14.455740    0.445890   -1.969952
     37          6           0      -14.965082   -0.119009   -0.758985
     38          6           0      -16.355876   -0.304070   -0.554913
     39          6           0      -16.839516   -0.849488    0.615388
     40          6           0      -15.945585   -1.236185    1.639513
     41          6           0      -14.586451   -1.071577    1.477190
     42          6           0      -14.061823   -0.513261    0.284189
     43          6           0      -12.675521   -0.311170    0.040982
     44         16           0      -11.322052   -0.674047    1.085483
     45          6           0       -8.151289   -0.509667    1.167622
     46          6           0       -6.768573   -0.472822    1.303852
     47          6           0       -3.644349   -0.145279   -0.673599
     48          6           0       -2.261478   -0.107560   -0.513853
     49         16           0       -1.059085   -0.380381   -1.785556
     50          6           0        0.236469   -0.134306   -0.625936
     51          6           0        6.768573    0.472823   -1.288932
     52          6           0        8.151289    0.509667   -1.152701
     53         16           0       11.322052    0.674052   -1.070561
     54          6           0       12.675521    0.311171   -0.026062
     55          1           0       17.908747    0.983536   -0.738540
     56          1           0       16.332574    1.665559   -2.544537
     57          1           0       13.903313    1.370817   -2.253097
     58          1           0       17.040683    0.005432    1.360050
     59          1           0       15.166790   -0.733844    2.754949
     60          1           0       12.724407   -1.055515    3.106003
     61          1           0        8.434582   -0.878127    1.929544
     62          1           0        5.977623   -0.965417    1.683881
     63          1           0        4.520456   -0.550909   -2.527082
     64          1           0        2.076080   -0.599274   -2.811642
     65          1           0        4.078090    0.377737    1.656296
     66          1           0       -2.076080    0.599275    2.826563
     67          1           0       -4.520456    0.550910    2.542003
     68          1           0       -5.977623    0.965418   -1.668960
     69          1           0       -8.434582    0.878128   -1.914623
     70          1           0      -12.724407    1.055511   -3.091085
     71          1           0      -15.166790    0.733838   -2.740031
     72          1           0      -17.040683   -0.005437   -1.345132
     73          1           0      -17.908746   -0.983539    0.753459
     74          1           0      -16.332574   -1.665557    2.559459
     75          1           0      -13.903313   -1.370814    2.268019
     76          1           0       -8.748143   -0.929457    1.973107
     77          1           0       -6.314180   -0.879837    2.202238
     78          1           0       -4.078090   -0.377736   -1.641375
     79          1           0        6.314180    0.879837   -2.187318
     80          1           0        8.748143    0.929457   -1.958187
 ---------------------------------------------------------------------

 SCF Done:  E(RB3LYP) =  -3547.14348629     A.U. after   15 cycles

 Excitation energies and oscillator strengths:

 Excited state symmetry could not be determined.
 Excited State   1:      Triplet-?Sym    2.2566 eV  549.43 nm  f=0.0000  <S**2>=2.000
     194 ->199         0.17411
     195 ->198        -0.25975
     196 ->197         0.57730
 This state for optimization and/or second-order correction.
 Total Energy, E(TD-HF/TD-DFT) =  -3547.06055773
 Copying the excited state density for this state as the 1-particle RhoCI density.

 Excited state symmetry could not be determined.
 Excited State   2:      Triplet-?Sym    2.3897 eV  518.83 nm  f=0.0000  <S**2>=2.000
     191 ->198         0.10781
     192 ->197         0.12190
     192 ->201         0.10205
     194 ->198         0.19275
     194 ->200        -0.11624
     195 ->197        -0.39694
     195 ->199        -0.21837
     196 ->198         0.39796

 Excited state symmetry could not be determined.
 Excited State   3:      Singlet-?Sym    2.9943 eV  414.06 nm  f=2.7047  <S**2>=0.000
     195 ->198        -0.13509
     196 ->197         0.68987

 Excited state symmetry could not be determined.
 Excited State   4:      Singlet-?Sym    3.3444 eV  370.72 nm  f=0.0000  <S**2>=0.000
     194 ->198        -0.10478
     195 ->197         0.57067
     196 ->198        -0.38469

 Alpha  occ. eigenvalues --  -88.91525 -88.91525 -88.91295 -88.91295 -14.33660
 Alpha  occ. eigenvalues --  -14.33660 -10.26352 -10.26352 -10.23564 -10.23563
 Alpha  occ. eigenvalues --  -10.23185 -10.23121 -10.22689 -10.22689 -10.22589
 Alpha  occ. eigenvalues --  -10.22589 -10.21758 -10.21758 -10.21403 -10.21403
 Alpha  occ. eigenvalues --  -10.21274 -10.21274 -10.21171 -10.21171 -10.21139
 Alpha  occ. eigenvalues --  -10.21139 -10.20772 -10.20772 -10.20581 -10.20581
 Alpha  occ. eigenvalues --  -10.20514 -10.20514 -10.20449 -10.20449 -10.20090
 Alpha  occ. eigenvalues --  -10.20090 -10.20059 -10.20059 -10.19900 -10.19900
 Alpha  occ. eigenvalues --  -10.19826 -10.19826 -10.19747 -10.19747 -10.19664
 Alpha  occ. eigenvalues --  -10.19664 -10.19631 -10.19631 -10.19611 -10.19611
 Alpha  occ. eigenvalues --  -10.19562 -10.19562 -10.19514 -10.19514  -7.97559
 Alpha  occ. eigenvalues --   -7.97558  -7.97412  -7.97412  -5.94016  -5.94016
 Alpha  occ. eigenvalues --   -5.93816  -5.93816  -5.93667  -5.93666  -5.93478
 Alpha  occ. eigenvalues --   -5.93478  -5.93149  -5.93149  -5.93082  -5.93082
 Alpha  occ. eigenvalues --   -0.96804  -0.96804  -0.91957  -0.88674  -0.87798
 Alpha  occ. eigenvalues --   -0.87660  -0.87188  -0.86610  -0.84436  -0.82420
 Alpha  occ. eigenvalues --   -0.81993  -0.81708  -0.80633  -0.80621  -0.79695
 Alpha  occ. eigenvalues --   -0.78740  -0.77184  -0.76742  -0.75903  -0.75772
 Alpha  occ. eigenvalues --   -0.75398  -0.74981  -0.74008  -0.73889  -0.73750
 Alpha  occ. eigenvalues --   -0.72551  -0.71174  -0.70569  -0.69546  -0.66421
 Alpha  occ. eigenvalues --   -0.64435  -0.63311  -0.63246  -0.62868  -0.62591
 Alpha  occ. eigenvalues --   -0.62176  -0.61231  -0.60412  -0.60196  -0.59321
 Alpha  occ. eigenvalues --   -0.58903  -0.58069  -0.57803  -0.56871  -0.56345
 Alpha  occ. eigenvalues --   -0.56298  -0.52964  -0.52506  -0.52066  -0.52039
 Alpha  occ. eigenvalues --   -0.51632  -0.50876  -0.50111  -0.49717  -0.49499
 Alpha  occ. eigenvalues --   -0.48819  -0.47590  -0.47446  -0.46577  -0.46159
 Alpha  occ. eigenvalues --   -0.45555  -0.45494  -0.45191  -0.45125  -0.45039
 Alpha  occ. eigenvalues --   -0.44716  -0.44562  -0.44061  -0.43661  -0.43387
 Alpha  occ. eigenvalues --   -0.43102  -0.43040  -0.42944  -0.42862  -0.42755
 Alpha  occ. eigenvalues --   -0.42557  -0.41993  -0.41522  -0.41499  -0.40772
 Alpha  occ. eigenvalues --   -0.40478  -0.39847  -0.39789  -0.39449  -0.39028
 Alpha  occ. eigenvalues --   -0.38721  -0.38711  -0.38509  -0.37285  -0.37228
 Alpha  occ. eigenvalues --   -0.37154  -0.36808  -0.36389  -0.35900  -0.35737
 Alpha  occ. eigenvalues --   -0.35616  -0.35180  -0.34952  -0.34793  -0.34560
 Alpha  occ. eigenvalues --   -0.34078  -0.33973  -0.33117  -0.33107  -0.32525
 Alpha  occ. eigenvalues --   -0.32079  -0.32045  -0.30837  -0.30619  -0.29209
 Alpha  occ. eigenvalues --   -0.28796  -0.27801  -0.27695  -0.27694  -0.27183
 Alpha  occ. eigenvalues --   -0.26256  -0.26135  -0.26082  -0.25172  -0.24746
 Alpha  occ. eigenvalues --   -0.23391  -0.22943  -0.22472  -0.21485  -0.20862
 Alpha  occ. eigenvalues --   -0.19907
 Alpha virt. eigenvalues --   -0.07522  -0.06502  -0.04675  -0.03884  -0.03541
 Alpha virt. eigenvalues --   -0.01708  -0.01401  -0.01088  -0.00889  -0.00826
 Alpha virt. eigenvalues --   -0.00233   0.00007   0.01331   0.01440   0.01513

 Mulliken charges:
               1
     1  C   -0.128771
     2  C   -0.139721
     3  C   -0.191583
     4  C    0.100252
     5  C    0.162670
     6  C   -0.202905
     7  C   -0.209500
     8  C   -0.144701
     9  C    0.303365
    10  N   -0.523530
    11  C    0.048269
    12  C    0.132545
    13  C   -0.158904
    14  C   -0.179059
    15  C    0.097526
    16  C    0.107205
    17  C   -0.191964
    18  C   -0.176711
    19  C    0.141211
    20  C   -0.123676
    21  C   -0.236698
    22  S    0.240223
    23  C   -0.187317
    24  C    0.141211
    25  C   -0.176711
    26  C   -0.191964
    27  C    0.107205
    28  C    0.097526
    29  C   -0.179059
    30  C   -0.158904
    31  C    0.132545
    32  C    0.048269
    33  N   -0.523530
    34  C    0.303365
    35  C   -0.144701
    36  C   -0.209500
    37  C    0.162670
    38  C   -0.202905
    39  C   -0.128771
    40  C   -0.139721
    41  C   -0.191583
    42  C    0.100252
    43  C   -0.237606
    44  S    0.225399
    45  C   -0.197505
    46  C   -0.186117
    47  C   -0.236698
    48  C   -0.123676
    49  S    0.240223
    50  C   -0.187317
    51  C   -0.186117
    52  C   -0.197505
    53  S    0.225399
    54  C   -0.237606
    55  H    0.133211
    56  H    0.134546
    57  H    0.143299
    58  H    0.133850
    59  H    0.134723
    60  H    0.144963
    61  H    0.166427
    62  H    0.139416
    63  H    0.139581
    64  H    0.145623
    65  H    0.150562
    66  H    0.145623
    67  H    0.139581
    68  H    0.139416
    69  H    0.166427
    70  H    0.144963
    71  H    0.134723
    72  H    0.133850
    73  H    0.133211
    74  H    0.134546
    75  H    0.143299
    76  H    0.151854
    77  H    0.139548
    78  H    0.150562
    79  H    0.139548
    80  H    0.151854
 Sum of Mulliken charges =  -0.00000

 Dipole moment (field-independent basis, Debye):
    X=              0.0000    Y=             -0.0000    Z=             -0.0000  Tot=              0.0000
 Quadrupole moment (field-independent basis, Debye-Ang):
   XX=           -261.3003   YY=           -342.5842   ZZ=           -309.5066
   XY=              8.8152   XZ=            -12.9802   YZ=             -9.1725

 Normal termination of Gaussian 16 at Sat Nov  5 10:15:53 2022.
