 Gaussian 16, Revision B.01,
 Gaussian 16:  ES64L-G16RevB.01 20-Dec-2017

 -----------------------------
 #p b3lyp/6-31g(d) opt SCF=XQC
 -----------------------------

 ------------------------------
 Gaussian input prepared by ASE
 ------------------------------
 Symbolic Z-matrix:
 Charge =  0 Multiplicity = 1

 SCF Done:  E(RB3LYP) =  -3547.13260522     A.U. after   15 cycles
 SCF Done:  E(RB3LYP) =  -3547.14296095     A.U. after   12 cycles
 SCF Done:  E(RB3LYP) =  -3547.14341164     A.U. after   11 cycles
 SCF Done:  E(RB3LYP) =  -3547.14347930     A.U. after   11 cycles
 SCF Done:  E(RB3LYP) =  -3547.14348437     A.U. after    9 cycles
 SCF Done:  E(RB3LYP) =  -3547.14348476     A.U. after    7 cycles
 SCF Done:  E(RB3LYP) =  -3547.14348485     A.U. after    7 cycles
 SCF Done:  E(RB3LYP) =  -3547.14348490     A.U. after    6 cycles
 SCF Done:  E(RB3LYP) =  -3547.14348495     A.U. after    7 cycles
 SCF Done:  E(RB3LYP) =  -3547.14348500     A.U. after    7 cycles
 SCF Done:  E(RB3LYP) =  -3547.14348503     A.U. after    7 cycles
 SCF Done:  E(RB3LYP) =  -3547.14348504     A.U. after    6 cycles
 Optimization completed.
    -- Stationary point found.

                         Standard orientation:
 ---------------------------------------------------------------------
 Center     Atomic      Atomic             Coordinates (Angstroms)
 Number     Number       Type             X           Y           Z
 ---------------------------------------------------------------------
      1          6           0      -16.852909    0.719735   -0.349215
      2          6           0      -15.966106    1.806321   -0.523543
      3          6           0      -14.604009    1.616876   -0.426118
      4          6           0      -14.069163    0.333133   -0.150171
      5          6           0      -14.965156   -0.773717    0.027602
      6          6           0      -16.359287   -0.539195   -0.080097
      7          6           0      -14.445476   -2.076477    0.306404
      8          6           0      -13.099356   -2.309165    0.411584
      9          6           0      -12.191966   -1.228889    0.239692
     10          7           0      -10.822216   -1.346527    0.322928
     11          6           0      -10.225631   -0.206377    0.125229
     12          6           0       -8.771061   -0.026862    0.154323
     13          6           0       -7.948870   -1.135639    0.425235
     14          6           0       -6.568057   -1.000385    0.461544
     15          6           0       -5.947214    0.241259    0.228626
     16          6           0       -4.472410    0.381801    0.264579
     17          6           0       -3.870766    1.554087    0.781207
     18          6           0       -2.494546    1.708984    0.825739
     19          6           0       -1.660922    0.683884    0.347069
     20          6           0       -2.263826   -0.493422   -0.171011
     21          6           0       -3.647364   -0.645951   -0.213786
     22         16           0       -1.068858   -1.671846   -0.737380
     23          6           0        0.232884   -0.588518   -0.273054
     24          6           0        1.660922   -0.683884   -0.347069
     25          6           0        2.494546   -1.708984   -0.825740
     26          6           0        3.870766   -1.554087   -0.781208
     27          6           0        4.472410   -0.381801   -0.264579
     28          6           0        5.947214   -0.241259   -0.228626
     29          6           0        6.568057    1.000385   -0.461545
     30          6           0        7.948870    1.135639   -0.425236
     31          6           0        8.771061    0.026862   -0.154324
     32          6           0       10.225631    0.206377   -0.125229
     33          7           0       10.822216    1.346527   -0.322927
     34          6           0       12.191966    1.228889   -0.239691
     35          6           0       13.099356    2.309165   -0.411581
     36          6           0       14.445476    2.076478   -0.306399
     37          6           0       14.965156    0.773717   -0.027599
     38          6           0       16.359287    0.539196    0.080101
     39          6           0       16.852909   -0.719735    0.349217
     40          6           0       15.966106   -1.806322    0.523543
     41          6           0       14.604009   -1.616877    0.426117
     42          6           0       14.069163   -0.333133    0.150172
     43          6           0       12.679211   -0.056704    0.034224
     44         16           0       11.332450   -1.159601    0.190398
     45          6           0        8.158848   -1.215070    0.077775
     46          6           0        6.775509   -1.344830    0.040939
     47          6           0        3.647364    0.645951    0.213786
     48          6           0        2.263826    0.493422    0.171011
     49         16           0        1.068858    1.671847    0.737380
     50          6           0       -0.232884    0.588518    0.273053
     51          6           0       -6.775509    1.344830   -0.040939
     52          6           0       -8.158848    1.215070   -0.077775
     53         16           0      -11.332450    1.159600   -0.190403
     54          6           0      -12.679211    0.056703   -0.034225
     55          1           0      -17.924554    0.879883   -0.428059
     56          1           0      -16.360954    2.796050   -0.735566
     57          1           0      -13.926387    2.456049   -0.561201
     58          1           0      -17.038589   -1.377648    0.054562
     59          1           0      -15.151216   -2.893045    0.435534
     60          1           0      -12.703034   -3.297029    0.623013
     61          1           0       -8.416528   -2.095392    0.615697
     62          1           0       -5.958001   -1.866034    0.703228
     63          1           0       -4.505041    2.339821    1.179733
     64          1           0       -2.059866    2.615533    1.237947
     65          1           0       -4.086980   -1.541981   -0.641136
     66          1           0        2.059866   -2.615533   -1.237948
     67          1           0        4.505041   -2.339821   -1.179734
     68          1           0        5.958001    1.866033   -0.703229
     69          1           0        8.416528    2.095392   -0.615698
     70          1           0       12.703034    3.297030   -0.623008
     71          1           0       15.151216    2.893046   -0.435527
     72          1           0       17.038589    1.377648   -0.054556
     73          1           0       17.924554   -0.879883    0.428063
     74          1           0       16.360954   -2.796050    0.735564
     75          1           0       13.926387   -2.456050    0.561197
     76          1           0        8.763444   -2.090260    0.300872
     77          1           0        6.328716   -2.311549    0.253212
     78          1           0        4.086980    1.541981    0.641136
     79          1           0       -6.328717    2.311550   -0.253212
     80          1           0       -8.763444    2.090260   -0.300871
 ---------------------------------------------------------------------

 The electronic state is 1-A.
 Alpha  occ. eigenvalues --  -88.91525 -88.91525 -88.91295 -88.91295 -14.33660
 Alpha  occ. eigenvalues --  -14.33660 -10.26352 -10.26352 -10.23563 -10.23563
 Alpha  occ. eigenvalues --  -10.23185 -10.23121 -10.22689 -10.22689 -10.22589
 Alpha  occ. eigenvalues --  -10.22589 -10.21758 -10.21758 -10.21403 -10.21403
 Alpha  occ. eigenvalues --  -10.21274 -10.21274 -10.21171 -10.21171 -10.21139
 Alpha  occ. eigenvalues --  -10.21139 -10.20772 -10.20772 -10.20581 -10.20581
 Alpha  occ. eigenvalues --  -10.20514 -10.20514 -10.20449 -10.20449 -10.20090
 Alpha  occ. eigenvalues --  -10.20090 -10.20059 -10.20059 -10.19900 -10.19900
 Alpha  occ. eigenvalues --  -10.19826 -10.19826 -10.19747 -10.19747 -10.19664
 Alpha  occ. eigenvalues --  -10.19664 -10.19631 -10.19631 -10.19611 -10.19611
 Alpha  occ. eigenvalues --  -10.19562 -10.19562 -10.19514 -10.19514  -7.97559
 Alpha  occ. eigenvalues --   -7.97557  -7.97412  -7.97412  -5.94016  -5.94015
 Alpha  occ. eigenvalues --   -5.93816  -5.93816  -5.93667  -5.93666  -5.93477
 Alpha  occ. eigenvalues --   -5.93477  -5.93149  -5.93149  -5.93082  -5.93082
 Alpha  occ. eigenvalues --   -0.96804  -0.96804  -0.91957  -0.88674  -0.87798
 Alpha  occ. eigenvalues --   -0.87660  -0.87188  -0.86610  -0.84436  -0.82420
 Alpha  occ. eigenvalues --   -0.81993  -0.81708  -0.80633  -0.80621  -0.79695
 Alpha  occ. eigenvalues --   -0.78740  -0.77184  -0.76742  -0.75903  -0.75772
 Alpha  occ. eigenvalues --   -0.75398  -0.74981  -0.74008  -0.73889  -0.73750
 Alpha  occ. eigenvalues --   -0.72551  -0.71174  -0.70569  -0.69545  -0.66421
 Alpha  occ. eigenvalues --   -0.64435  -0.63311  -0.63246  -0.62868  -0.62591
 Alpha  occ. eigenvalues --   -0.62176  -0.61231  -0.60412  -0.60196  -0.59321
 Alpha  occ. eigenvalues --   -0.58903  -0.58069  -0.57803  -0.56871  -0.56345
 Alpha  occ. eigenvalues --   -0.56298  -0.52964  -0.52506  -0.52066  -0.52039
 Alpha  occ. eigenvalues --   -0.51632  -0.50876  -0.50111  -0.49717  -0.49499
 Alpha  occ. eigenvalues --   -0.48818  -0.47590  -0.47446  -0.46577  -0.46159
 Alpha  occ. eigenvalues --   -0.45555  -0.45494  -0.45191  -0.45125  -0.45039
 Alpha  occ. eigenvalues --   -0.44716  -0.44562  -0.44061  -0.43661  -0.43387
 Alpha  occ. eigenvalues --   -0.43102  -0.43040  -0.42944  -0.42862  -0.42755
 Alpha  occ. eigenvalues --   -0.42557  -0.41993  -0.41522  -0.41499  -0.40772
 Alpha  occ. eigenvalues --   -0.40478  -0.39847  -0.39789  -0.39449  -0.39028
 Alpha  occ. eigenvalues --   -0.38721  -0.38711  -0.38509  -0.37285  -0.37228
 Alpha  occ. eigenvalues --   -0.37154  -0.36808  -0.36389  -0.35900  -0.35737
 Alpha  occ. eigenvalues --   -0.35616  -0.35180  -0.34952  -0.34793  -0.34560
 Alpha  occ. eigenvalues --   -0.34078  -0.33973  -0.33117  -0.33107  -0.32525
 Alpha  occ. eigenvalues --   -0.32079  -0.32045  -0.30837  -0.30619  -0.29209
 Alpha  occ. eigenvalues --   -0.28796  -0.27801  -0.27695  -0.27694  -0.27182
 Alpha  occ. eigenvalues --   -0.26256  -0.26135  -0.26082  -0.25171  -0.24746
 Alpha  occ. eigenvalues --   -0.23391  -0.22943  -0.22472  -0.21485  -0.20862
 Alpha  occ. eigenvalues --   -0.19907
 Alpha virt. eigenvalues --   -0.07522  -0.06502  -0.04675  -0.03883  -0.03541
 Alpha virt. eigenvalues --   -0.01708  -0.01401  -0.01088  -0.00889  -0.00826
 Alpha virt. eigenvalues --   -0.00233   0.00007   0.01331   0.01440   0.01513

 Mulliken charges:
               1
     1  C   -0.128768
     2  C   -0.139722
     3  C   -0.191584
     4  C    0.100254
     5  C    0.162672
     6  C   -0.202908
     7  C   -0.209504
     8  C   -0.144702
     9  C    0.303367
    10  N   -0.523531
    11  C    0.048268
    12  C    0.132544
    13  C   -0.158909
    14  C   -0.179055
    15  C    0.097523
    16  C    0.107210
    17  C   -0.191969
    18  C   -0.176715
    19  C    0.141223
    20  C   -0.123684
    21  C   -0.236700
    22  S    0.240231
    23  C   -0.187324
    24  C    0.141223
    25  C   -0.176715
    26  C   -0.191969
    27  C    0.107210
    28  C    0.097523
    29  C   -0.179055
    30  C   -0.158909
    31  C    0.132544
    32  C    0.048268
    33  N   -0.523531
    34  C    0.303367
    35  C   -0.144702
    36  C   -0.209504
    37  C    0.162672
    38  C   -0.202908
    39  C   -0.128768
    40  C   -0.139722
    41  C   -0.191584
    42  C    0.100254
    43  C   -0.237607
    44  S    0.225403
    45  C   -0.197499
    46  C   -0.186116
    47  C   -0.236700
    48  C   -0.123684
    49  S    0.240231
    50  C   -0.187324
    51  C   -0.186116
    52  C   -0.197499
    53  S    0.225403
    54  C   -0.237607
    55  H    0.133210
    56  H    0.134546
    57  H    0.143299
    58  H    0.133850
    59  H    0.134723
    60  H    0.144964
    61  H    0.166427
    62  H    0.139415
    63  H    0.139582
    64  H    0.145623
    65  H    0.150562
    66  H    0.145623
    67  H    0.139582
    68  H    0.139415
    69  H    0.166427
    70  H    0.144964
    71  H    0.134723
    72  H    0.133850
    73  H    0.133210
    74  H    0.134546
    75  H    0.143299
    76  H    0.151854
    77  H    0.139548
    78  H    0.150562
    79  H    0.139548
    80  H    0.151854
 Sum of Mulliken charges =  -0.00000

 Dipole moment (field-independent basis, Debye):
    X=             -0.0000    Y=              0.0000    Z=              0.0000  Tot=              0.0000
 Quadrupole moment (field-independent basis, Debye-Ang):
   XX=           -260.9974   YY=           -307.2790   ZZ=           -345.1150
   XY=            -14.4482   XZ=              4.0650   YZ=             -1.0073

 Normal termination of Gaussian 16 at Fri Nov  4 23:45:48 2022.
