 Gaussian 16, Revision B.01,
 Gaussian 16:  ES64L-G16RevB.01 20-Dec-2017

 -------------------------------------------------------------------
 #p b3lyp/6-31g(d) 6D 10F nosymm GFInput td=(50-50,nstate=2) SCF=XQC
 -------------------------------------------------------------------

 ------------------------------
 Gaussian input prepared by ASE
 ------------------------------
 Symbolic Z-matrix:
 Charge =  0 Multiplicity = 1

                          Input orientation:
 ---------------------------------------------------------------------
 Center     Atomic      Atomic             Coordinates (Angstroms)
 Number     Number       Type             X           Y           Z
 ---------------------------------------------------------------------
      1          6           0       -8.742067    5.979199   -2.736845
      2          6           0       -8.002077    4.751202   -2.259997
      3          6           0       -7.485626    3.818744   -3.166565
      4          6           0       -6.831316    2.679277   -2.709394
      5          6           0       -6.665985    2.419734   -1.338575
      6          6           0       -5.948323    1.177461   -0.929593
      7          6           0       -4.673057    0.895992   -1.473121
      8          6           0       -3.969097   -0.263515   -1.161894
      9          6           0       -4.564265   -1.165351   -0.280159
     10          6           0       -5.839654   -0.918723    0.283856
     11          6           0       -6.524577    0.253409   -0.049871
     12          6           0       -6.143841   -2.045772    1.144356
     13          6           0       -7.230758   -2.377571    1.961410
     14          6           0       -7.196541   -3.565907    2.686308
     15          6           0       -6.089047   -4.426960    2.600507
     16          6           0       -4.995259   -4.123194    1.792128
     17          6           0       -5.037998   -2.929523    1.070636
     18          7           0       -4.089130   -2.393478    0.192152
     19          6           0       -2.775709   -2.905656   -0.014090
     20          6           0       -1.758958   -2.522464    0.860763
     21          6           0       -0.443828   -2.987583    0.705586
     22          6           0        0.625044   -2.569830    1.647537
     23          6           0        0.363085   -2.398867    3.015012
     24          6           0        1.371254   -2.008388    3.892007
     25          6           0        2.668472   -1.777409    3.430540
     26          6           0        3.752586   -1.359363    4.396304
     27          9           0        4.771032   -2.244168    4.415718
     28          9           0        4.268874   -0.154531    4.076640
     29          9           0        3.280278   -1.267723    5.659649
     30          6           0        2.948073   -1.942564    2.062472
     31          7           0        4.252244   -1.711826    1.537329
     32          6           0        5.216514   -2.699632    1.304924
     33          6           0        5.204010   -4.046250    1.670573
     34          6           0        6.307142   -4.820425    1.315748
     35          6           0        7.394585   -4.267550    0.617747
     36          6           0        7.399153   -2.922125    0.259198
     37          6           0        6.302173   -2.122221    0.599710
     38          6           0        5.970616   -0.726712    0.386732
     39          6           0        6.624848    0.337066   -0.241969
     40          6           0        6.019228    1.598278   -0.302693
     41          6           0        6.736425    2.740208   -0.940911
     42          6           0        8.037668    3.043347   -0.507915
     43          6           0        8.770059    4.088560   -1.062634
     44          6           0        8.221978    4.875665   -2.081131
     45          6           0        8.988894    6.034941   -2.673515
     46          6           0        6.932544    4.562467   -2.522466
     47          6           0        6.174863    3.516897   -1.979900
     48          6           0        4.801324    3.238354   -2.552698
     49          6           0        4.747506    1.772412    0.290168
     50          6           0        4.075260    0.734121    0.927830
     51          6           0        4.697464   -0.513697    0.968559
     52          6           0        1.931255   -2.333999    1.191342
     53          6           0       -0.172961   -3.855324   -0.362801
     54          6           0       -1.180976   -4.243211   -1.241132
     55          6           0       -2.486951   -3.777117   -1.079166
     56          6           0       -3.570225   -4.211340   -2.038729
     57          9           0       -4.114493   -3.160225   -2.686351
     58          9           0       -4.569874   -4.857032   -1.402979
     59          9           0       -3.087830   -5.052806   -2.980392
     60          6           0       -7.169419    3.359748   -0.410820
     61          6           0       -7.000328    3.201162    1.085366
     62          6           0       -7.822396    4.500175   -0.896498
     63          1           0       -8.722471    6.776354   -1.986176
     64          1           0       -9.796777    5.753928   -2.945366
     65          1           0       -8.308721    6.375101   -3.662134
     66          1           0       -7.597943    3.982975   -4.236147
     67          1           0       -6.447589    1.958159   -3.426537
     68          1           0       -4.225525    1.619255   -2.148912
     69          1           0       -2.992660   -0.456356   -1.595079
     70          1           0       -7.514259    0.439132    0.357193
     71          1           0       -8.089665   -1.715061    2.029501
     72          1           0       -8.034662   -3.833280    3.323445
     73          1           0       -6.084655   -5.351135    3.172002
     74          1           0       -4.146194   -4.795620    1.719521
     75          1           0       -2.006453   -1.828359    1.657466
     76          1           0       -0.630996   -2.596883    3.403929
     77          1           0        1.153820   -1.889845    4.947028
     78          1           0        4.370538   -4.473695    2.219183
     79          1           0        6.326005   -5.871949    1.589023
     80          1           0        8.240430   -4.897673    0.358176
     81          1           0        8.242264   -2.498056   -0.279841
     82          1           0        7.598729    0.187960   -0.700600
     83          1           0        8.472051    2.449749    0.292351
     84          1           0        9.774100    4.295619   -0.698498
     85          1           0       10.063962    5.827120   -2.712337
     86          1           0        8.651311    6.261949   -3.690380
     87          1           0        8.857832    6.947356   -2.076006
     88          1           0        6.500399    5.147323   -3.333086
     89          1           0        4.720310    3.640552   -3.567920
     90          1           0        4.003736    3.702703   -1.958388
     91          1           0        4.586538    2.166040   -2.590677
     92          1           0        4.290466    2.757059    0.270069
     93          1           0        3.107499    0.898620    1.391086
     94          1           0        2.171060   -2.427992    0.137097
     95          1           0        0.828624   -4.252439   -0.496171
     96          1           0       -0.956264   -4.921366   -2.055998
     97          1           0       -6.043614    2.735625    1.340237
     98          1           0       -7.051527    4.175658    1.582214
     99          1           0       -7.787161    2.574947    1.525721
    100          1           0       -8.194421    5.228143   -0.177084
 ---------------------------------------------------------------------

 SCF Done:  E(RB3LYP) =  -2789.29081614     A.U. after   15 cycles

 Excitation energies and oscillator strengths:

 Excited state symmetry could not be determined.
 Excited State   1:      Triplet-?Sym    2.8724 eV  431.64 nm  f=0.0000  <S**2>=2.000
     215 -> 216        0.69354
 This state for optimization and/or second-order correction.
 Total Energy, E(TD-HF/TD-DFT) =  -2789.18525867
 Copying the excited state density for this state as the 1-particle RhoCI density.

 Excited state symmetry could not be determined.
 Excited State   2:      Triplet-?Sym    2.8877 eV  429.36 nm  f=0.0000  <S**2>=2.000
     214 -> 216        0.69084

 Excited state symmetry could not be determined.
 Excited State   3:      Singlet-?Sym    2.8878 eV  429.34 nm  f=0.0023  <S**2>=0.000
     215 -> 216        0.69627

 Excited state symmetry could not be determined.
 Excited State   4:      Singlet-?Sym    2.9051 eV  426.78 nm  f=0.0042  <S**2>=0.000
     214 -> 216        0.69606

 Alpha  occ. eigenvalues --  -24.73445 -24.73432 -24.72835 -24.72832 -24.72821
 Alpha  occ. eigenvalues --  -24.72818 -14.38700 -14.38680 -10.44363 -10.44350
 Alpha  occ. eigenvalues --  -10.26620 -10.26608 -10.23907 -10.23878 -10.23839
 Alpha  occ. eigenvalues --  -10.23828 -10.22837 -10.22835 -10.22831 -10.22807
 Alpha  occ. eigenvalues --  -10.22761 -10.22737 -10.22657 -10.22649 -10.22629
 Alpha  occ. eigenvalues --  -10.22625 -10.19207 -10.19183 -10.19146 -10.19144
 Alpha  occ. eigenvalues --  -10.19140 -10.19118 -10.19111 -10.19105 -10.19098
 Alpha  occ. eigenvalues --  -10.19093 -10.19078 -10.19073 -10.19062 -10.19058
 Alpha  occ. eigenvalues --  -10.19039 -10.19036 -10.18936 -10.18917 -10.18914
 Alpha  occ. eigenvalues --  -10.18866 -10.18846 -10.18836 -10.18765 -10.18729
 Alpha  occ. eigenvalues --  -10.18428 -10.18398 -10.18007 -10.18001 -10.17985
 Alpha  occ. eigenvalues --  -10.17972 -10.17762 -10.17735 -10.17677 -10.17672
 Alpha  occ. eigenvalues --  -10.17672 -10.17660  -1.30874  -1.30860  -1.22236
 Alpha  occ. eigenvalues --   -1.22222  -1.21878  -1.21865  -0.99810  -0.99786
 Alpha  occ. eigenvalues --   -0.90820  -0.89312  -0.86180  -0.86019  -0.85210
 Alpha  occ. eigenvalues --   -0.84702  -0.84225  -0.84143  -0.82746  -0.79926
 Alpha  occ. eigenvalues --   -0.79693  -0.78904  -0.77840  -0.77743  -0.76876
 Alpha  occ. eigenvalues --   -0.76583  -0.75915  -0.75746  -0.74527  -0.74378
 Alpha  occ. eigenvalues --   -0.73062  -0.72765  -0.71865  -0.71805  -0.71733
 Alpha  occ. eigenvalues --   -0.69532  -0.68234  -0.68193  -0.67781  -0.67520
 Alpha  occ. eigenvalues --   -0.65892  -0.65480  -0.64962  -0.63852  -0.62900
 Alpha  occ. eigenvalues --   -0.62293  -0.60735  -0.60692  -0.60169  -0.59460
 Alpha  occ. eigenvalues --   -0.58965  -0.58885  -0.58731  -0.58617  -0.58607
 Alpha  occ. eigenvalues --   -0.58523  -0.57734  -0.57565  -0.57332  -0.56943
 Alpha  occ. eigenvalues --   -0.55697  -0.55636  -0.54565  -0.52601  -0.51890
 Alpha  occ. eigenvalues --   -0.51874  -0.51280  -0.51265  -0.50426  -0.50207
 Alpha  occ. eigenvalues --   -0.48867  -0.47718  -0.47540  -0.47228  -0.47146
 Alpha  occ. eigenvalues --   -0.46761  -0.46619  -0.46589  -0.46319  -0.46304
 Alpha  occ. eigenvalues --   -0.46117  -0.45706  -0.45506  -0.45412  -0.44589
 Alpha  occ. eigenvalues --   -0.44439  -0.44000  -0.43856  -0.43773  -0.43594
 Alpha  occ. eigenvalues --   -0.42812  -0.42743  -0.42719  -0.42514  -0.42472
 Alpha  occ. eigenvalues --   -0.42384  -0.42298  -0.42246  -0.42151  -0.41812
 Alpha  occ. eigenvalues --   -0.41756  -0.41546  -0.41503  -0.41388  -0.41073
 Alpha  occ. eigenvalues --   -0.40692  -0.40607  -0.40526  -0.40345  -0.40330
 Alpha  occ. eigenvalues --   -0.40093  -0.40083  -0.39873  -0.39040  -0.39021
 Alpha  occ. eigenvalues --   -0.38762  -0.38293  -0.38112  -0.37418  -0.37347
 Alpha  occ. eigenvalues --   -0.37282  -0.37027  -0.36943  -0.36600  -0.36545
 Alpha  occ. eigenvalues --   -0.35407  -0.35390  -0.34663  -0.34536  -0.34222
 Alpha  occ. eigenvalues --   -0.34200  -0.33486  -0.33400  -0.32787  -0.32754
 Alpha  occ. eigenvalues --   -0.32497  -0.32477  -0.31945  -0.31830  -0.31301
 Alpha  occ. eigenvalues --   -0.28767  -0.28675  -0.28000  -0.27963  -0.26541
 Alpha  occ. eigenvalues --   -0.25612  -0.25542  -0.23624  -0.23610  -0.23000
 Alpha  occ. eigenvalues --   -0.22962  -0.21393  -0.21353  -0.20020  -0.19973
 Alpha virt. eigenvalues --   -0.07477  -0.04501  -0.03938  -0.02914  -0.02888
 Alpha virt. eigenvalues --   -0.02079  -0.01036  -0.00991   0.00725   0.00779
 Alpha virt. eigenvalues --    0.01322   0.01336   0.03203   0.03248   0.04533

 Mulliken charges:
               1
     1  C   -0.531087
     2  C    0.194487
     3  C   -0.190114
     4  C   -0.167706
     5  C    0.014674
     6  C    0.060102
     7  C   -0.186666
     8  C   -0.174259
     9  C    0.321402
    10  C    0.071026
    11  C   -0.247628
    12  C    0.059914
    13  C   -0.196389
    14  C   -0.144497
    15  C   -0.141986
    16  C   -0.173802
    17  C    0.317659
    18  N   -0.751224
    19  C    0.208513
    20  C   -0.179704
    21  C    0.087547
    22  C    0.087554
    23  C   -0.161972
    24  C   -0.200795
    25  C   -0.027645
    26  C    0.840989
    27  F   -0.258954
    28  F   -0.258484
    29  F   -0.271872
    30  C    0.208538
    31  N   -0.751028
    32  C    0.317167
    33  C   -0.173866
    34  C   -0.141987
    35  C   -0.144566
    36  C   -0.196498
    37  C    0.060131
    38  C    0.071965
    39  C   -0.252719
    40  C    0.059342
    41  C    0.013885
    42  C   -0.165753
    43  C   -0.190470
    44  C    0.194502
    45  C   -0.530981
    46  C   -0.252316
    47  C    0.153161
    48  C   -0.533128
    49  C   -0.182167
    50  C   -0.174646
    51  C    0.321356
    52  C   -0.179651
    53  C   -0.161995
    54  C   -0.200822
    55  C   -0.027534
    56  C    0.840904
    57  F   -0.258653
    58  F   -0.258820
    59  F   -0.271854
    60  C    0.153439
    61  C   -0.532970
    62  C   -0.252092
    63  H    0.154685
    64  H    0.164222
    65  H    0.156217
    66  H    0.118737
    67  H    0.130599
    68  H    0.133259
    69  H    0.134360
    70  H    0.134389
    71  H    0.131834
    72  H    0.125754
    73  H    0.127948
    74  H    0.132133
    75  H    0.163335
    76  H    0.154033
    77  H    0.169437
    78  H    0.132001
    79  H    0.127820
    80  H    0.125777
    81  H    0.132924
    82  H    0.135470
    83  H    0.130768
    84  H    0.118751
    85  H    0.155970
    86  H    0.154814
    87  H    0.164231
    88  H    0.111954
    89  H    0.151847
    90  H    0.158362
    91  H    0.166574
    92  H    0.132413
    93  H    0.134513
    94  H    0.163440
    95  H    0.154265
    96  H    0.169510
    97  H    0.166980
    98  H    0.151787
    99  H    0.157997
   100  H    0.111933
 Sum of Mulliken charges =  -0.00000

 Dipole moment (field-independent basis, Debye):
    X=             -0.1869    Y=             -0.5974    Z=              0.3787  Tot=              0.7317
 Quadrupole moment (field-independent basis, Debye-Ang):
   XX=           -362.1351   YY=           -330.3246   ZZ=           -347.8737
   XY=            -11.3879   XZ=            -21.8799   YZ=            -12.0445

 Normal termination of Gaussian 16 at Sat Nov  5 10:22:45 2022.
