 Gaussian 16, Revision B.01,
 Gaussian 16:  ES64L-G16RevB.01 20-Dec-2017

 -------------------------------------------------------------------
 #p b3lyp/6-31g(d) 6D 10F nosymm GFInput td=(50-50,nstate=2) SCF=XQC
 -------------------------------------------------------------------

 ------------------------------
 Gaussian input prepared by ASE
 ------------------------------
 Symbolic Z-matrix:
 Charge =  0 Multiplicity = 1

                          Input orientation:
 ---------------------------------------------------------------------
 Center     Atomic      Atomic             Coordinates (Angstroms)
 Number     Number       Type             X           Y           Z
 ---------------------------------------------------------------------
      1          6           0      -10.696631    0.105498   -0.064537
      2          6           0       -9.770802   -0.679096    0.879333
      3          6           0      -10.428391   -2.018815    1.277049
      4          6           0       -8.365625   -0.907000    0.325782
      5          6           0       -8.137488   -0.956559   -1.034703
      6          6           0       -6.853860   -1.194463   -1.572274
      7          6           0       -5.757078   -1.384258   -0.758032
      8          6           0       -4.418782   -1.630157   -1.376915
      9          6           0       -4.118540   -2.866472   -1.960618
     10          6           0       -2.881930   -3.108142   -2.574964
     11          6           0       -1.911201   -2.114951   -2.625257
     12          6           0       -2.176046   -0.859801   -2.058738
     13          6           0       -3.428805   -0.635530   -1.441907
     14         16           0       -3.582182    1.012185   -0.813851
     15          6           0       -1.950967    1.405744   -1.368931
     16          6           0       -1.309850    2.636451   -1.222813
     17          6           0       -0.013426    2.803913   -1.718937
     18          6           0        0.702768    4.125966   -1.544487
     19          6           0        1.422878    4.280395   -0.173259
     20          6           0        2.595265    3.345939    0.038556
     21          6           0        2.431503    2.205752    0.798615
     22          6           0        3.489936    1.301497    1.021524
     23          6           0        4.747234    1.510186    0.485605
     24          6           0        5.830947    0.534597    0.793078
     25          6           0        7.037840    0.945378    1.402902
     26          6           0        8.025898    0.030613    1.741044
     27          6           0        7.840549   -1.335257    1.478665
     28          6           0        6.631644   -1.742740    0.873028
     29          6           0        5.635443   -0.827617    0.532919
     30         16           0        6.566387   -3.490807    0.613627
     31          6           0        8.173312   -3.685608    1.325901
     32          6           0        8.861264   -4.890194    1.485379
     33          6           0       10.125524   -4.862289    2.069036
     34          6           0       10.694991   -3.649591    2.487420
     35          6           0       10.006031   -2.452680    2.326431
     36          6           0        8.730460   -2.454487    1.741296
     37          6           0        4.959676    2.666967   -0.340699
     38          6           0        6.200945    2.911644   -0.991757
     39          6           0        6.395756    4.025857   -1.776680
     40          6           0        5.351083    4.959108   -1.951232
     41          6           0        4.127680    4.742518   -1.357858
     42          6           0        3.879705    3.595721   -0.551464
     43          6           0        0.615368    1.719138   -2.361405
     44          6           0       -0.023746    0.494321   -2.509911
     45          6           0       -1.322977    0.317072   -2.012626
     46          6           0       -5.939546   -1.358807    0.664249
     47          6           0       -4.853564   -1.586499    1.553738
     48          6           0       -5.029072   -1.570006    2.918172
     49          6           0       -6.309229   -1.322554    3.459780
     50          6           0       -7.384416   -1.105332    2.627221
     51          6           0       -7.249304   -1.117478    1.209340
     52          1           0      -10.962872   -0.474372   -0.955916
     53          1           0      -11.632139    0.348734    0.451748
     54          1           0      -10.236570    1.043309   -0.394179
     55          1           0       -9.675607   -0.071963    1.788346
     56          1           0      -10.572038   -2.650619    0.392486
     57          1           0      -11.410317   -1.848031    1.734859
     58          1           0       -9.812298   -2.578354    1.988101
     59          1           0       -8.958656   -0.802669   -1.727156
     60          1           0       -6.725517   -1.213799   -2.651196
     61          1           0       -4.867807   -3.652340   -1.925430
     62          1           0       -2.683665   -4.081711   -3.014385
     63          1           0       -0.954391   -2.306146   -3.103603
     64          1           0       -1.815280    3.464906   -0.731810
     65          1           0       -0.021374    4.945719   -1.633977
     66          1           0        1.431370    4.258398   -2.352149
     67          1           0        0.687462    4.108570    0.621105
     68          1           0        1.743546    5.324481   -0.071295
     69          1           0        1.463613    2.001044    1.248912
     70          1           0        3.321057    0.435431    1.655500
     71          1           0        7.182345    1.997651    1.627937
     72          1           0        8.940080    0.374381    2.217838
     73          1           0        4.716731   -1.157951    0.057359
     74          1           0        8.421237   -5.829020    1.161810
     75          1           0       10.674450   -5.790603    2.200531
     76          1           0       11.682181   -3.646374    2.940725
     77          1           0       10.452851   -1.517162    2.652488
     78          1           0        7.004350    2.193385   -0.872214
     79          1           0        7.353416    4.185000   -2.264987
     80          1           0        5.509474    5.843951   -2.561972
     81          1           0        3.332787    5.464251   -1.512157
     82          1           0        1.622442    1.847477   -2.748613
     83          1           0        0.484017   -0.324152   -3.013538
     84          1           0       -3.871524   -1.781027    1.135553
     85          1           0       -4.184300   -1.747327    3.578218
     86          1           0       -6.447936   -1.306697    4.537599
     87          1           0       -8.357747   -0.925635    3.069450
 ---------------------------------------------------------------------

 SCF Done:  E(RB3LYP) =  -2685.37703770     A.U. after   15 cycles

 Excitation energies and oscillator strengths:

 Excited state symmetry could not be determined.
 Excited State   1:      Triplet-?Sym    2.5795 eV  480.66 nm  f=0.0000  <S**2>=2.000
     174 ->186        -0.12845
     176 ->182         0.12417
     176 ->185        -0.17666
     179 ->182        -0.11036
     181 ->182         0.56886
     181 ->185        -0.26096
 This state for optimization and/or second-order correction.
 Total Energy, E(TD-HF/TD-DFT) =  -2685.28224462
 Copying the excited state density for this state as the 1-particle RhoCI density.

 Excited state symmetry could not be determined.
 Excited State   2:      Triplet-?Sym    2.6701 eV  464.34 nm  f=0.0000  <S**2>=2.000
     175 ->187         0.14481
     179 ->183         0.13467
     180 ->183         0.59917
     180 ->184        -0.26590

 Excited state symmetry could not be determined.
 Excited State   3:      Singlet-?Sym    3.8245 eV  324.18 nm  f=0.5605  <S**2>=0.000
     181 ->182         0.69456

 Excited state symmetry could not be determined.
 Excited State   4:      Singlet-?Sym    3.9944 eV  310.40 nm  f=0.0180  <S**2>=0.000
     178 ->182         0.66375
     178 ->185         0.11480

 Alpha  occ. eigenvalues --  -88.90091 -88.89555 -10.22504 -10.22488 -10.22068
 Alpha  occ. eigenvalues --  -10.21917 -10.20440 -10.20336 -10.20294 -10.20289
 Alpha  occ. eigenvalues --  -10.20006 -10.19957 -10.19933 -10.19896 -10.19857
 Alpha  occ. eigenvalues --  -10.19795 -10.19773 -10.19716 -10.19708 -10.19706
 Alpha  occ. eigenvalues --  -10.19602 -10.19588 -10.19571 -10.19549 -10.19513
 Alpha  occ. eigenvalues --  -10.19488 -10.19330 -10.19312 -10.19299 -10.19291
 Alpha  occ. eigenvalues --  -10.19277 -10.19259 -10.19227 -10.19213 -10.19090
 Alpha  occ. eigenvalues --  -10.19061 -10.18949 -10.18938 -10.18922 -10.18787
 Alpha  occ. eigenvalues --  -10.18734 -10.18661 -10.18644 -10.18567 -10.18545
 Alpha  occ. eigenvalues --  -10.18533 -10.18517 -10.18326 -10.18276 -10.17522
 Alpha  occ. eigenvalues --  -10.17484  -7.96189  -7.95611  -5.92642  -5.92294
 Alpha  occ. eigenvalues --   -5.92067  -5.91776  -5.91712  -5.91203  -0.89758
 Alpha  occ. eigenvalues --   -0.89431  -0.87576  -0.87170  -0.85313  -0.85078
 Alpha  occ. eigenvalues --   -0.82429  -0.82132  -0.81932  -0.81061  -0.80461
 Alpha  occ. eigenvalues --   -0.79464  -0.77940  -0.77110  -0.75988  -0.75109
 Alpha  occ. eigenvalues --   -0.74964  -0.74211  -0.73793  -0.73496  -0.73200
 Alpha  occ. eigenvalues --   -0.72008  -0.71038  -0.70387  -0.69551  -0.69381
 Alpha  occ. eigenvalues --   -0.68195  -0.65415  -0.63733  -0.62932  -0.62035
 Alpha  occ. eigenvalues --   -0.61400  -0.61202  -0.61000  -0.60275  -0.59234
 Alpha  occ. eigenvalues --   -0.59077  -0.58755  -0.58597  -0.58259  -0.56845
 Alpha  occ. eigenvalues --   -0.56037  -0.54750  -0.51910  -0.51900  -0.51473
 Alpha  occ. eigenvalues --   -0.50730  -0.50286  -0.49681  -0.49574  -0.48517
 Alpha  occ. eigenvalues --   -0.48360  -0.48138  -0.47988  -0.47274  -0.45770
 Alpha  occ. eigenvalues --   -0.45398  -0.45295  -0.44835  -0.44691  -0.44315
 Alpha  occ. eigenvalues --   -0.43956  -0.43660  -0.43531  -0.43376  -0.43152
 Alpha  occ. eigenvalues --   -0.42270  -0.42144  -0.42092  -0.41685  -0.41440
 Alpha  occ. eigenvalues --   -0.41211  -0.41123  -0.40823  -0.40556  -0.40109
 Alpha  occ. eigenvalues --   -0.40030  -0.39661  -0.39512  -0.39169  -0.38901
 Alpha  occ. eigenvalues --   -0.38303  -0.37992  -0.37779  -0.37447  -0.37258
 Alpha  occ. eigenvalues --   -0.36460  -0.36119  -0.35924  -0.35569  -0.35307
 Alpha  occ. eigenvalues --   -0.35089  -0.35014  -0.34383  -0.34359  -0.34170
 Alpha  occ. eigenvalues --   -0.33976  -0.33763  -0.33325  -0.33131  -0.32763
 Alpha  occ. eigenvalues --   -0.32246  -0.32178  -0.31792  -0.31682  -0.31090
 Alpha  occ. eigenvalues --   -0.30952  -0.30571  -0.28812  -0.27754  -0.27223
 Alpha  occ. eigenvalues --   -0.26958  -0.26007  -0.25415  -0.24200  -0.23865
 Alpha  occ. eigenvalues --   -0.22781  -0.21622  -0.21481  -0.20948  -0.20713
 Alpha  occ. eigenvalues --   -0.20377
 Alpha virt. eigenvalues --   -0.04727  -0.03698  -0.03146  -0.02853  -0.01000
 Alpha virt. eigenvalues --   -0.00619  -0.00369  -0.00315  -0.00033   0.00180
 Alpha virt. eigenvalues --    0.01638   0.02380   0.02448   0.03686   0.04110

 Mulliken charges:
               1
     1  C   -0.452978
     2  C   -0.156547
     3  C   -0.438226
     4  C    0.135826
     5  C   -0.214733
     6  C   -0.167773
     7  C   -0.015221
     8  C    0.004150
     9  C   -0.142551
    10  C   -0.149379
    11  C   -0.168293
    12  C    0.116926
    13  C   -0.198248
    14  S    0.222272
    15  C   -0.133581
    16  C   -0.249855
    17  C    0.197576
    18  C   -0.355241
    19  C   -0.355192
    20  C    0.137171
    21  C   -0.202161
    22  C   -0.176826
    23  C    0.017158
    24  C    0.080433
    25  C   -0.186940
    26  C   -0.174840
    27  C    0.111884
    28  C   -0.146362
    29  C   -0.226037
    30  S    0.211898
    31  C   -0.143838
    32  C   -0.183468
    33  C   -0.114092
    34  C   -0.147642
    35  C   -0.164744
    36  C    0.107444
    37  C    0.097333
    38  C   -0.206054
    39  C   -0.134229
    40  C   -0.132282
    41  C   -0.205269
    42  C    0.065528
    43  C   -0.198541
    44  C   -0.167578
    45  C    0.098084
    46  C    0.113296
    47  C   -0.195208
    48  C   -0.132579
    49  C   -0.132583
    50  C   -0.202645
    51  C    0.063092
    52  H    0.144907
    53  H    0.143197
    54  H    0.152818
    55  H    0.137570
    56  H    0.146633
    57  H    0.140760
    58  H    0.153170
    59  H    0.125883
    60  H    0.135184
    61  H    0.135420
    62  H    0.131851
    63  H    0.133104
    64  H    0.134021
    65  H    0.145516
    66  H    0.154155
    67  H    0.150754
    68  H    0.148032
    69  H    0.133253
    70  H    0.136289
    71  H    0.142872
    72  H    0.135374
    73  H    0.146964
    74  H    0.142526
    75  H    0.133381
    76  H    0.132394
    77  H    0.133812
    78  H    0.146985
    79  H    0.129921
    80  H    0.129150
    81  H    0.131428
    82  H    0.134922
    83  H    0.132795
    84  H    0.148011
    85  H    0.129548
    86  H    0.127526
    87  H    0.131538
 Sum of Mulliken charges =  -0.00000

 Dipole moment (field-independent basis, Debye):
    X=              0.7562    Y=              0.4922    Z=              0.2779  Tot=              0.9441
 Quadrupole moment (field-independent basis, Debye-Ang):
   XX=           -268.0178   YY=           -287.8244   ZZ=           -301.1783
   XY=              0.9470   XZ=              0.5226   YZ=             -0.6304

 Normal termination of Gaussian 16 at Sat Nov  5 10:25:42 2022.
