 Gaussian 16, Revision B.01,
 Gaussian 16:  ES64L-G16RevB.01 20-Dec-2017

 -------------------------------------------------------------------
 #p b3lyp/6-31g(d) 6D 10F nosymm GFInput td=(50-50,nstate=2) SCF=XQC
 -------------------------------------------------------------------

 ------------------------------
 Gaussian input prepared by ASE
 ------------------------------
 Symbolic Z-matrix:
 Charge =  0 Multiplicity = 1

                          Input orientation:
 ---------------------------------------------------------------------
 Center     Atomic      Atomic             Coordinates (Angstroms)
 Number     Number       Type             X           Y           Z
 ---------------------------------------------------------------------
      1          6           0       -2.657752   -1.874089    2.523403
      2          6           0       -1.786992   -0.619483    2.313975
      3          6           0       -2.493304    0.678993    2.634559
      4          6           0       -2.070051    1.376939    3.775977
      5          6           0       -2.603925    2.611291    4.132389
      6          6           0       -3.566127    3.188319    3.307347
      7          6           0       -3.997818    2.507004    2.175927
      8          6           0       -3.508860    1.230451    1.821614
      9          6           0       -4.153939    0.557194    0.641971
     10          6           0       -5.536334    0.849193    0.502265
     11          6           0       -6.296369    0.415374   -0.561365
     12          6           0       -5.677323   -0.373482   -1.525349
     13         16           0       -6.507246   -0.995450   -2.941044
     14          6           0       -5.064254   -1.871285   -3.421183
     15          6           0       -4.993342   -2.680899   -4.555911
     16          6           0       -3.811471   -3.360658   -4.823920
     17          6           0       -2.724314   -3.223712   -3.953642
     18          6           0       -2.798021   -2.405047   -2.829496
     19          6           0       -3.976086   -1.688038   -2.524014
     20          6           0       -4.327437   -0.778600   -1.411794
     21          6           0       -3.544166   -0.298372   -0.308503
     22          6           0       -2.124765   -0.851810   -0.241227
     23          6           0       -1.124354   -0.577507    0.903279
     24          6           0       -0.165781    0.624171    0.727813
     25          6           0       -0.562758    1.724893   -0.262579
     26          6           0       -1.162300    2.962726    0.251520
     27          7           0       -1.604692    3.987991    0.567649
     28          6           0        1.050376    0.598319    1.347969
     29          6           0        1.363677   -0.614131    2.063882
     30          7           0        1.632779   -1.593145    2.634942
     31          6           0        2.176925    1.674376    1.450540
     32          6           0        2.925696    1.480184    2.791197
     33          6           0        1.625515    3.119035    1.481276
     34          6           0        3.162682    1.632061    0.226920
     35          7           0        4.003461    0.454949    0.017334
     36          6           0        5.134024    0.204392    0.816993
     37          6           0        5.971912    1.110834    1.472387
     38          6           0        7.054417    0.601309    2.186546
     39          6           0        7.298903   -0.780757    2.254956
     40          6           0        6.465862   -1.679682    1.596495
     41          6           0        5.377896   -1.187287    0.865863
     42          6           0        4.361127   -1.815254    0.051855
     43          6           0        4.065974   -3.161432   -0.202262
     44          6           0        2.994755   -3.483619   -1.021521
     45          6           0        2.304869   -2.446887   -1.664740
     46         16           0        0.989846   -2.710290   -2.814132
     47          6           0        0.953572   -0.996033   -3.218782
     48          6           0        0.145743   -0.414395   -4.198725
     49          6           0        0.340805    0.926856   -4.518965
     50          6           0        1.364081    1.656239   -3.898722
     51          6           0        2.151917    1.075871   -2.907950
     52          6           0        1.921006   -0.251807   -2.495982
     53          6           0        2.622676   -1.074131   -1.513720
     54          6           0        3.582966   -0.773853   -0.516161
     55          1           0       -2.085062   -2.781861    2.297994
     56          1           0       -3.561055   -1.872022    1.907797
     57          1           0       -2.971731   -1.928946    3.571128
     58          1           0       -0.962811   -0.708398    3.027390
     59          1           0       -1.298179    0.928744    4.397585
     60          1           0       -2.254831    3.123232    5.025005
     61          1           0       -3.966703    4.173771    3.526801
     62          1           0       -4.707309    2.999892    1.520994
     63          1           0       -6.024562    1.422190    1.280880
     64          1           0       -7.350416    0.666225   -0.632296
     65          1           0       -5.854731   -2.782016   -5.209971
     66          1           0       -3.738840   -4.001600   -5.697958
     67          1           0       -1.805211   -3.770929   -4.144517
     68          1           0       -1.924280   -2.352679   -2.199525
     69          1           0       -2.251888   -1.940471   -0.231905
     70          1           0       -1.619394   -0.652820   -1.193501
     71          1           0       -0.468893   -1.456038    0.875932
     72          1           0        0.304645    2.012484   -0.865010
     73          1           0       -1.280330    1.313023   -0.977144
     74          1           0        2.227232    1.591230    3.628343
     75          1           0        3.406102    0.505591    2.880076
     76          1           0        3.697986    2.247716    2.897183
     77          1           0        2.420345    3.797509    1.810475
     78          1           0        1.286276    3.480889    0.508790
     79          1           0        0.794844    3.210823    2.185159
     80          1           0        2.576477    1.801808   -0.672287
     81          1           0        3.834287    2.491644    0.326377
     82          1           0        5.801043    2.181784    1.426774
     83          1           0        7.723020    1.289537    2.696239
     84          1           0        8.150253   -1.147596    2.820970
     85          1           0        6.661253   -2.747727    1.641442
     86          1           0        4.653391   -3.946975    0.264052
     87          1           0        2.719188   -4.518912   -1.195214
     88          1           0       -0.606911   -1.003534   -4.713561
     89          1           0       -0.276334    1.393177   -5.281355
     90          1           0        1.560726    2.679618   -4.205540
     91          1           0        2.988719    1.633808   -2.504753
 ---------------------------------------------------------------------

 SCF Done:  E(RB3LYP) =  -2850.12010579     A.U. after   16 cycles

 Excitation energies and oscillator strengths:

 Excited state symmetry could not be determined.
 Excited State   1:      Triplet-?Sym    2.8359 eV  437.20 nm  f=0.0000  <S**2>=2.000
     184 ->193         0.24717
     185 ->193        -0.10545
     188 ->194         0.17082
     190 ->194        -0.10051
     191 ->193        -0.19455
     191 ->194         0.36759
     192 ->193        -0.28397
     192 ->194         0.15696
     192 ->197        -0.17885
 This state for optimization and/or second-order correction.
 Total Energy, E(TD-HF/TD-DFT) =  -2850.01588900
 Copying the excited state density for this state as the 1-particle RhoCI density.

 Excited state symmetry could not be determined.
 Excited State   2:      Triplet-?Sym    2.9125 eV  425.69 nm  f=0.0000  <S**2>=2.000
     182 ->193        -0.14369
     184 ->193        -0.49272
     184 ->194        -0.10010
     186 ->193        -0.10032
     191 ->194         0.29370
     192 ->193         0.12181
     192 ->194         0.13196
     192 ->197        -0.11858

 Excited state symmetry could not be determined.
 Excited State   3:      Singlet-?Sym    3.3504 eV  370.06 nm  f=0.0122  <S**2>=0.000
     192 ->193         0.70133

 Excited state symmetry could not be determined.
 Excited State   4:      Singlet-?Sym    3.4814 eV  356.13 nm  f=0.0019  <S**2>=0.000
     190 ->193        -0.13987
     191 ->193         0.67433
     192 ->194         0.12772

 Alpha  occ. eigenvalues --  -88.90963 -88.90340 -14.38628 -14.33372 -14.33017
 Alpha  occ. eigenvalues --  -10.24506 -10.24462 -10.24314 -10.24115 -10.23826
 Alpha  occ. eigenvalues --  -10.23523 -10.23450 -10.23111 -10.22863 -10.22838
 Alpha  occ. eigenvalues --  -10.22731 -10.22690 -10.22630 -10.21876 -10.21694
 Alpha  occ. eigenvalues --  -10.21472 -10.21320 -10.21317 -10.21139 -10.20783
 Alpha  occ. eigenvalues --  -10.20780 -10.20717 -10.20408 -10.20306 -10.20301
 Alpha  occ. eigenvalues --  -10.20173 -10.19996 -10.19918 -10.19886 -10.19821
 Alpha  occ. eigenvalues --  -10.19777 -10.19742 -10.19696 -10.19541 -10.19478
 Alpha  occ. eigenvalues --  -10.19438 -10.19415 -10.19330 -10.19294 -10.19257
 Alpha  occ. eigenvalues --  -10.19240 -10.18929 -10.18680 -10.18652 -10.18517
 Alpha  occ. eigenvalues --  -10.18412 -10.18359 -10.18353 -10.17634  -7.97043
 Alpha  occ. eigenvalues --   -7.96494  -5.93493  -5.93146  -5.92936  -5.92641
 Alpha  occ. eigenvalues --   -5.92591  -5.92091  -0.98938  -0.90944  -0.90293
 Alpha  occ. eigenvalues --   -0.90188  -0.90075  -0.87310  -0.86453  -0.85527
 Alpha  occ. eigenvalues --   -0.85074  -0.84815  -0.83198  -0.81995  -0.81581
 Alpha  occ. eigenvalues --   -0.80077  -0.78649  -0.78435  -0.77733  -0.76811
 Alpha  occ. eigenvalues --   -0.76093  -0.75605  -0.74946  -0.74361  -0.73769
 Alpha  occ. eigenvalues --   -0.73099  -0.72130  -0.71625  -0.70440  -0.70038
 Alpha  occ. eigenvalues --   -0.69759  -0.69040  -0.67063  -0.64233  -0.63775
 Alpha  occ. eigenvalues --   -0.62954  -0.62643  -0.61673  -0.60719  -0.60299
 Alpha  occ. eigenvalues --   -0.59956  -0.59305  -0.59007  -0.58022  -0.57656
 Alpha  occ. eigenvalues --   -0.57044  -0.56075  -0.55578  -0.53533  -0.52892
 Alpha  occ. eigenvalues --   -0.51895  -0.51637  -0.51163  -0.50960  -0.50363
 Alpha  occ. eigenvalues --   -0.49975  -0.49533  -0.48801  -0.48424  -0.47925
 Alpha  occ. eigenvalues --   -0.47357  -0.47113  -0.46635  -0.45734  -0.45552
 Alpha  occ. eigenvalues --   -0.45126  -0.45100  -0.44949  -0.44505  -0.44230
 Alpha  occ. eigenvalues --   -0.44092  -0.43580  -0.43496  -0.43144  -0.43120
 Alpha  occ. eigenvalues --   -0.42700  -0.42288  -0.42098  -0.42062  -0.41513
 Alpha  occ. eigenvalues --   -0.41152  -0.40512  -0.40300  -0.40184  -0.40062
 Alpha  occ. eigenvalues --   -0.39601  -0.39417  -0.39302  -0.38787  -0.38126
 Alpha  occ. eigenvalues --   -0.37673  -0.37572  -0.37397  -0.37083  -0.36988
 Alpha  occ. eigenvalues --   -0.36651  -0.36591  -0.36349  -0.36080  -0.35982
 Alpha  occ. eigenvalues --   -0.35745  -0.35581  -0.35406  -0.34960  -0.34829
 Alpha  occ. eigenvalues --   -0.34759  -0.34207  -0.34076  -0.33997  -0.33624
 Alpha  occ. eigenvalues --   -0.33186  -0.33144  -0.32603  -0.32074  -0.31967
 Alpha  occ. eigenvalues --   -0.31846  -0.31283  -0.31043  -0.30766  -0.29227
 Alpha  occ. eigenvalues --   -0.28564  -0.27405  -0.26967  -0.26126  -0.24675
 Alpha  occ. eigenvalues --   -0.24127  -0.23955  -0.23917  -0.22501  -0.20841
 Alpha  occ. eigenvalues --   -0.20788  -0.20334
 Alpha virt. eigenvalues --   -0.05835  -0.04540  -0.03912  -0.03104  -0.02350
 Alpha virt. eigenvalues --   -0.01656  -0.00806   0.00251   0.00681   0.00974
 Alpha virt. eigenvalues --    0.01387   0.01708   0.01852   0.02742   0.03425

 Mulliken charges:
               1
     1  C   -0.461185
     2  C   -0.182429
     3  C    0.138478
     4  C   -0.212322
     5  C   -0.120599
     6  C   -0.121160
     7  C   -0.167996
     8  C    0.027736
     9  C    0.009398
    10  C   -0.166545
    11  C   -0.184685
    12  C   -0.148373
    13  S    0.214581
    14  C   -0.137555
    15  C   -0.181899
    16  C   -0.116011
    17  C   -0.165871
    18  C   -0.196819
    19  C    0.102711
    20  C    0.048485
    21  C    0.108432
    22  C   -0.437497
    23  C   -0.173420
    24  C    0.127702
    25  C   -0.453300
    26  C    0.396168
    27  N   -0.484302
    28  C    0.078205
    29  C    0.319715
    30  N   -0.530801
    31  C    0.033622
    32  C   -0.476006
    33  C   -0.470025
    34  C   -0.165369
    35  N   -0.645629
    36  C    0.308082
    37  C   -0.183135
    38  C   -0.141137
    39  C   -0.143586
    40  C   -0.192637
    41  C    0.071490
    42  C    0.061923
    43  C   -0.162738
    44  C   -0.194394
    45  C   -0.158823
    46  S    0.212932
    47  C   -0.163333
    48  C   -0.181895
    49  C   -0.121952
    50  C   -0.151143
    51  C   -0.202236
    52  C    0.124687
    53  C    0.076954
    54  C    0.239810
    55  H    0.151688
    56  H    0.162033
    57  H    0.155328
    58  H    0.157949
    59  H    0.130211
    60  H    0.129296
    61  H    0.132936
    62  H    0.142095
    63  H    0.145355
    64  H    0.144375
    65  H    0.143316
    66  H    0.135568
    67  H    0.142515
    68  H    0.155207
    69  H    0.184648
    70  H    0.176375
    71  H    0.177891
    72  H    0.220033
    73  H    0.220575
    74  H    0.157317
    75  H    0.194869
    76  H    0.144310
    77  H    0.149735
    78  H    0.153937
    79  H    0.184081
    80  H    0.150286
    81  H    0.159605
    82  H    0.129376
    83  H    0.128843
    84  H    0.128142
    85  H    0.133118
    86  H    0.139898
    87  H    0.141301
    88  H    0.156661
    89  H    0.141012
    90  H    0.138472
    91  H    0.157336
 Sum of Mulliken charges =  -0.00000

 Dipole moment (field-independent basis, Debye):
    X=              1.2019    Y=              0.6101    Z=             -1.6789  Tot=              2.1530
 Quadrupole moment (field-independent basis, Debye-Ang):
   XX=           -316.2507   YY=           -324.1642   ZZ=           -316.3805
   XY=              9.6422   XZ=              7.5475   YZ=              8.5369

 Normal termination of Gaussian 16 at Sat Nov  5 10:43:35 2022.
