 Gaussian 16, Revision B.01,
 Gaussian 16:  ES64L-G16RevB.01 20-Dec-2017

 -----------------------------
 #p b3lyp/6-31g(d) opt SCF=XQC
 -----------------------------

 ------------------------------
 Gaussian input prepared by ASE
 ------------------------------
 Symbolic Z-matrix:
 Charge =  0 Multiplicity = 1

 SCF Done:  E(RB3LYP) =  -2685.34494461     A.U. after   16 cycles
 SCF Done:  E(RB3LYP) =  -2685.36204695     A.U. after   15 cycles
 SCF Done:  E(RB3LYP) =  -2685.37000782     A.U. after   15 cycles
 SCF Done:  E(RB3LYP) =  -2685.37232435     A.U. after   12 cycles
 SCF Done:  E(RB3LYP) =  -2685.37405476     A.U. after   13 cycles
 SCF Done:  E(RB3LYP) =  -2685.37507647     A.U. after   13 cycles
 SCF Done:  E(RB3LYP) =  -2685.37601578     A.U. after   12 cycles
 SCF Done:  E(RB3LYP) =  -2685.37674441     A.U. after   12 cycles
 SCF Done:  E(RB3LYP) =  -2685.37693717     A.U. after   12 cycles
 SCF Done:  E(RB3LYP) =  -2685.37698094     A.U. after   10 cycles
 SCF Done:  E(RB3LYP) =  -2685.37700767     A.U. after   11 cycles
 SCF Done:  E(RB3LYP) =  -2685.37702095     A.U. after   10 cycles
 SCF Done:  E(RB3LYP) =  -2685.37702654     A.U. after   10 cycles
 SCF Done:  E(RB3LYP) =  -2685.37703006     A.U. after    9 cycles
 SCF Done:  E(RB3LYP) =  -2685.37703338     A.U. after   10 cycles
 SCF Done:  E(RB3LYP) =  -2685.37703676     A.U. after    9 cycles
 SCF Done:  E(RB3LYP) =  -2685.37703980     A.U. after   10 cycles
 SCF Done:  E(RB3LYP) =  -2685.37703998     A.U. after    9 cycles
 SCF Done:  E(RB3LYP) =  -2685.37704000     A.U. after    7 cycles
 SCF Done:  E(RB3LYP) =  -2685.37704002     A.U. after    6 cycles
 Optimization completed.
    -- Stationary point found.

                         Standard orientation:
 ---------------------------------------------------------------------
 Center     Atomic      Atomic             Coordinates (Angstroms)
 Number     Number       Type             X           Y           Z
 ---------------------------------------------------------------------
      1          6           0      -11.141542   -0.081085   -0.579515
      2          6           0      -10.171037    0.970609   -1.141386
      3          6           0      -10.812675    2.374081   -1.078032
      4          6           0       -8.797680    0.970604   -0.472978
      5          6           0       -8.641132    0.538302    0.828572
      6          6           0       -7.388364    0.554986    1.479400
      7          6           0       -6.251370    1.001709    0.839381
      8          6           0       -4.948291    0.996685    1.571828
      9          6           0       -4.684236    1.946622    2.565420
     10          6           0       -3.482449    1.940672    3.287016
     11          6           0       -2.511435    0.978790    3.035644
     12          6           0       -2.740959    0.004697    2.053325
     13          6           0       -3.958817    0.028046    1.334675
     14         16           0       -4.072134   -1.293898    0.163109
     15          6           0       -2.470472   -1.879869    0.626988
     16          6           0       -1.817344   -2.990916    0.092183
     17          6           0       -0.547900   -3.339691    0.563105
     18          6           0        0.182074   -4.527483   -0.026367
     19          6           0        0.973479   -4.203205   -1.326826
     20          6           0        2.151324   -3.270479   -1.139023
     21          6           0        2.022614   -1.934347   -1.459519
     22          6           0        3.087371   -1.024412   -1.298404
     23          6           0        4.315840   -1.425157   -0.806648
     24          6           0        5.409954   -0.419201   -0.698417
     25          6           0        6.648798   -0.608129   -1.351707
     26          6           0        7.649250    0.352929   -1.298264
     27          6           0        7.444612    1.543465   -0.584441
     28          6           0        6.203992    1.730797    0.063678
     29          6           0        5.195305    0.768831    0.011539
     30         16           0        6.117802    3.278714    0.914446
     31          6           0        7.758891    3.687211    0.397293
     32          6           0        8.449078    4.861624    0.704106
     33          6           0        9.742207    5.021423    0.212099
     34          6           0       10.337929    4.023423   -0.574721
     35          6           0        9.646623    2.855686   -0.877486
     36          6           0        8.342234    2.671083   -0.393796
     37          6           0        4.489773   -2.800683   -0.427530
     38          6           0        5.696375   -3.275154    0.158543
     39          6           0        5.854681   -4.596086    0.512948
     40          6           0        4.806317   -5.516482    0.297149
     41          6           0        3.614663   -5.088738   -0.243883
     42          6           0        3.404248   -3.729018   -0.609660
     43          6           0        0.041835   -2.556947    1.575237
     44          6           0       -0.609394   -1.452281    2.110317
     45          6           0       -1.881622   -1.093892    1.641591
     46          6           0       -6.359187    1.477542   -0.509242
     47          6           0       -5.229208    1.986221   -1.206943
     48          6           0       -5.333135    2.450129   -2.497968
     49          6           0       -6.582184    2.425862   -3.155737
     50          6           0       -7.698453    1.946734   -2.507086
     51          6           0       -7.637641    1.460651   -1.169621
     52          1           0      -11.456456    0.154428    0.443741
     53          1           0      -12.047757   -0.115170   -1.194740
     54          1           0      -10.695323   -1.081428   -0.575943
     55          1           0      -10.025896    0.718159   -2.199300
     56          1           0      -11.005030    2.658880   -0.036806
     57          1           0      -11.768609    2.388097   -1.615555
     58          1           0      -10.162679    3.137988   -1.516439
     59          1           0       -9.496683    0.163847    1.381116
     60          1           0       -7.316636    0.194197    2.501949
     61          1           0       -5.433994    2.705838    2.769579
     62          1           0       -3.311570    2.696340    4.048595
     63          1           0       -1.581742    0.977076    3.598250
     64          1           0       -2.292890   -3.588227   -0.682385
     65          1           0       -0.542243   -5.316396   -0.265880
     66          1           0        0.868053   -4.944216    0.719611
     67          1           0        0.279832   -3.754117   -2.046929
     68          1           0        1.303496   -5.150277   -1.771214
     69          1           0        1.078701   -1.571384   -1.857976
     70          1           0        2.948137    0.010924   -1.597085
     71          1           0        6.809357   -1.517347   -1.922974
     72          1           0        8.588550    0.184465   -1.818431
     73          1           0        4.251604    0.925206    0.525624
     74          1           0        7.988741    5.634342    1.312968
     75          1           0       10.293278    5.929219    0.441451
     76          1           0       11.347454    4.164747   -0.950123
     77          1           0       10.113860    2.086841   -1.487176
     78          1           0        6.501850   -2.571953    0.338441
     79          1           0        6.786199   -4.929500    0.962384
     80          1           0        4.936371   -6.561138    0.566996
     81          1           0        2.815888   -5.807463   -0.392054
     82          1           0        1.027848   -2.826875    1.943362
     83          1           0       -0.132134   -0.868767    2.893322
     84          1           0       -4.271193    2.008295   -0.698178
     85          1           0       -4.455806    2.834872   -3.010810
     86          1           0       -6.664334    2.789672   -4.176559
     87          1           0       -8.646579    1.946832   -3.032717
 ---------------------------------------------------------------------

 The electronic state is 1-A.
 Alpha  occ. eigenvalues --  -88.90091 -88.89555 -10.22504 -10.22488 -10.22068
 Alpha  occ. eigenvalues --  -10.21917 -10.20440 -10.20336 -10.20294 -10.20289
 Alpha  occ. eigenvalues --  -10.20006 -10.19957 -10.19933 -10.19895 -10.19857
 Alpha  occ. eigenvalues --  -10.19795 -10.19773 -10.19716 -10.19709 -10.19706
 Alpha  occ. eigenvalues --  -10.19602 -10.19588 -10.19571 -10.19549 -10.19513
 Alpha  occ. eigenvalues --  -10.19488 -10.19330 -10.19312 -10.19299 -10.19291
 Alpha  occ. eigenvalues --  -10.19277 -10.19259 -10.19227 -10.19213 -10.19090
 Alpha  occ. eigenvalues --  -10.19061 -10.18949 -10.18938 -10.18922 -10.18787
 Alpha  occ. eigenvalues --  -10.18734 -10.18661 -10.18644 -10.18567 -10.18545
 Alpha  occ. eigenvalues --  -10.18533 -10.18517 -10.18325 -10.18275 -10.17522
 Alpha  occ. eigenvalues --  -10.17484  -7.96189  -7.95611  -5.92642  -5.92294
 Alpha  occ. eigenvalues --   -5.92067  -5.91776  -5.91712  -5.91204  -0.89758
 Alpha  occ. eigenvalues --   -0.89431  -0.87576  -0.87170  -0.85313  -0.85078
 Alpha  occ. eigenvalues --   -0.82429  -0.82132  -0.81932  -0.81061  -0.80461
 Alpha  occ. eigenvalues --   -0.79464  -0.77940  -0.77110  -0.75988  -0.75109
 Alpha  occ. eigenvalues --   -0.74964  -0.74211  -0.73793  -0.73496  -0.73200
 Alpha  occ. eigenvalues --   -0.72008  -0.71038  -0.70387  -0.69551  -0.69381
 Alpha  occ. eigenvalues --   -0.68195  -0.65416  -0.63733  -0.62932  -0.62035
 Alpha  occ. eigenvalues --   -0.61400  -0.61202  -0.61000  -0.60275  -0.59234
 Alpha  occ. eigenvalues --   -0.59077  -0.58755  -0.58597  -0.58259  -0.56845
 Alpha  occ. eigenvalues --   -0.56037  -0.54750  -0.51910  -0.51900  -0.51473
 Alpha  occ. eigenvalues --   -0.50730  -0.50286  -0.49681  -0.49574  -0.48517
 Alpha  occ. eigenvalues --   -0.48360  -0.48138  -0.47988  -0.47274  -0.45770
 Alpha  occ. eigenvalues --   -0.45398  -0.45295  -0.44835  -0.44691  -0.44315
 Alpha  occ. eigenvalues --   -0.43956  -0.43660  -0.43531  -0.43376  -0.43152
 Alpha  occ. eigenvalues --   -0.42270  -0.42144  -0.42092  -0.41685  -0.41441
 Alpha  occ. eigenvalues --   -0.41211  -0.41123  -0.40823  -0.40556  -0.40109
 Alpha  occ. eigenvalues --   -0.40030  -0.39661  -0.39512  -0.39169  -0.38901
 Alpha  occ. eigenvalues --   -0.38303  -0.37992  -0.37779  -0.37447  -0.37258
 Alpha  occ. eigenvalues --   -0.36460  -0.36119  -0.35924  -0.35569  -0.35307
 Alpha  occ. eigenvalues --   -0.35089  -0.35014  -0.34383  -0.34359  -0.34170
 Alpha  occ. eigenvalues --   -0.33976  -0.33763  -0.33325  -0.33131  -0.32763
 Alpha  occ. eigenvalues --   -0.32246  -0.32178  -0.31792  -0.31681  -0.31090
 Alpha  occ. eigenvalues --   -0.30952  -0.30571  -0.28812  -0.27754  -0.27223
 Alpha  occ. eigenvalues --   -0.26958  -0.26007  -0.25415  -0.24200  -0.23865
 Alpha  occ. eigenvalues --   -0.22781  -0.21622  -0.21481  -0.20948  -0.20713
 Alpha  occ. eigenvalues --   -0.20377
 Alpha virt. eigenvalues --   -0.04727  -0.03698  -0.03146  -0.02853  -0.01000
 Alpha virt. eigenvalues --   -0.00619  -0.00369  -0.00315  -0.00033   0.00180
 Alpha virt. eigenvalues --    0.01638   0.02381   0.02448   0.03686   0.04110

 Mulliken charges:
               1
     1  C   -0.452979
     2  C   -0.156561
     3  C   -0.438219
     4  C    0.135825
     5  C   -0.214716
     6  C   -0.167785
     7  C   -0.015218
     8  C    0.004203
     9  C   -0.142573
    10  C   -0.149368
    11  C   -0.168293
    12  C    0.116942
    13  C   -0.198293
    14  S    0.222261
    15  C   -0.133557
    16  C   -0.249866
    17  C    0.197583
    18  C   -0.355260
    19  C   -0.355198
    20  C    0.137221
    21  C   -0.202191
    22  C   -0.176812
    23  C    0.017147
    24  C    0.080417
    25  C   -0.186935
    26  C   -0.174837
    27  C    0.111886
    28  C   -0.146372
    29  C   -0.226031
    30  S    0.211900
    31  C   -0.143825
    32  C   -0.183476
    33  C   -0.114091
    34  C   -0.147639
    35  C   -0.164745
    36  C    0.107438
    37  C    0.097344
    38  C   -0.206057
    39  C   -0.134228
    40  C   -0.132276
    41  C   -0.205275
    42  C    0.065528
    43  C   -0.198533
    44  C   -0.167602
    45  C    0.098084
    46  C    0.113311
    47  C   -0.195201
    48  C   -0.132581
    49  C   -0.132584
    50  C   -0.202644
    51  C    0.063070
    52  H    0.144908
    53  H    0.143197
    54  H    0.152820
    55  H    0.137573
    56  H    0.146633
    57  H    0.140759
    58  H    0.153170
    59  H    0.125881
    60  H    0.135184
    61  H    0.135419
    62  H    0.131850
    63  H    0.133103
    64  H    0.134023
    65  H    0.145519
    66  H    0.154157
    67  H    0.150753
    68  H    0.148030
    69  H    0.133254
    70  H    0.136288
    71  H    0.142871
    72  H    0.135375
    73  H    0.146962
    74  H    0.142527
    75  H    0.133382
    76  H    0.132394
    77  H    0.133811
    78  H    0.146985
    79  H    0.129920
    80  H    0.129150
    81  H    0.131428
    82  H    0.134920
    83  H    0.132796
    84  H    0.148009
    85  H    0.129547
    86  H    0.127525
    87  H    0.131540
 Sum of Mulliken charges =  -0.00000

 Dipole moment (field-independent basis, Debye):
    X=              0.7718    Y=             -0.3748    Z=             -0.3940  Tot=              0.9441
 Quadrupole moment (field-independent basis, Debye-Ang):
   XX=           -268.7520   YY=           -288.9341   ZZ=           -299.9056
   XY=             -1.1155   XZ=              0.9775   YZ=              3.9204

 1\1\GINC-NODE72\FOpt\RB3LYP\6-31G(d)\C49H36S2\WYKGROUP\05-Nov-2022\0\\
 #p b3lyp/6-31g(d) opt SCF=XQC\\Gaussian input prepared by ASE\\0,1\C,-
 10.6966309932,0.1054982509,-0.0645369718\C,-9.7708017326,-0.6790960535
 ,0.8793330384\C,-10.4283908261,-2.0188149021,1.2770489968\C,-8.3656251
 518,-0.9069995023,0.3257823401\C,-8.1374882366,-0.9565589955,-1.034703
 0137\C,-6.8538601502,-1.1944632043,-1.5722740215\C,-5.7570784075,-1.38
 42580425,-0.7580318788\C,-4.4187821561,-1.6301565579,-1.3769145996\C,-
 4.1185399151,-2.8664719128,-1.9606176787\C,-2.8819304905,-3.1081423683

 Normal termination of Gaussian 16 at Sat Nov  5 00:40:10 2022.
