 Gaussian 16, Revision B.01,
 Gaussian 16:  ES64L-G16RevB.01 20-Dec-2017

 -----------------------------
 #p b3lyp/6-31g(d) opt SCF=XQC
 -----------------------------

 ------------------------------
 Gaussian input prepared by ASE
 ------------------------------
 Symbolic Z-matrix:
 Charge =  0 Multiplicity = 1

 SCF Done:  E(RB3LYP) =  -2850.09087640     A.U. after   16 cycles
 SCF Done:  E(RB3LYP) =  -2850.10535112     A.U. after   16 cycles
 SCF Done:  E(RB3LYP) =  -2850.10698506     A.U. after   16 cycles
 SCF Done:  E(RB3LYP) =  -2850.08840553     A.U. after   16 cycles
 SCF Done:  E(RB3LYP) =  -2850.11092379     A.U. after   14 cycles
 SCF Done:  E(RB3LYP) =  -2850.11060814     A.U. after   14 cycles
 SCF Done:  E(RB3LYP) =  -2850.11675303     A.U. after   13 cycles
 SCF Done:  E(RB3LYP) =  -2850.11850543     A.U. after   13 cycles
 SCF Done:  E(RB3LYP) =  -2850.11886002     A.U. after   13 cycles
 SCF Done:  E(RB3LYP) =  -2850.11722656     A.U. after   14 cycles
 SCF Done:  E(RB3LYP) =  -2850.11954835     A.U. after   10 cycles
 SCF Done:  E(RB3LYP) =  -2850.11986840     A.U. after   12 cycles
 SCF Done:  E(RB3LYP) =  -2850.12002825     A.U. after   12 cycles
 SCF Done:  E(RB3LYP) =  -2850.12008233     A.U. after   11 cycles
 SCF Done:  E(RB3LYP) =  -2850.12010001     A.U. after   10 cycles
 SCF Done:  E(RB3LYP) =  -2850.12010797     A.U. after   10 cycles
 SCF Done:  E(RB3LYP) =  -2850.12011071     A.U. after    8 cycles
 SCF Done:  E(RB3LYP) =  -2850.12011164     A.U. after    8 cycles
 SCF Done:  E(RB3LYP) =  -2850.12011185     A.U. after    8 cycles
 SCF Done:  E(RB3LYP) =  -2850.12011191     A.U. after    7 cycles
 Optimization completed.
    -- Stationary point found.

                         Standard orientation:
 ---------------------------------------------------------------------
 Center     Atomic      Atomic             Coordinates (Angstroms)
 Number     Number       Type             X           Y           Z
 ---------------------------------------------------------------------
      1          6           0        1.722549    1.887165   -3.192873
      2          6           0        0.880921    2.207465   -1.941797
      3          6           0        1.425539    3.347613   -1.110446
      4          6           0        0.695451    4.545965   -1.104964
      5          6           0        1.067118    5.638677   -0.328099
      6          6           0        2.182245    5.524664    0.498328
      7          6           0        2.917218    4.345483    0.500354
      8          6           0        2.590215    3.241727   -0.317568
      9          6           0        3.543267    2.078755   -0.305352
     10          6           0        4.901672    2.454311   -0.133622
     11          6           0        5.925866    1.543468    0.002587
     12          6           0        5.607789    0.190999   -0.063983
     13         16           0        6.797412   -1.088786    0.099584
     14          6           0        5.563737   -2.296732   -0.214677
     15          6           0        5.819585   -3.667939   -0.264097
     16          6           0        4.775581   -4.536396   -0.558301
     17          6           0        3.497506   -4.021272   -0.801653
     18          6           0        3.246668   -2.652866   -0.739242
     19          6           0        4.275833   -1.734768   -0.434000
     20          6           0        4.292324   -0.260288   -0.319125
     21          6           0        3.233569    0.702423   -0.435789
     22          6           0        1.869143    0.115810   -0.781831
     23          6           0        0.598983    0.946519   -1.069192
     24          6           0       -0.333856    1.244031    0.128715
     25          6           0        0.254961    1.153836    1.541235
     26          6           0        0.649677    2.390030    2.228260
     27          7           0        0.952250    3.313463    2.862720
     28          6           0       -1.665716    1.438827   -0.100413
     29          6           0       -2.098869    1.267578   -1.465615
     30          7           0       -2.462408    1.119888   -2.562438
     31          6           0       -2.826350    1.849636    0.859639
     32          6           0       -3.883338    2.637706    0.048805
     33          6           0       -2.363692    2.802271    1.986790
     34          6           0       -3.464510    0.615512    1.594787
     35          7           0       -4.172555   -0.400553    0.818442
     36          6           0       -5.457874   -0.166186    0.295532
     37          6           0       -6.473435    0.660987    0.783034
     38          6           0       -7.679379    0.695269    0.085912
     39          6           0       -7.873555   -0.071151   -1.075749
     40          6           0       -6.862216   -0.897765   -1.554809
     41          6           0       -5.646057   -0.953393   -0.863572
     42          6           0       -4.429213   -1.711370   -1.052072
     43          6           0       -4.021379   -2.588595   -2.065992
     44          6           0       -2.763750   -3.169016   -2.002889
     45          6           0       -1.977828   -2.947919   -0.863622
     46         16           0       -0.402993   -3.702332   -0.598056
     47          6           0       -0.338434   -3.070335    1.045155
     48          6           0        0.666902   -3.342048    1.976096
     49          6           0        0.502509   -2.903160    3.287549
     50          6           0       -0.675543   -2.245614    3.666525
     51          6           0       -1.664385   -1.959827    2.728623
     52          6           0       -1.489351   -2.309425    1.374772
     53          6           0       -2.382384   -2.143784    0.230897
     54          6           0       -3.577412   -1.406754    0.040785
     55          1           0        1.265917    1.070447   -3.764968
     56          1           0        2.752073    1.609099   -2.952681
     57          1           0        1.760868    2.768580   -3.841686
     58          1           0       -0.093396    2.534411   -2.315901
     59          1           0       -0.189463    4.613373   -1.733809
     60          1           0        0.480145    6.552839   -0.350078
     61          1           0        2.470804    6.338949    1.156667
     62          1           0        3.748455    4.261410    1.191173
     63          1           0        5.149967    3.508484   -0.132013
     64          1           0        6.951327    1.873861    0.137658
     65          1           0        6.822871   -4.043633   -0.084427
     66          1           0        4.955999   -5.606404   -0.608872
     67          1           0        2.681940   -4.692883   -1.055463
     68          1           0        2.239694   -2.326274   -0.945080
     69          1           0        2.036378   -0.448151   -1.706716
     70          1           0        1.615397   -0.654796   -0.044537
     71          1           0        0.010606    0.284795   -1.715817
     72          1           0       -0.441560    0.626521    2.200642
     73          1           0        1.148132    0.524193    1.510440
     74          1           0       -3.427034    3.533060   -0.388373
     75          1           0       -4.328147    2.057117   -0.759641
     76          1           0       -4.689379    2.964341    0.712414
     77          1           0       -3.244628    3.252861    2.457294
     78          1           0       -1.803438    2.304621    2.780649
     79          1           0       -1.744852    3.611613    1.591953
     80          1           0       -2.676136    0.128560    2.162563
     81          1           0       -4.175588    1.011519    2.327846
     82          1           0       -6.342805    1.256411    1.681152
     83          1           0       -8.484859    1.325320    0.452943
     84          1           0       -8.824554   -0.021990   -1.598171
     85          1           0       -7.016488   -1.497899   -2.447534
     86          1           0       -4.673987   -2.788212   -2.910883
     87          1           0       -2.408725   -3.814821   -2.799651
     88          1           0        1.550621   -3.901655    1.685392
     89          1           0        1.273099   -3.109598    4.024522
     90          1           0       -0.831220   -1.971965    4.706232
     91          1           0       -2.599560   -1.526556    3.063021
 ---------------------------------------------------------------------

 The electronic state is 1-A.
 Alpha  occ. eigenvalues --  -88.90963 -88.90340 -14.38628 -14.33372 -14.33017
 Alpha  occ. eigenvalues --  -10.24506 -10.24462 -10.24314 -10.24116 -10.23826
 Alpha  occ. eigenvalues --  -10.23523 -10.23450 -10.23111 -10.22863 -10.22838
 Alpha  occ. eigenvalues --  -10.22731 -10.22690 -10.22630 -10.21876 -10.21694
 Alpha  occ. eigenvalues --  -10.21471 -10.21320 -10.21317 -10.21139 -10.20783
 Alpha  occ. eigenvalues --  -10.20780 -10.20717 -10.20408 -10.20306 -10.20301
 Alpha  occ. eigenvalues --  -10.20173 -10.19996 -10.19918 -10.19886 -10.19821
 Alpha  occ. eigenvalues --  -10.19777 -10.19742 -10.19696 -10.19541 -10.19478
 Alpha  occ. eigenvalues --  -10.19438 -10.19415 -10.19330 -10.19294 -10.19257
 Alpha  occ. eigenvalues --  -10.19240 -10.18929 -10.18681 -10.18652 -10.18517
 Alpha  occ. eigenvalues --  -10.18412 -10.18359 -10.18353 -10.17634  -7.97043
 Alpha  occ. eigenvalues --   -7.96495  -5.93493  -5.93146  -5.92936  -5.92641
 Alpha  occ. eigenvalues --   -5.92591  -5.92092  -0.98938  -0.90944  -0.90293
 Alpha  occ. eigenvalues --   -0.90188  -0.90076  -0.87310  -0.86453  -0.85527
 Alpha  occ. eigenvalues --   -0.85074  -0.84815  -0.83198  -0.81995  -0.81581
 Alpha  occ. eigenvalues --   -0.80077  -0.78649  -0.78435  -0.77733  -0.76811
 Alpha  occ. eigenvalues --   -0.76093  -0.75605  -0.74946  -0.74361  -0.73769
 Alpha  occ. eigenvalues --   -0.73099  -0.72130  -0.71625  -0.70440  -0.70038
 Alpha  occ. eigenvalues --   -0.69759  -0.69040  -0.67063  -0.64233  -0.63775
 Alpha  occ. eigenvalues --   -0.62954  -0.62643  -0.61673  -0.60719  -0.60299
 Alpha  occ. eigenvalues --   -0.59956  -0.59305  -0.59007  -0.58022  -0.57656
 Alpha  occ. eigenvalues --   -0.57044  -0.56075  -0.55578  -0.53533  -0.52892
 Alpha  occ. eigenvalues --   -0.51895  -0.51637  -0.51163  -0.50960  -0.50363
 Alpha  occ. eigenvalues --   -0.49975  -0.49533  -0.48801  -0.48424  -0.47925
 Alpha  occ. eigenvalues --   -0.47357  -0.47113  -0.46635  -0.45734  -0.45552
 Alpha  occ. eigenvalues --   -0.45126  -0.45100  -0.44949  -0.44505  -0.44230
 Alpha  occ. eigenvalues --   -0.44091  -0.43580  -0.43496  -0.43144  -0.43120
 Alpha  occ. eigenvalues --   -0.42701  -0.42288  -0.42097  -0.42062  -0.41513
 Alpha  occ. eigenvalues --   -0.41152  -0.40512  -0.40300  -0.40184  -0.40062
 Alpha  occ. eigenvalues --   -0.39601  -0.39417  -0.39302  -0.38787  -0.38126
 Alpha  occ. eigenvalues --   -0.37673  -0.37572  -0.37397  -0.37083  -0.36988
 Alpha  occ. eigenvalues --   -0.36651  -0.36591  -0.36349  -0.36080  -0.35982
 Alpha  occ. eigenvalues --   -0.35745  -0.35581  -0.35406  -0.34960  -0.34829
 Alpha  occ. eigenvalues --   -0.34759  -0.34207  -0.34076  -0.33997  -0.33624
 Alpha  occ. eigenvalues --   -0.33186  -0.33144  -0.32603  -0.32074  -0.31967
 Alpha  occ. eigenvalues --   -0.31846  -0.31283  -0.31043  -0.30766  -0.29227
 Alpha  occ. eigenvalues --   -0.28564  -0.27405  -0.26967  -0.26126  -0.24675
 Alpha  occ. eigenvalues --   -0.24127  -0.23955  -0.23917  -0.22501  -0.20841
 Alpha  occ. eigenvalues --   -0.20788  -0.20334
 Alpha virt. eigenvalues --   -0.05835  -0.04539  -0.03912  -0.03104  -0.02350
 Alpha virt. eigenvalues --   -0.01656  -0.00806   0.00251   0.00681   0.00974
 Alpha virt. eigenvalues --    0.01387   0.01708   0.01852   0.02742   0.03425

 Mulliken charges:
               1
     1  C   -0.461177
     2  C   -0.182439
     3  C    0.138433
     4  C   -0.212309
     5  C   -0.120612
     6  C   -0.121152
     7  C   -0.168003
     8  C    0.027788
     9  C    0.009436
    10  C   -0.166548
    11  C   -0.184687
    12  C   -0.148359
    13  S    0.214574
    14  C   -0.137571
    15  C   -0.181893
    16  C   -0.116011
    17  C   -0.165891
    18  C   -0.196796
    19  C    0.102720
    20  C    0.048465
    21  C    0.108415
    22  C   -0.437540
    23  C   -0.173407
    24  C    0.127739
    25  C   -0.453325
    26  C    0.396194
    27  N   -0.484311
    28  C    0.078197
    29  C    0.319726
    30  N   -0.530818
    31  C    0.033575
    32  C   -0.475982
    33  C   -0.470003
    34  C   -0.165387
    35  N   -0.645628
    36  C    0.308062
    37  C   -0.183134
    38  C   -0.141137
    39  C   -0.143587
    40  C   -0.192627
    41  C    0.071499
    42  C    0.061885
    43  C   -0.162721
    44  C   -0.194408
    45  C   -0.158826
    46  S    0.212932
    47  C   -0.163350
    48  C   -0.181900
    49  C   -0.121942
    50  C   -0.151168
    51  C   -0.202199
    52  C    0.124682
    53  C    0.076994
    54  C    0.239816
    55  H    0.151684
    56  H    0.162031
    57  H    0.155326
    58  H    0.157949
    59  H    0.130210
    60  H    0.129296
    61  H    0.132935
    62  H    0.142096
    63  H    0.145355
    64  H    0.144375
    65  H    0.143316
    66  H    0.135569
    67  H    0.142515
    68  H    0.155208
    69  H    0.184659
    70  H    0.176384
    71  H    0.177890
    72  H    0.220030
    73  H    0.220579
    74  H    0.157317
    75  H    0.194862
    76  H    0.144310
    77  H    0.149732
    78  H    0.153936
    79  H    0.184079
    80  H    0.150295
    81  H    0.159611
    82  H    0.129377
    83  H    0.128843
    84  H    0.128142
    85  H    0.133119
    86  H    0.139898
    87  H    0.141303
    88  H    0.156663
    89  H    0.141012
    90  H    0.138474
    91  H    0.157332
 Sum of Mulliken charges =  -0.00000

 Dipole moment (field-independent basis, Debye):
    X=             -0.7588    Y=             -1.2887    Z=              1.5489  Tot=              2.1530
 Quadrupole moment (field-independent basis, Debye-Ang):
   XX=           -311.1377   YY=           -317.2825   ZZ=           -328.5958
   XY=            -11.5533   XZ=             -5.8405   YZ=              0.2223

 Normal termination of Gaussian 16 at Sat Nov  5 02:13:37 2022.
