 Gaussian 16, Revision B.01,
 Gaussian 16:  ES64L-G16RevB.01 20-Dec-2017

 -----------------------------
 #p b3lyp/6-31g(d) opt SCF=XQC
 -----------------------------

 ------------------------------
 Gaussian input prepared by ASE
 ------------------------------
 Symbolic Z-matrix:
 Charge =  0 Multiplicity = 1

 SCF Done:  E(RB3LYP) =  -2616.66355263     A.U. after   14 cycles
 SCF Done:  E(RB3LYP) =  -2616.67605270     A.U. after   12 cycles
 SCF Done:  E(RB3LYP) =  -2616.67660532     A.U. after   11 cycles
 SCF Done:  E(RB3LYP) =  -2616.67678067     A.U. after   11 cycles
 SCF Done:  E(RB3LYP) =  -2616.67679983     A.U. after   10 cycles
 SCF Done:  E(RB3LYP) =  -2616.67680264     A.U. after    9 cycles
 SCF Done:  E(RB3LYP) =  -2616.67680288     A.U. after    7 cycles
 SCF Done:  E(RB3LYP) =  -2616.67680296     A.U. after    6 cycles
 SCF Done:  E(RB3LYP) =  -2616.67680297     A.U. after    6 cycles
 Optimization completed.
    -- Stationary point found.

                         Standard orientation:
 ---------------------------------------------------------------------
 Center     Atomic      Atomic             Coordinates (Angstroms)
 Number     Number       Type             X           Y           Z
 ---------------------------------------------------------------------
      1          6           0       -6.944503   -4.246803   -4.002312
      2          6           0       -6.781333   -5.528754   -3.444330
      3          6           0       -5.927734   -5.723447   -2.373307
      4          6           0       -5.198283   -4.651477   -1.807275
      5          6           0       -5.365534   -3.357958   -2.378746
      6          6           0       -6.243348   -3.181389   -3.474371
      7          6           0       -4.627684   -2.250975   -1.852067
      8          6           0       -3.756036   -2.373202   -0.805447
      9          6           0       -2.997234   -1.168624   -0.358637
     10          6           0       -1.595650   -1.151950   -0.356816
     11          6           0       -0.878739   -0.000002   -0.000000
     12          6           0        0.608168   -0.000000   -0.000000
     13          6           0        1.326503    1.131213   -0.414978
     14          6           0        2.727732    1.146173   -0.422921
     15          6           0        3.457312    2.382188   -0.832175
     16          6           0        3.202951    3.546142   -0.160836
     17          6           0        3.880706    4.772248   -0.451743
     18          6           0        3.592115    5.946031    0.283831
     19          6           0        4.254756    7.128722    0.023715
     20          6           0        5.234338    7.166747   -0.986403
     21          6           0        5.531828    6.030546   -1.717295
     22          6           0        4.867687    4.804516   -1.477636
     23          6           0        5.136022    3.585121   -2.229229
     24          6           0        6.074193    3.548930   -3.287560
     25          6           0        6.301788    2.399047   -4.019698
     26          6           0        5.583404    1.227644   -3.727333
     27          6           0        4.663735    1.226406   -2.696585
     28          6           0        4.426426    2.383239   -1.914548
     29          6           0        3.416804    0.000003   -0.000000
     30          6           0        2.727734   -1.146168    0.422921
     31          6           0        3.457318   -2.382181    0.832173
     32          6           0        3.202971   -3.546132    0.160823
     33          6           0        3.880729   -4.772236    0.451729
     34          6           0        3.592153   -5.946015   -0.283857
     35          6           0        4.254795   -7.128705   -0.023740
     36          6           0        5.234363   -7.166733    0.986392
     37          6           0        5.531838   -6.030536    1.717296
     38          6           0        4.867696   -4.804507    1.477635
     39          6           0        5.136018   -3.585116    2.229239
     40          6           0        6.074178   -3.548927    3.287579
     41          6           0        6.301760   -2.399049    4.019728
     42          6           0        5.583373   -1.227647    3.727364
     43          6           0        4.663715   -1.226407    2.696606
     44          6           0        4.426419   -2.383235    1.914558
     45          6           0        1.326506   -1.131212    0.414978
     46          6           0       -1.595652    1.151947    0.356815
     47          6           0       -2.997236    1.168618    0.358635
     48          6           0       -3.756040    2.373195    0.805444
     49          6           0       -4.627692    2.250966    1.852060
     50          6           0       -5.365543    3.357949    2.378739
     51          6           0       -6.243362    3.181378    3.474360
     52          6           0       -6.944517    4.246791    4.002301
     53          6           0       -6.781343    5.528744    3.444325
     54          6           0       -5.927740    5.723438    2.373305
     55          6           0       -5.198289    4.651469    1.807272
     56          6           0       -4.298230    4.803448    0.671249
     57          6           0       -4.108430    6.048881    0.027287
     58          6           0       -3.280359    6.182106   -1.071183
     59          6           0       -2.610136    5.059100   -1.584612
     60          6           0       -2.768164    3.829063   -0.975990
     61          6           0       -3.590464    3.667346    0.166021
     62          6           0       -3.683848   -0.000003   -0.000002
     63          6           0       -3.590463   -3.667351   -0.166020
     64          6           0       -2.768168   -3.829066    0.975994
     65          6           0       -2.610144   -5.059102    1.584619
     66          6           0       -3.280365   -6.182109    1.071191
     67          6           0       -4.108431   -6.048885   -0.027283
     68          6           0       -4.298229   -4.803454   -0.671249
     69          1           0       -7.616405   -4.099200   -4.843308
     70          1           0       -7.328102   -6.372658   -3.856285
     71          1           0       -5.825218   -6.724419   -1.968785
     72          1           0       -6.355063   -2.185265   -3.896164
     73          1           0       -4.748722   -1.283770   -2.333811
     74          1           0       -1.056002   -2.038215   -0.676523
     75          1           0        0.791644    2.006247   -0.771984
     76          1           0        2.480189    3.545272    0.651566
     77          1           0        2.835069    5.898822    1.063145
     78          1           0        4.024481    8.024028    0.594623
     79          1           0        5.762183    8.093469   -1.194785
     80          1           0        6.292924    6.095115   -2.487128
     81          1           0        6.629214    4.444449   -3.544051
     82          1           0        7.029099    2.407071   -4.827022
     83          1           0        5.744846    0.326202   -4.312072
     84          1           0        4.101068    0.324648   -2.483503
     85          1           0        4.502621    0.000004    0.000000
     86          1           0        2.480218   -3.545259   -0.651588
     87          1           0        2.835118   -5.898804   -1.063182
     88          1           0        4.024533   -8.024008   -0.594658
     89          1           0        5.762208   -8.093455    1.194776
     90          1           0        6.292922   -6.095107    2.487140
     91          1           0        6.629201   -4.444446    3.544070
     92          1           0        7.029062   -2.407075    4.827060
     93          1           0        5.744804   -0.326209    4.312111
     94          1           0        4.101046   -0.324650    2.483525
     95          1           0        0.791649   -2.006247    0.771982
     96          1           0       -1.056005    2.038211    0.676523
     97          1           0       -4.748732    1.283761    2.333801
     98          1           0       -6.355079    2.185253    3.896150
     99          1           0       -7.616422    4.099187    4.843295
    100          1           0       -7.328112    6.372647    3.856280
    101          1           0       -5.825221    6.724411    1.968786
    102          1           0       -4.628548    6.927207    0.393128
    103          1           0       -3.158602    7.153786   -1.542137
    104          1           0       -1.974264    5.154261   -2.460515
    105          1           0       -2.263439    2.961191   -1.385187
    106          1           0       -4.769938   -0.000004   -0.000003
    107          1           0       -2.263444   -2.961193    1.385191
    108          1           0       -1.974275   -5.154261    2.460525
    109          1           0       -3.158610   -7.153788    1.542147
    110          1           0       -4.628548   -6.927212   -0.393124
 ---------------------------------------------------------------------

 The electronic state is 1-A.
 Alpha  occ. eigenvalues --  -10.20307 -10.20253 -10.20237 -10.20236 -10.20212
 Alpha  occ. eigenvalues --  -10.20211 -10.20113 -10.20113 -10.20071 -10.20071
 Alpha  occ. eigenvalues --  -10.20062 -10.20062 -10.20049 -10.20049 -10.20038
 Alpha  occ. eigenvalues --  -10.20038 -10.19990 -10.19990 -10.19978 -10.19978
 Alpha  occ. eigenvalues --  -10.19948 -10.19948 -10.19670 -10.19670 -10.19649
 Alpha  occ. eigenvalues --  -10.19649 -10.19142 -10.19141 -10.19126 -10.19108
 Alpha  occ. eigenvalues --  -10.19106 -10.19070 -10.19070 -10.19056 -10.19048
 Alpha  occ. eigenvalues --  -10.19048 -10.19014 -10.19014 -10.18993 -10.18993
 Alpha  occ. eigenvalues --  -10.18988 -10.18988 -10.18983 -10.18983 -10.18964
 Alpha  occ. eigenvalues --  -10.18964 -10.18943 -10.18943 -10.18924 -10.18924
 Alpha  occ. eigenvalues --  -10.18923 -10.18923 -10.18914 -10.18914 -10.18900
 Alpha  occ. eigenvalues --  -10.18900 -10.18894 -10.18894 -10.18858 -10.18858
 Alpha  occ. eigenvalues --  -10.18849 -10.18849 -10.18786 -10.18786 -10.18679
 Alpha  occ. eigenvalues --  -10.18679 -10.18591 -10.18591  -0.88594  -0.88325
 Alpha  occ. eigenvalues --   -0.88046  -0.88006  -0.86971  -0.85752  -0.84544
 Alpha  occ. eigenvalues --   -0.84491  -0.84453  -0.84341  -0.81861  -0.81817
 Alpha  occ. eigenvalues --   -0.81378  -0.80212  -0.78246  -0.77839  -0.77730
 Alpha  occ. eigenvalues --   -0.77253  -0.76814  -0.76256  -0.76106  -0.75377
 Alpha  occ. eigenvalues --   -0.75021  -0.74457  -0.74106  -0.72961  -0.72097
 Alpha  occ. eigenvalues --   -0.72086  -0.72050  -0.72041  -0.71591  -0.71081
 Alpha  occ. eigenvalues --   -0.70682  -0.70363  -0.64211  -0.63831  -0.63012
 Alpha  occ. eigenvalues --   -0.62905  -0.62886  -0.62815  -0.62774  -0.62720
 Alpha  occ. eigenvalues --   -0.62028  -0.61513  -0.61072  -0.60921  -0.60798
 Alpha  occ. eigenvalues --   -0.58874  -0.58294  -0.58208  -0.57965  -0.57633
 Alpha  occ. eigenvalues --   -0.57067  -0.56738  -0.54026  -0.52977  -0.52911
 Alpha  occ. eigenvalues --   -0.52883  -0.52715  -0.52316  -0.52248  -0.52072
 Alpha  occ. eigenvalues --   -0.51452  -0.49989  -0.48741  -0.48490  -0.48411
 Alpha  occ. eigenvalues --   -0.48144  -0.48059  -0.47982  -0.47636  -0.47590
 Alpha  occ. eigenvalues --   -0.47440  -0.47334  -0.47117  -0.46895  -0.46700
 Alpha  occ. eigenvalues --   -0.44819  -0.44283  -0.43461  -0.43396  -0.43352
 Alpha  occ. eigenvalues --   -0.43283  -0.43208  -0.43033  -0.42891  -0.42677
 Alpha  occ. eigenvalues --   -0.42317  -0.42276  -0.42178  -0.42167  -0.41952
 Alpha  occ. eigenvalues --   -0.41933  -0.41904  -0.41884  -0.41147  -0.40943
 Alpha  occ. eigenvalues --   -0.40941  -0.40616  -0.39738  -0.39713  -0.39700
 Alpha  occ. eigenvalues --   -0.39552  -0.39499  -0.39452  -0.39317  -0.39275
 Alpha  occ. eigenvalues --   -0.37620  -0.37155  -0.36941  -0.36528  -0.36445
 Alpha  occ. eigenvalues --   -0.36212  -0.36048  -0.35919  -0.35902  -0.35797
 Alpha  occ. eigenvalues --   -0.35704  -0.35609  -0.35585  -0.35566  -0.35516
 Alpha  occ. eigenvalues --   -0.35430  -0.34698  -0.34563  -0.33192  -0.33083
 Alpha  occ. eigenvalues --   -0.32992  -0.32751  -0.32410  -0.32223  -0.31903
 Alpha  occ. eigenvalues --   -0.31531  -0.31517  -0.31064  -0.30896  -0.30634
 Alpha  occ. eigenvalues --   -0.28188  -0.28183  -0.28155  -0.28085  -0.27402
 Alpha  occ. eigenvalues --   -0.26336  -0.26240  -0.25970  -0.25886  -0.25125
 Alpha  occ. eigenvalues --   -0.24802  -0.23026  -0.22205  -0.22197  -0.22154
 Alpha  occ. eigenvalues --   -0.22154  -0.20954  -0.20813  -0.20577  -0.20568
 Alpha virt. eigenvalues --   -0.04425  -0.04313  -0.04158  -0.03927  -0.03310
 Alpha virt. eigenvalues --   -0.03111  -0.03103  -0.03076  -0.02665  -0.01064
 Alpha virt. eigenvalues --   -0.00710   0.00431   0.00815   0.01252   0.01398

 Mulliken charges:
               1
     1  C   -0.130358
     2  C   -0.137277
     3  C   -0.191898
     4  C    0.070129
     5  C    0.149689
     6  C   -0.204293
     7  C   -0.263015
     8  C    0.032210
     9  C    0.060121
    10  C   -0.224760
    11  C    0.096948
    12  C    0.094933
    13  C   -0.222320
    14  C    0.058723
    15  C    0.032877
    16  C   -0.263872
    17  C    0.149909
    18  C   -0.204689
    19  C   -0.130590
    20  C   -0.137419
    21  C   -0.191831
    22  C    0.069896
    23  C    0.048464
    24  C   -0.190154
    25  C   -0.135329
    26  C   -0.127800
    27  C   -0.218387
    28  C    0.105005
    29  C   -0.217666
    30  C    0.058722
    31  C    0.032876
    32  C   -0.263871
    33  C    0.149909
    34  C   -0.204689
    35  C   -0.130590
    36  C   -0.137419
    37  C   -0.191831
    38  C    0.069896
    39  C    0.048464
    40  C   -0.190153
    41  C   -0.135329
    42  C   -0.127799
    43  C   -0.218387
    44  C    0.105006
    45  C   -0.222320
    46  C   -0.224761
    47  C    0.060122
    48  C    0.032211
    49  C   -0.263015
    50  C    0.149689
    51  C   -0.204293
    52  C   -0.130358
    53  C   -0.137277
    54  C   -0.191898
    55  C    0.070129
    56  C    0.048005
    57  C   -0.190122
    58  C   -0.135885
    59  C   -0.128150
    60  C   -0.222267
    61  C    0.104703
    62  C   -0.210604
    63  C    0.104703
    64  C   -0.222267
    65  C   -0.128149
    66  C   -0.135885
    67  C   -0.190122
    68  C    0.048005
    69  H    0.130827
    70  H    0.129619
    71  H    0.133959
    72  H    0.132049
    73  H    0.136533
    74  H    0.144094
    75  H    0.140500
    76  H    0.134354
    77  H    0.132361
    78  H    0.130581
    79  H    0.129419
    80  H    0.134094
    81  H    0.133110
    82  H    0.129640
    83  H    0.131210
    84  H    0.147472
    85  H    0.152508
    86  H    0.134354
    87  H    0.132361
    88  H    0.130581
    89  H    0.129419
    90  H    0.134094
    91  H    0.133110
    92  H    0.129640
    93  H    0.131210
    94  H    0.147471
    95  H    0.140500
    96  H    0.144095
    97  H    0.136533
    98  H    0.132049
    99  H    0.130827
   100  H    0.129619
   101  H    0.133959
   102  H    0.133296
   103  H    0.130129
   104  H    0.132536
   105  H    0.146882
   106  H    0.139919
   107  H    0.146882
   108  H    0.132536
   109  H    0.130129
   110  H    0.133296
 Sum of Mulliken charges =  -0.00000

 Dipole moment (field-independent basis, Debye):
    X=              0.1040    Y=             -0.0000    Z=              0.0000  Tot=              0.1040
 Quadrupole moment (field-independent basis, Debye-Ang):
   XX=           -366.3452   YY=           -338.4254   ZZ=           -368.8573
   XY=             -0.0001   XZ=             -0.0001   YZ=              1.4196

 Normal termination of Gaussian 16 at Sat Nov  5 00:12:27 2022.
