 Gaussian 16, Revision B.01,
 Gaussian 16:  ES64L-G16RevB.01 20-Dec-2017

 -------------------------------------------------------------------
 #p b3lyp/6-31g(d) 6D 10F nosymm GFInput td=(50-50,nstate=2) SCF=XQC
 -------------------------------------------------------------------

 ------------------------------
 Gaussian input prepared by ASE
 ------------------------------
 Symbolic Z-matrix:
 Charge =  0 Multiplicity = 1

                          Input orientation:
 ---------------------------------------------------------------------
 Center     Atomic      Atomic             Coordinates (Angstroms)
 Number     Number       Type             X           Y           Z
 ---------------------------------------------------------------------
      1          6           0        6.685098    5.029721   -3.523952
      2          6           0        6.511394    6.203723   -2.767041
      3          6           0        5.695119    6.203164   -1.650205
      4          6           0        5.015228    5.034260   -1.234248
      5          6           0        5.192780    3.851059   -2.006423
      6          6           0        6.031839    3.874083   -3.145535
      7          6           0        4.503860    2.653440   -1.634500
      8          6           0        3.670436    2.584567   -0.552474
      9          6           0        2.959961    1.302354   -0.273942
     10          6           0        1.560352    1.242365   -0.226848
     11          6           0        0.886929    0.027395   -0.030347
     12          6           0       -0.598401   -0.018482    0.020474
     13          6           0       -1.303540   -1.093072   -0.541567
     14          6           0       -2.703213   -1.149840   -0.503854
     15          6           0       -3.416730   -2.329144   -1.076256
     16          6           0       -3.107477   -3.574885   -0.604368
     17          6           0       -3.764907   -4.761200   -1.060171
     18          6           0       -3.418737   -6.025571   -0.527583
     19          6           0       -4.060973   -7.173339   -0.946717
     20          6           0       -5.077524   -7.084117   -1.916267
     21          6           0       -5.431459   -5.857854   -2.449808
     22          6           0       -4.789603   -4.664069   -2.044139
     23          6           0       -5.117304   -3.351547   -2.586095
     24          6           0       -6.096215   -3.180275   -3.593041
     25          6           0       -6.380721   -1.938153   -4.128062
     26          6           0       -5.681273   -0.804823   -3.680766
     27          6           0       -4.722851   -0.935423   -2.694559
     28          6           0       -4.426541   -2.191862   -2.111703
     29          6           0       -3.404059   -0.105139    0.116471
     30          6           0       -2.728223    0.982082    0.689692
     31          6           0       -3.472323    2.116366    1.311966
     32          6           0       -3.273407    3.377800    0.822678
     33          6           0       -3.970052    4.522292    1.324810
     34          6           0       -3.739669    5.804469    0.772483
     35          6           0       -4.421310    6.911347    1.236915
     36          6           0       -5.361830    6.761681    2.273441
     37          6           0       -5.602229    5.517063    2.827331
     38          6           0       -4.917211    4.364261    2.376260
     39          6           0       -5.125597    3.035184    2.936570
     40          6           0       -6.021027    2.806023    4.007658
     41          6           0       -6.191215    1.549860    4.558247
     42          6           0       -5.455416    0.460860    4.061844
     43          6           0       -4.576463    0.648207    3.012760
     44          6           0       -4.398671    1.919286    2.413671
     45          6           0       -1.328411    1.011782    0.631620
     46          6           0        1.645808   -1.143337    0.117146
     47          6           0        3.046395   -1.116839    0.068429
     48          6           0        3.851915   -2.352229    0.295090
     49          6           0        4.759942   -2.367314    1.317529
     50          6           0        5.545159   -3.519402    1.639013
     51          6           0        6.459870   -3.488258    2.718115
     52          6           0        7.207434   -4.600630    3.048603
     53          6           0        7.055141   -5.784703    2.302851
     54          6           0        6.166024   -5.836818    1.244369
     55          6           0        5.388561   -4.712926    0.878275
     56          6           0        4.449457   -4.714196   -0.236101
     57          6           0        4.266331   -5.849668   -1.060105
     58          6           0        3.400115   -5.836037   -2.136939
     59          6           0        2.682563   -4.668100   -2.445148
     60          6           0        2.832974   -3.543317   -1.657351
     61          6           0        3.694388   -3.535762   -0.532883
     62          6           0        3.689062    0.113942   -0.126225
     63          6           0        3.497166    3.757881    0.286822
     64          6           0        2.715730    3.714694    1.467504
     65          6           0        2.550424    4.829724    2.266106
     66          6           0        3.171894    6.039018    1.912082
     67          6           0        3.960059    6.103748    0.778639
     68          6           0        4.156128    4.979989   -0.058343
     69          1           0        7.327558    5.035418   -4.400152
     70          1           0        7.020474    7.117860   -3.060346
     71          1           0        5.583149    7.125458   -1.090804
     72          1           0        6.152210    2.959544   -3.721540
     73          1           0        4.630505    1.777060   -2.265477
     74          1           0        0.986662    2.150472   -0.385334
     75          1           0       -0.761020   -1.885065   -1.049139
     76          1           0       -2.354166   -3.677988    0.172984
     77          1           0       -2.633620   -6.076721    0.223185
     78          1           0       -3.786410   -8.138959   -0.531111
     79          1           0       -5.589547   -7.983030   -2.248898
     80          1           0       -6.219820   -5.825444   -3.193795
     81          1           0       -6.638025   -4.041742   -3.967350
     82          1           0       -7.138200   -1.843043   -4.901364
     83          1           0       -5.887764    0.171128   -4.111416
     84          1           0       -4.175233   -0.060814   -2.362385
     85          1           0       -4.488723   -0.138641    0.153583
     86          1           0       -2.582737    3.525500   -0.004089
     87          1           0       -3.012312    5.902331   -0.030046
     88          1           0       -4.235825    7.891174    0.805558
     89          1           0       -5.904377    7.628023    2.642157
     90          1           0       -6.334433    5.437690    3.623356
     91          1           0       -6.588084    3.633241    4.419906
     92          1           0       -6.886805    1.409873    5.381274
     93          1           0       -5.571455   -0.525051    4.503539
     94          1           0       -3.999937   -0.191681    2.642124
     95          1           0       -0.802352    1.836780    1.102629
     96          1           0        1.141349   -2.084744    0.312523
     97          1           0        4.875119   -1.483464    1.940229
     98          1           0        6.562694   -2.566824    3.286481
     99          1           0        7.907356   -4.564866    3.878870
    100          1           0        7.638439   -6.665101    2.558780
    101          1           0        6.073177   -6.765440    0.691980
    102          1           0        4.822092   -6.757709   -0.854170
    103          1           0        3.284751   -6.726004   -2.749666
    104          1           0        2.015971   -4.645546   -3.302902
    105          1           0        2.291179   -2.638385   -1.908244
    106          1           0        4.774000    0.147451   -0.163347
    107          1           0        2.249146    2.778617    1.752898
    108          1           0        1.946624    4.767932    3.167329
    109          1           0        3.044005    6.921470    2.533134
    110          1           0        4.443429    7.043884    0.537150
 ---------------------------------------------------------------------

 SCF Done:  E(RB3LYP) =  -2616.67679467     A.U. after   14 cycles

 Excitation energies and oscillator strengths:

 Excited state symmetry could not be determined.
 Excited State   1:      Triplet-?Sym    2.6485 eV  468.14 nm  f=0.0000  <S**2>=2.000
     218 -> 230       -0.14380
     219 -> 231        0.15249
     222 -> 228        0.20156
     222 -> 229        0.28114
     223 -> 227       -0.18979
     224 -> 226        0.36988
     224 -> 227       -0.18030
     225 -> 228       -0.17484
 This state for optimization and/or second-order correction.
 Total Energy, E(TD-HF/TD-DFT) =  -2616.57946531
 Copying the excited state density for this state as the 1-particle RhoCI density.

 Excited state symmetry could not be determined.
 Excited State   2:      Triplet-?Sym    2.6604 eV  466.04 nm  f=0.0000  <S**2>=2.000
     220 -> 233        0.14409
     221 -> 232       -0.15915
     222 -> 228        0.15583
     223 -> 226        0.21011
     223 -> 227        0.32885
     224 -> 226        0.15784
     224 -> 227       -0.13769
     225 -> 228        0.21008
     225 -> 229       -0.28243

 Excited state symmetry could not be determined.
 Excited State   3:      Singlet-?Sym    3.9178 eV  316.46 nm  f=0.0363  <S**2>=0.000
     218 -> 226        0.22608
     219 -> 228        0.13028
     219 -> 229        0.15045
     220 -> 227        0.13958
     222 -> 231       -0.22357
     223 -> 233       -0.14973
     224 -> 228        0.25671
     224 -> 230        0.29151
     225 -> 226        0.18991
     225 -> 227        0.10334
     225 -> 232        0.18228

 Excited state symmetry could not be determined.
 Excited State   4:      Singlet-?Sym    3.9214 eV  316.18 nm  f=0.0082  <S**2>=0.000
     218 -> 226       -0.13169
     218 -> 227        0.10996
     219 -> 229       -0.10381
     220 -> 226        0.13147
     220 -> 227        0.17682
     221 -> 228        0.13572
     221 -> 229       -0.14776
     222 -> 231        0.12647
     222 -> 232        0.12065
     223 -> 228       -0.17888
     223 -> 233       -0.20847
     224 -> 228       -0.13012
     224 -> 230       -0.18864
     224 -> 233        0.10386
     225 -> 226        0.11738
     225 -> 227        0.24213
     225 -> 231       -0.15650
     225 -> 232        0.23553

 Alpha  occ. eigenvalues --  -10.20307 -10.20253 -10.20237 -10.20236 -10.20212
 Alpha  occ. eigenvalues --  -10.20211 -10.20113 -10.20113 -10.20071 -10.20071
 Alpha  occ. eigenvalues --  -10.20062 -10.20062 -10.20049 -10.20049 -10.20038
 Alpha  occ. eigenvalues --  -10.20038 -10.19990 -10.19990 -10.19978 -10.19978
 Alpha  occ. eigenvalues --  -10.19948 -10.19948 -10.19670 -10.19670 -10.19649
 Alpha  occ. eigenvalues --  -10.19649 -10.19142 -10.19141 -10.19126 -10.19108
 Alpha  occ. eigenvalues --  -10.19106 -10.19070 -10.19070 -10.19055 -10.19048
 Alpha  occ. eigenvalues --  -10.19048 -10.19014 -10.19014 -10.18993 -10.18993
 Alpha  occ. eigenvalues --  -10.18988 -10.18988 -10.18983 -10.18983 -10.18964
 Alpha  occ. eigenvalues --  -10.18964 -10.18943 -10.18943 -10.18924 -10.18924
 Alpha  occ. eigenvalues --  -10.18923 -10.18923 -10.18914 -10.18914 -10.18900
 Alpha  occ. eigenvalues --  -10.18900 -10.18894 -10.18894 -10.18859 -10.18859
 Alpha  occ. eigenvalues --  -10.18849 -10.18849 -10.18786 -10.18786 -10.18679
 Alpha  occ. eigenvalues --  -10.18679 -10.18591 -10.18591  -0.88594  -0.88325
 Alpha  occ. eigenvalues --   -0.88046  -0.88006  -0.86971  -0.85752  -0.84544
 Alpha  occ. eigenvalues --   -0.84491  -0.84453  -0.84341  -0.81861  -0.81817
 Alpha  occ. eigenvalues --   -0.81378  -0.80212  -0.78246  -0.77839  -0.77730
 Alpha  occ. eigenvalues --   -0.77253  -0.76814  -0.76256  -0.76106  -0.75377
 Alpha  occ. eigenvalues --   -0.75021  -0.74457  -0.74106  -0.72961  -0.72097
 Alpha  occ. eigenvalues --   -0.72086  -0.72050  -0.72041  -0.71591  -0.71081
 Alpha  occ. eigenvalues --   -0.70682  -0.70363  -0.64211  -0.63831  -0.63012
 Alpha  occ. eigenvalues --   -0.62905  -0.62886  -0.62815  -0.62774  -0.62720
 Alpha  occ. eigenvalues --   -0.62028  -0.61513  -0.61072  -0.60921  -0.60798
 Alpha  occ. eigenvalues --   -0.58874  -0.58294  -0.58208  -0.57965  -0.57633
 Alpha  occ. eigenvalues --   -0.57067  -0.56738  -0.54026  -0.52977  -0.52911
 Alpha  occ. eigenvalues --   -0.52883  -0.52715  -0.52316  -0.52248  -0.52072
 Alpha  occ. eigenvalues --   -0.51452  -0.49989  -0.48741  -0.48490  -0.48411
 Alpha  occ. eigenvalues --   -0.48144  -0.48059  -0.47982  -0.47636  -0.47590
 Alpha  occ. eigenvalues --   -0.47440  -0.47334  -0.47117  -0.46896  -0.46700
 Alpha  occ. eigenvalues --   -0.44818  -0.44283  -0.43461  -0.43396  -0.43352
 Alpha  occ. eigenvalues --   -0.43283  -0.43208  -0.43033  -0.42891  -0.42677
 Alpha  occ. eigenvalues --   -0.42317  -0.42276  -0.42178  -0.42167  -0.41952
 Alpha  occ. eigenvalues --   -0.41933  -0.41904  -0.41884  -0.41147  -0.40943
 Alpha  occ. eigenvalues --   -0.40941  -0.40616  -0.39738  -0.39713  -0.39700
 Alpha  occ. eigenvalues --   -0.39552  -0.39499  -0.39452  -0.39317  -0.39275
 Alpha  occ. eigenvalues --   -0.37620  -0.37155  -0.36941  -0.36528  -0.36445
 Alpha  occ. eigenvalues --   -0.36212  -0.36048  -0.35919  -0.35902  -0.35797
 Alpha  occ. eigenvalues --   -0.35704  -0.35609  -0.35585  -0.35566  -0.35516
 Alpha  occ. eigenvalues --   -0.35430  -0.34698  -0.34563  -0.33192  -0.33083
 Alpha  occ. eigenvalues --   -0.32992  -0.32751  -0.32410  -0.32223  -0.31903
 Alpha  occ. eigenvalues --   -0.31531  -0.31517  -0.31064  -0.30896  -0.30634
 Alpha  occ. eigenvalues --   -0.28188  -0.28183  -0.28155  -0.28085  -0.27402
 Alpha  occ. eigenvalues --   -0.26336  -0.26240  -0.25970  -0.25886  -0.25125
 Alpha  occ. eigenvalues --   -0.24802  -0.23026  -0.22205  -0.22197  -0.22154
 Alpha  occ. eigenvalues --   -0.22154  -0.20954  -0.20813  -0.20577  -0.20568
 Alpha virt. eigenvalues --   -0.04425  -0.04313  -0.04158  -0.03927  -0.03310
 Alpha virt. eigenvalues --   -0.03111  -0.03103  -0.03076  -0.02665  -0.01064
 Alpha virt. eigenvalues --   -0.00710   0.00431   0.00815   0.01252   0.01398

 Mulliken charges:
               1
     1  C   -0.130357
     2  C   -0.137281
     3  C   -0.191897
     4  C    0.070135
     5  C    0.149680
     6  C   -0.204290
     7  C   -0.263019
     8  C    0.032213
     9  C    0.060136
    10  C   -0.224763
    11  C    0.096930
    12  C    0.094940
    13  C   -0.222317
    14  C    0.058711
    15  C    0.032881
    16  C   -0.263878
    17  C    0.149921
    18  C   -0.204693
    19  C   -0.130591
    20  C   -0.137420
    21  C   -0.191829
    22  C    0.069894
    23  C    0.048464
    24  C   -0.190151
    25  C   -0.135330
    26  C   -0.127796
    27  C   -0.218390
    28  C    0.105001
    29  C   -0.217660
    30  C    0.058715
    31  C    0.032880
    32  C   -0.263875
    33  C    0.149911
    34  C   -0.204690
    35  C   -0.130590
    36  C   -0.137421
    37  C   -0.191832
    38  C    0.069902
    39  C    0.048465
    40  C   -0.190152
    41  C   -0.135328
    42  C   -0.127798
    43  C   -0.218384
    44  C    0.105000
    45  C   -0.222317
    46  C   -0.224763
    47  C    0.060139
    48  C    0.032211
    49  C   -0.263014
    50  C    0.149679
    51  C   -0.204290
    52  C   -0.130357
    53  C   -0.137280
    54  C   -0.191895
    55  C    0.070133
    56  C    0.048007
    57  C   -0.190120
    58  C   -0.135891
    59  C   -0.128147
    60  C   -0.222269
    61  C    0.104697
    62  C   -0.210604
    63  C    0.104699
    64  C   -0.222272
    65  C   -0.128148
    66  C   -0.135889
    67  C   -0.190118
    68  C    0.048007
    69  H    0.130826
    70  H    0.129620
    71  H    0.133959
    72  H    0.132050
    73  H    0.136534
    74  H    0.144095
    75  H    0.140499
    76  H    0.134355
    77  H    0.132361
    78  H    0.130581
    79  H    0.129419
    80  H    0.134094
    81  H    0.133109
    82  H    0.129640
    83  H    0.131210
    84  H    0.147472
    85  H    0.152510
    86  H    0.134354
    87  H    0.132361
    88  H    0.130581
    89  H    0.129419
    90  H    0.134094
    91  H    0.133110
    92  H    0.129640
    93  H    0.131210
    94  H    0.147468
    95  H    0.140501
    96  H    0.144094
    97  H    0.136534
    98  H    0.132050
    99  H    0.130826
   100  H    0.129620
   101  H    0.133959
   102  H    0.133295
   103  H    0.130129
   104  H    0.132537
   105  H    0.146882
   106  H    0.139916
   107  H    0.146883
   108  H    0.132536
   109  H    0.130129
   110  H    0.133295
 Sum of Mulliken charges =  -0.00000

 Dipole moment (field-independent basis, Debye):
    X=             -0.1039    Y=             -0.0032    Z=              0.0036  Tot=              0.1040
 Quadrupole moment (field-independent basis, Debye-Ang):
   XX=           -366.3302   YY=           -338.7512   ZZ=           -368.5478
   XY=             -0.7378   XZ=             -0.1787   YZ=              3.3492

 Normal termination of Gaussian 16 at Sat Nov  5 11:10:19 2022.
