 Gaussian 16, Revision B.01,
 Gaussian 16:  ES64L-G16RevB.01 20-Dec-2017

 -----------------------------
 #p b3lyp/6-31g(d) opt SCF=XQC
 -----------------------------

 ------------------------------
 Gaussian input prepared by ASE
 ------------------------------
 Symbolic Z-matrix:
 Charge =  0 Multiplicity = 1

 SCF Done:  E(RB3LYP) =  -1982.48662204     A.U. after   16 cycles
 SCF Done:  E(RB3LYP) =  -1982.49288542     A.U. after   13 cycles
 SCF Done:  E(RB3LYP) =  -1982.49340356     A.U. after   12 cycles
 SCF Done:  E(RB3LYP) =  -1982.49388165     A.U. after   12 cycles
 SCF Done:  E(RB3LYP) =  -1982.49407170     A.U. after   12 cycles
 SCF Done:  E(RB3LYP) =  -1982.49411367     A.U. after   12 cycles
 SCF Done:  E(RB3LYP) =  -1982.49412519     A.U. after   10 cycles
 SCF Done:  E(RB3LYP) =  -1982.49412746     A.U. after    9 cycles
 SCF Done:  E(RB3LYP) =  -1982.49412788     A.U. after    8 cycles
 Optimization completed.
    -- Stationary point found.

                         Standard orientation:
 ---------------------------------------------------------------------
 Center     Atomic      Atomic             Coordinates (Angstroms)
 Number     Number       Type             X           Y           Z
 ---------------------------------------------------------------------
      1          6           0        0.712837    5.538007   -0.403019
      2          6           0       -0.712016    5.538119   -0.403076
      3          6           0       -1.408088    4.358568   -0.342957
      4          6           0       -0.719442    3.109498   -0.274208
      5          6           0       -1.402090    1.884529   -0.227359
      6          6           0       -0.719931    0.667513   -0.154166
      7          6           0       -1.363653   -0.627277   -0.162097
      8          6           0       -2.820777   -0.838781   -0.084440
      9          6           0       -3.491183   -1.866209   -0.686988
     10          6           0       -4.887436   -1.920065   -0.368585
     11          6           0       -5.868455   -2.825993   -0.817612
     12          6           0       -7.175590   -2.695642   -0.372673
     13          6           0       -7.533068   -1.667567    0.520306
     14          6           0       -6.585959   -0.757956    0.978175
     15          6           0       -5.268059   -0.892523    0.530584
     16         16           0       -3.897562    0.117446    0.953824
     17          7           0       -0.676821   -1.752056   -0.281146
     18          7           0        0.676549   -1.752145   -0.281103
     19          6           0        1.363498   -0.627444   -0.162031
     20          6           0        2.820610   -0.839020   -0.084389
     21          6           0        3.491007   -1.866427   -0.686976
     22          6           0        4.887261   -1.920284   -0.368571
     23          6           0        5.868279   -2.826218   -0.817589
     24          6           0        7.175414   -2.695866   -0.372650
     25          6           0        7.532895   -1.667783    0.520318
     26          6           0        6.585789   -0.758162    0.978174
     27          6           0        5.267889   -0.892728    0.530583
     28         16           0        3.897406    0.117278    0.953787
     29          6           0        0.719939    0.667412   -0.154129
     30          6           0        1.402312    1.884308   -0.227254
     31          6           0        0.719871    3.109387   -0.274151
     32          6           0        1.408720    4.358347   -0.342844
     33          1           0        1.245890    6.483371   -0.452259
     34          1           0       -1.244917    6.483565   -0.452357
     35          1           0       -2.495067    4.354597   -0.344014
     36          1           0       -2.484532    1.896882   -0.278189
     37          1           0       -2.985762   -2.573949   -1.333064
     38          1           0       -5.593608   -3.620763   -1.505921
     39          1           0       -7.934182   -3.393691   -0.715393
     40          1           0       -8.562387   -1.582159    0.857255
     41          1           0       -6.864034    0.034251    1.667253
     42          1           0        2.985585   -2.574162   -1.333057
     43          1           0        5.593431   -3.620996   -1.505889
     44          1           0        7.934004   -3.393920   -0.715364
     45          1           0        8.562215   -1.582372    0.857263
     46          1           0        6.863868    0.034058    1.667235
     47          1           0        2.484765    1.896460   -0.277976
     48          1           0        2.495698    4.354206   -0.343817
 ---------------------------------------------------------------------

 The electronic state is 1-A.
 Alpha  occ. eigenvalues --  -88.90745 -88.90745 -14.35474 -14.35452 -10.24660
 Alpha  occ. eigenvalues --  -10.24660 -10.22859 -10.22859 -10.22462 -10.22462
 Alpha  occ. eigenvalues --  -10.22187 -10.22147 -10.21692 -10.21652 -10.20927
 Alpha  occ. eigenvalues --  -10.20927 -10.20771 -10.20730 -10.20612 -10.20610
 Alpha  occ. eigenvalues --  -10.20196 -10.20196 -10.20080 -10.20080 -10.19606
 Alpha  occ. eigenvalues --  -10.19605 -10.19595 -10.19595 -10.19538 -10.19537
 Alpha  occ. eigenvalues --  -10.19271 -10.19271  -7.96825  -7.96825  -5.93266
 Alpha  occ. eigenvalues --   -5.93266  -5.92906  -5.92905  -5.92452  -5.92451
 Alpha  occ. eigenvalues --   -1.00444  -0.89639  -0.89346  -0.88974  -0.85657
 Alpha  occ. eigenvalues --   -0.84534  -0.82877  -0.81549  -0.79046  -0.77630
 Alpha  occ. eigenvalues --   -0.77041  -0.76971  -0.73960  -0.73917  -0.72244
 Alpha  occ. eigenvalues --   -0.71330  -0.70798  -0.67895  -0.65123  -0.64372
 Alpha  occ. eigenvalues --   -0.61531  -0.61436  -0.59842  -0.58629  -0.58592
 Alpha  occ. eigenvalues --   -0.57919  -0.55871  -0.54865  -0.53720  -0.51933
 Alpha  occ. eigenvalues --   -0.50265  -0.50091  -0.49336  -0.48651  -0.47040
 Alpha  occ. eigenvalues --   -0.46764  -0.46756  -0.45671  -0.44490  -0.44114
 Alpha  occ. eigenvalues --   -0.43792  -0.43436  -0.43250  -0.42764  -0.42344
 Alpha  occ. eigenvalues --   -0.42244  -0.40907  -0.40108  -0.40092  -0.39664
 Alpha  occ. eigenvalues --   -0.39298  -0.38198  -0.37019  -0.36643  -0.36416
 Alpha  occ. eigenvalues --   -0.35597  -0.35554  -0.35031  -0.34329  -0.33931
 Alpha  occ. eigenvalues --   -0.33578  -0.33216  -0.32878  -0.31208  -0.30304
 Alpha  occ. eigenvalues --   -0.28907  -0.28389  -0.27980  -0.26713  -0.23834
 Alpha  occ. eigenvalues --   -0.23533  -0.22823  -0.22399  -0.21994  -0.20374
 Alpha virt. eigenvalues --   -0.09054  -0.04528  -0.04304  -0.02838  -0.00429
 Alpha virt. eigenvalues --   -0.00356   0.00092   0.01782   0.02051   0.02760
 Alpha virt. eigenvalues --    0.03537   0.05497   0.06247   0.08598   0.08863

 Mulliken charges:
               1
     1  C   -0.135645
     2  C   -0.135644
     3  C   -0.183468
     4  C    0.150713
     5  C   -0.304370
     6  C    0.115691
     7  C    0.238665
     8  C   -0.193619
     9  C   -0.132109
    10  C    0.146551
    11  C   -0.171127
    12  C   -0.144574
    13  C   -0.119173
    14  C   -0.179505
    15  C   -0.130425
    16  S    0.227663
    17  N   -0.350848
    18  N   -0.350864
    19  C    0.238684
    20  C   -0.193620
    21  C   -0.132112
    22  C    0.146545
    23  C   -0.171127
    24  C   -0.144573
    25  C   -0.119173
    26  C   -0.179509
    27  C   -0.130418
    28  S    0.227666
    29  C    0.115672
    30  C   -0.304366
    31  C    0.150702
    32  C   -0.183466
    33  H    0.140300
    34  H    0.140300
    35  H    0.143136
    36  H    0.167561
    37  H    0.167547
    38  H    0.137798
    39  H    0.133422
    40  H    0.133708
    41  H    0.142115
    42  H    0.167548
    43  H    0.137798
    44  H    0.133423
    45  H    0.133708
    46  H    0.142115
    47  H    0.167568
    48  H    0.143137
 Sum of Mulliken charges =  -0.00000

 Dipole moment (field-independent basis, Debye):
    X=              0.0005    Y=              3.5797    Z=             -0.9252  Tot=              3.6973
 Quadrupole moment (field-independent basis, Debye-Ang):
   XX=           -158.6792   YY=           -177.3898   ZZ=           -196.7471
   XY=              0.0000   XZ=              0.0002   YZ=              6.5491

 Normal termination of Gaussian 16 at Fri Nov  4 23:30:52 2022.
