 Gaussian 16, Revision B.01,
 Gaussian 16:  ES64L-G16RevB.01 20-Dec-2017

 -------------------------------------------------------------------
 #p b3lyp/6-31g(d) 6D 10F nosymm GFInput td=(50-50,nstate=2) SCF=XQC
 -------------------------------------------------------------------

 ------------------------------
 Gaussian input prepared by ASE
 ------------------------------
 Symbolic Z-matrix:
 Charge =  0 Multiplicity = 1

                          Input orientation:
 ---------------------------------------------------------------------
 Center     Atomic      Atomic             Coordinates (Angstroms)
 Number     Number       Type             X           Y           Z
 ---------------------------------------------------------------------
      1          6           0       -2.068337   -0.138608   -2.396587
      2          6           0       -2.020080    0.713657   -1.112716
      3          6           0       -3.149595    0.298961   -0.169879
      4          6           0       -3.026866   -0.816729    0.671714
      5          6           0       -4.077747   -1.218758    1.488177
      6          6           0       -5.286447   -0.501534    1.481505
      7          6           0       -6.373156   -0.909120    2.323009
      8          7           0       -7.256223   -1.240588    3.004354
      9          6           0       -5.420318    0.619541    0.647441
     10          6           0       -4.358872    1.007450   -0.164865
     11          6           0       -0.662110    0.726458   -0.411946
     12          6           0       -0.392085    1.732583    0.525816
     13          6           0        0.830449    1.773869    1.191996
     14          6           0        1.800360    0.796929    0.961462
     15          6           0        1.554815   -0.208053    0.012895
     16          6           0        0.329744   -0.224490   -0.669441
     17          7           0        2.523020   -1.190169   -0.246400
     18          6           0        3.901500   -0.925081   -0.177352
     19          6           0        4.796258   -1.587003   -1.026652
     20          6           0        6.166949   -1.344622   -0.940860
     21          6           0        6.658761   -0.411107   -0.029206
     22          6           0        5.769936    0.270395    0.805012
     23          6           0        4.401497    0.003653    0.752365
     24         16           0        3.296294    0.761592    1.934351
     25          1           0       -1.947324   -1.205559   -2.179271
     26          1           0       -3.037085   -0.015947   -2.891115
     27          1           0       -1.283469    0.164051   -3.098418
     28          1           0       -2.226707    1.749887   -1.412029
     29          1           0       -2.091329   -1.367966    0.697691
     30          1           0       -3.970725   -2.082157    2.137151
     31          1           0       -6.350376    1.179030    0.644040
     32          1           0       -4.471963    1.877671   -0.807125
     33          1           0       -1.143102    2.489336    0.736891
     34          1           0        1.033225    2.563868    1.909684
     35          1           0        0.165745   -0.999549   -1.413485
     36          1           0        2.265486   -1.842965   -0.975768
     37          1           0        4.411788   -2.300659   -1.752672
     38          1           0        6.845714   -1.879283   -1.599195
     39          1           0        7.723739   -0.209368    0.034223
     40          1           0        6.138639    1.005279    1.515205
 ---------------------------------------------------------------------

 SCF Done:  E(RB3LYP) =  -1317.56597170     A.U. after   16 cycles

 Excitation energies and oscillator strengths:

 Excited state symmetry could not be determined.
 Excited State   1:      Triplet-?Sym    2.9642 eV  418.28 nm  f=0.0000  <S**2>=2.000
      82 -> 90         0.10999
      83 -> 92        -0.10450
      84 -> 92        -0.10403
      85 -> 91        -0.13903
      86 -> 87         0.12968
      86 -> 88         0.38059
      86 -> 89         0.51840
 This state for optimization and/or second-order correction.
 Total Energy, E(TD-HF/TD-DFT) =  -1317.45704079
 Copying the excited state density for this state as the 1-particle RhoCI density.

 Excited state symmetry could not be determined.
 Excited State   2:      Triplet-?Sym    3.2446 eV  382.13 nm  f=0.0000  <S**2>=2.000
      81 -> 88        -0.11456
      83 -> 87         0.16881
      84 -> 87        -0.26342
      86 -> 87         0.55449
      86 -> 89        -0.13363
      86 -> 90         0.16706

 Excited state symmetry could not be determined.
 Excited State   3:      Singlet-?Sym    3.3860 eV  366.17 nm  f=0.0399  <S**2>=0.000
      86 -> 87         0.70133

 Excited state symmetry could not be determined.
 Excited State   4:      Singlet-?Sym    3.6685 eV  337.97 nm  f=0.0014  <S**2>=0.000
      86 -> 88         0.42667
      86 -> 89         0.54877

 Alpha  occ. eigenvalues --  -88.89380 -14.37629 -14.33187 -10.24726 -10.24520
 Alpha  occ. eigenvalues --  -10.23708 -10.22625 -10.22587 -10.22527 -10.22030
 Alpha  occ. eigenvalues --  -10.21839 -10.21795 -10.21710 -10.21028 -10.20896
 Alpha  occ. eigenvalues --  -10.20814 -10.20250 -10.20116 -10.20023 -10.19975
 Alpha  occ. eigenvalues --  -10.19781 -10.19539 -10.19317 -10.19239  -7.95420
 Alpha  occ. eigenvalues --   -5.91931  -5.91568  -5.90908  -0.97099  -0.90367
 Alpha  occ. eigenvalues --   -0.88180  -0.86900  -0.85745  -0.82717  -0.79876
 Alpha  occ. eigenvalues --   -0.76857  -0.76731  -0.76547  -0.74311  -0.73124
 Alpha  occ. eigenvalues --   -0.69124  -0.66531  -0.63903  -0.63490  -0.62989
 Alpha  occ. eigenvalues --   -0.61786  -0.59527  -0.56352  -0.56191  -0.53841
 Alpha  occ. eigenvalues --   -0.53581  -0.49686  -0.48579  -0.48558  -0.47438
 Alpha  occ. eigenvalues --   -0.46621  -0.45932  -0.45466  -0.44220  -0.44026
 Alpha  occ. eigenvalues --   -0.43855  -0.43206  -0.42598  -0.42388  -0.41072
 Alpha  occ. eigenvalues --   -0.40139  -0.38844  -0.38028  -0.37676  -0.37348
 Alpha  occ. eigenvalues --   -0.36548  -0.36183  -0.35843  -0.35290  -0.34381
 Alpha  occ. eigenvalues --   -0.33819  -0.33523  -0.32837  -0.32635  -0.29983
 Alpha  occ. eigenvalues --   -0.27307  -0.26344  -0.26250  -0.25214  -0.23084
 Alpha  occ. eigenvalues --   -0.18884
 Alpha virt. eigenvalues --   -0.04918  -0.02407  -0.02241  -0.01079  -0.00707
 Alpha virt. eigenvalues --    0.01520   0.03232   0.03995   0.06660   0.07163
 Alpha virt. eigenvalues --    0.07533   0.08303   0.09717   0.10400   0.11320

 Mulliken charges:
               1
     1  C   -0.450465
     2  C   -0.256325
     3  C    0.193605
     4  C   -0.182244
     5  C   -0.136805
     6  C    0.125663
     7  C    0.236562
     8  N   -0.479236
     9  C   -0.133115
    10  C   -0.198437
    11  C    0.160712
    12  C   -0.169093
    13  C   -0.176706
    14  C   -0.125960
    15  C    0.343030
    16  C   -0.254489
    17  N   -0.740764
    18  C    0.330682
    19  C   -0.178171
    20  C   -0.139285
    21  C   -0.120468
    22  C   -0.178409
    23  C   -0.122107
    24  S    0.176778
    25  H    0.152741
    26  H    0.156822
    27  H    0.156896
    28  H    0.147934
    29  H    0.148765
    30  H    0.159302
    31  H    0.158181
    32  H    0.137994
    33  H    0.129041
    34  H    0.147216
    35  H    0.121044
    36  H    0.323566
    37  H    0.123528
    38  H    0.133860
    39  H    0.132478
    40  H    0.145684
 Sum of Mulliken charges =  -0.00000

 Dipole moment (field-independent basis, Debye):
    X=              3.6779    Y=              0.5756    Z=             -4.9991  Tot=              6.2329
 Quadrupole moment (field-independent basis, Debye-Ang):
   XX=           -175.1326   YY=           -139.4384   ZZ=           -153.5345
   XY=            -16.6589   XZ=             18.5344   YZ=              8.8278

 Normal termination of Gaussian 16 at Sat Nov  5 10:03:27 2022.
