 Gaussian 16, Revision B.01,
 Gaussian 16:  ES64L-G16RevB.01 20-Dec-2017

 -------------------------------------------------------------------
 #p b3lyp/6-31g(d) 6D 10F nosymm GFInput td=(50-50,nstate=2) SCF=XQC
 -------------------------------------------------------------------

 ------------------------------
 Gaussian input prepared by ASE
 ------------------------------
 Symbolic Z-matrix:
 Charge =  0 Multiplicity = 1

                          Input orientation:
 ---------------------------------------------------------------------
 Center     Atomic      Atomic             Coordinates (Angstroms)
 Number     Number       Type             X           Y           Z
 ---------------------------------------------------------------------
      1          6           0        0.998582    5.411601   -0.556979
      2          6           0       -0.424309    5.485313   -0.569442
      3          6           0       -1.181180    4.348358   -0.451330
      4          6           0       -0.558905    3.071023   -0.308770
      5          6           0       -1.304656    1.887359   -0.201321
      6          6           0       -0.687216    0.642566   -0.056124
      7          6           0       -1.397409   -0.615732    0.000764
      8          6           0       -2.863998   -0.747112    0.077123
      9          6           0       -3.583430   -1.769987   -0.474475
     10          6           0       -4.982438   -1.734129   -0.165777
     11          6           0       -6.006634   -2.611397   -0.573397
     12          6           0       -7.307800   -2.389529   -0.147597
     13          6           0       -7.616510   -1.297008    0.685011
     14          6           0       -6.626039   -0.413832    1.100965
     15          6           0       -5.314326   -0.640605    0.672839
     16         16           0       -3.895621    0.318877    1.052444
     17          7           0       -0.769372   -1.779319   -0.050965
     18          7           0        0.582135   -1.849316   -0.039139
     19          6           0        1.325989   -0.756772    0.024571
     20          6           0        2.769631   -1.038767    0.126281
     21          6           0        3.389161   -2.130886   -0.413689
     22          6           0        4.778826   -2.239283   -0.080688
     23          6           0        5.713974   -3.217909   -0.471224
     24          6           0        7.023488   -3.131088   -0.022674
     25          6           0        7.428755   -2.075492    0.816145
     26          6           0        6.527614   -1.094457    1.215600
     27          6           0        5.207144   -1.185070    0.764538
     28         16           0        3.888636   -0.083961    1.120250
     29          6           0        0.750671    0.568087   -0.043551
     30          6           0        1.495882    1.742276   -0.176800
     31          6           0        0.878426    2.996564   -0.296182
     32          6           0        1.631748    4.202635   -0.426692
     33          1           0        1.580403    6.324049   -0.652913
     34          1           0       -0.906974    6.452907   -0.674698
     35          1           0       -2.266867    4.400492   -0.461629
     36          1           0       -2.384671    1.952810   -0.262166
     37          1           0       -3.111753   -2.537205   -1.076687
     38          1           0       -5.769497   -3.455799   -1.215052
     39          1           0       -8.099676   -3.065176   -0.458439
     40          1           0       -8.641948   -1.140220    1.007847
     41          1           0       -6.866537    0.428223    1.743498
     42          1           0        2.851384   -2.845881   -1.024703
     43          1           0        5.402169   -4.033923   -1.117653
     44          1           0        7.746710   -3.885113   -0.320307
     45          1           0        8.459131   -2.025045    1.156892
     46          1           0        6.842506   -0.281119    1.862956
     47          1           0        2.577780    1.695699   -0.218686
     48          1           0        2.717024    4.142302   -0.417979
 ---------------------------------------------------------------------

 SCF Done:  E(RB3LYP) =  -1982.49412772     A.U. after   16 cycles

 Excitation energies and oscillator strengths:

 Excited state symmetry could not be determined.
 Excited State   1:      Triplet-?Sym    1.7015 eV  728.67 nm  f=0.0000  <S**2>=2.000
     111 ->116        -0.11017
     113 ->116         0.23737
     113 ->117         0.10993
     115 ->116         0.62857
 This state for optimization and/or second-order correction.
 Total Energy, E(TD-HF/TD-DFT) =  -1982.43159830
 Copying the excited state density for this state as the 1-particle RhoCI density.

 Excited state symmetry could not be determined.
 Excited State   2:      Triplet-?Sym    2.3943 eV  517.83 nm  f=0.0000  <S**2>=2.000
     111 ->116        -0.29894
     113 ->116         0.45674
     114 ->119         0.13130
     115 ->116        -0.21717
     115 ->117         0.30182

 Excited state symmetry could not be determined.
 Excited State   3:      Singlet-?Sym    2.6325 eV  470.98 nm  f=0.2478  <S**2>=0.000
     112 ->116        -0.34068
     115 ->116         0.60935

 Excited state symmetry could not be determined.
 Excited State   4:      Singlet-?Sym    2.8422 eV  436.23 nm  f=0.1923  <S**2>=0.000
     111 ->116        -0.12972
     112 ->116         0.58098
     113 ->116        -0.12651
     115 ->116         0.34918

 Alpha  occ. eigenvalues --  -88.90744 -88.90744 -14.35474 -14.35452 -10.24660
 Alpha  occ. eigenvalues --  -10.24659 -10.22859 -10.22859 -10.22462 -10.22462
 Alpha  occ. eigenvalues --  -10.22187 -10.22147 -10.21692 -10.21652 -10.20927
 Alpha  occ. eigenvalues --  -10.20927 -10.20771 -10.20730 -10.20612 -10.20610
 Alpha  occ. eigenvalues --  -10.20196 -10.20196 -10.20080 -10.20080 -10.19606
 Alpha  occ. eigenvalues --  -10.19605 -10.19595 -10.19595 -10.19538 -10.19537
 Alpha  occ. eigenvalues --  -10.19271 -10.19271  -7.96825  -7.96825  -5.93266
 Alpha  occ. eigenvalues --   -5.93266  -5.92906  -5.92905  -5.92451  -5.92451
 Alpha  occ. eigenvalues --   -1.00444  -0.89639  -0.89346  -0.88974  -0.85657
 Alpha  occ. eigenvalues --   -0.84534  -0.82877  -0.81549  -0.79046  -0.77630
 Alpha  occ. eigenvalues --   -0.77041  -0.76971  -0.73960  -0.73917  -0.72244
 Alpha  occ. eigenvalues --   -0.71330  -0.70798  -0.67895  -0.65123  -0.64372
 Alpha  occ. eigenvalues --   -0.61531  -0.61436  -0.59842  -0.58629  -0.58592
 Alpha  occ. eigenvalues --   -0.57919  -0.55871  -0.54865  -0.53720  -0.51933
 Alpha  occ. eigenvalues --   -0.50265  -0.50091  -0.49336  -0.48651  -0.47040
 Alpha  occ. eigenvalues --   -0.46764  -0.46756  -0.45671  -0.44490  -0.44114
 Alpha  occ. eigenvalues --   -0.43792  -0.43436  -0.43250  -0.42764  -0.42344
 Alpha  occ. eigenvalues --   -0.42244  -0.40907  -0.40108  -0.40092  -0.39664
 Alpha  occ. eigenvalues --   -0.39298  -0.38198  -0.37019  -0.36643  -0.36416
 Alpha  occ. eigenvalues --   -0.35597  -0.35554  -0.35031  -0.34329  -0.33931
 Alpha  occ. eigenvalues --   -0.33578  -0.33216  -0.32878  -0.31208  -0.30304
 Alpha  occ. eigenvalues --   -0.28907  -0.28389  -0.27980  -0.26713  -0.23834
 Alpha  occ. eigenvalues --   -0.23533  -0.22823  -0.22399  -0.21994  -0.20374
 Alpha virt. eigenvalues --   -0.09054  -0.04528  -0.04304  -0.02838  -0.00429
 Alpha virt. eigenvalues --   -0.00356   0.00092   0.01782   0.02051   0.02760
 Alpha virt. eigenvalues --    0.03537   0.05497   0.06247   0.08599   0.08863

 Mulliken charges:
               1
     1  C   -0.135640
     2  C   -0.135646
     3  C   -0.183473
     4  C    0.150718
     5  C   -0.304367
     6  C    0.115669
     7  C    0.238681
     8  C   -0.193629
     9  C   -0.132107
    10  C    0.146580
    11  C   -0.171155
    12  C   -0.144575
    13  C   -0.119160
    14  C   -0.179509
    15  C   -0.130442
    16  S    0.227673
    17  N   -0.350840
    18  N   -0.350856
    19  C    0.238673
    20  C   -0.193622
    21  C   -0.132112
    22  C    0.146547
    23  C   -0.171128
    24  C   -0.144574
    25  C   -0.119173
    26  C   -0.179510
    27  C   -0.130428
    28  S    0.227686
    29  C    0.115668
    30  C   -0.304367
    31  C    0.150705
    32  C   -0.183469
    33  H    0.140299
    34  H    0.140300
    35  H    0.143137
    36  H    0.167560
    37  H    0.167548
    38  H    0.137799
    39  H    0.133422
    40  H    0.133706
    41  H    0.142115
    42  H    0.167547
    43  H    0.137798
    44  H    0.133423
    45  H    0.133709
    46  H    0.142115
    47  H    0.167565
    48  H    0.143137
 Sum of Mulliken charges =  -0.00000

 Dipole moment (field-independent basis, Debye):
    X=              0.1923    Y=              3.5189    Z=             -1.1185  Tot=              3.6974
 Quadrupole moment (field-independent basis, Debye-Ang):
   XX=           -158.7367   YY=           -177.0474   ZZ=           -197.7122
   XY=             -1.0022   XZ=              0.6501   YZ=              5.9863

 Normal termination of Gaussian 16 at Sat Nov  5 09:55:08 2022.
