 Gaussian 16, Revision B.01,
 Gaussian 16:  ES64L-G16RevB.01 20-Dec-2017

 -----------------------------
 #p b3lyp/6-31g(d) opt SCF=XQC
 -----------------------------

 ------------------------------
 Gaussian input prepared by ASE
 ------------------------------
 Symbolic Z-matrix:
 Charge =  0 Multiplicity = 1

 SCF Done:  E(RB3LYP) =  -1317.55905598     A.U. after   16 cycles
 SCF Done:  E(RB3LYP) =  -1317.56446510     A.U. after   13 cycles
 SCF Done:  E(RB3LYP) =  -1317.56497272     A.U. after   12 cycles
 SCF Done:  E(RB3LYP) =  -1317.56556399     A.U. after   13 cycles
 SCF Done:  E(RB3LYP) =  -1317.56579903     A.U. after   12 cycles
 SCF Done:  E(RB3LYP) =  -1317.56581438     A.U. after   13 cycles
 SCF Done:  E(RB3LYP) =  -1317.56594797     A.U. after   12 cycles
 SCF Done:  E(RB3LYP) =  -1317.56597154     A.U. after   11 cycles
 SCF Done:  E(RB3LYP) =  -1317.56597169     A.U. after    8 cycles
 SCF Done:  E(RB3LYP) =  -1317.56597180     A.U. after    8 cycles
 Optimization completed.
    -- Stationary point found.

                         Standard orientation:
 ---------------------------------------------------------------------
 Center     Atomic      Atomic             Coordinates (Angstroms)
 Number     Number       Type             X           Y           Z
 ---------------------------------------------------------------------
      1          6           0       -1.929093    2.901189    0.517545
      2          6           0       -1.998408    1.465714    1.075773
      3          6           0       -3.199380    0.732395    0.478590
      4          6           0       -3.136928    0.140856   -0.791956
      5          6           0       -4.248984   -0.478842   -1.350434
      6          6           0       -5.460053   -0.522747   -0.638539
      7          6           0       -6.609870   -1.162590   -1.207498
      8          7           0       -7.544006   -1.680075   -1.669568
      9          6           0       -5.534299    0.061261    0.635751
     10          6           0       -4.411924    0.679028    1.179462
     11          6           0       -0.704836    0.665667    0.927727
     12          6           0       -0.525466   -0.484587    1.708331
     13          6           0        0.635802   -1.245549    1.596592
     14          6           0        1.631687   -0.895104    0.683529
     15          6           0        1.477611    0.263345   -0.093850
     16          6           0        0.314930    1.034946    0.045633
     17          7           0        2.474284    0.643032   -1.005819
     18          6           0        3.839189    0.402276   -0.772750
     19          6           0        4.809351    1.294141   -1.245406
     20          6           0        6.165309    1.042593   -1.038031
     21          6           0        6.568611   -0.085587   -0.324589
     22          6           0        5.605435   -0.967454    0.170367
     23          6           0        4.249165   -0.743160   -0.067900
     24         16           0        3.040179   -1.961443    0.429266
     25          1           0       -1.816004    2.907001   -0.572148
     26          1           0       -2.853706    3.438570    0.750761
     27          1           0       -1.090769    3.453092    0.956637
     28          1           0       -2.189545    1.553529    2.153647
     29          1           0       -2.201359    0.153751   -1.343600
     30          1           0       -4.188457   -0.935390   -2.333276
     31          1           0       -6.466404    0.024168    1.190595
     32          1           0       -4.479136    1.128101    2.167584
     33          1           0       -1.299356   -0.787703    2.408666
     34          1           0        0.769006   -2.129797    2.213565
     35          1           0        0.222439    1.938368   -0.551434
     36          1           0        2.286106    1.514028   -1.485817
     37          1           0        4.495038    2.185635   -1.784546
     38          1           0        6.902799    1.739780   -1.425365
     39          1           0        7.622278   -0.280752   -0.149669
     40          1           0        5.905162   -1.846734    0.733750
 ---------------------------------------------------------------------

 The electronic state is 1-A.
 Alpha  occ. eigenvalues --  -88.89380 -14.37629 -14.33187 -10.24726 -10.24520
 Alpha  occ. eigenvalues --  -10.23708 -10.22625 -10.22587 -10.22527 -10.22030
 Alpha  occ. eigenvalues --  -10.21839 -10.21795 -10.21710 -10.21028 -10.20896
 Alpha  occ. eigenvalues --  -10.20815 -10.20250 -10.20116 -10.20023 -10.19975
 Alpha  occ. eigenvalues --  -10.19781 -10.19539 -10.19317 -10.19239  -7.95420
 Alpha  occ. eigenvalues --   -5.91931  -5.91568  -5.90908  -0.97099  -0.90367
 Alpha  occ. eigenvalues --   -0.88180  -0.86900  -0.85745  -0.82717  -0.79877
 Alpha  occ. eigenvalues --   -0.76857  -0.76731  -0.76547  -0.74311  -0.73124
 Alpha  occ. eigenvalues --   -0.69124  -0.66531  -0.63903  -0.63490  -0.62989
 Alpha  occ. eigenvalues --   -0.61787  -0.59527  -0.56352  -0.56191  -0.53841
 Alpha  occ. eigenvalues --   -0.53582  -0.49686  -0.48579  -0.48558  -0.47438
 Alpha  occ. eigenvalues --   -0.46621  -0.45932  -0.45466  -0.44220  -0.44026
 Alpha  occ. eigenvalues --   -0.43855  -0.43206  -0.42598  -0.42388  -0.41072
 Alpha  occ. eigenvalues --   -0.40139  -0.38844  -0.38028  -0.37676  -0.37348
 Alpha  occ. eigenvalues --   -0.36548  -0.36183  -0.35843  -0.35290  -0.34381
 Alpha  occ. eigenvalues --   -0.33819  -0.33523  -0.32837  -0.32635  -0.29983
 Alpha  occ. eigenvalues --   -0.27307  -0.26344  -0.26250  -0.25214  -0.23084
 Alpha  occ. eigenvalues --   -0.18884
 Alpha virt. eigenvalues --   -0.04918  -0.02407  -0.02241  -0.01079  -0.00707
 Alpha virt. eigenvalues --    0.01520   0.03232   0.03995   0.06660   0.07163
 Alpha virt. eigenvalues --    0.07533   0.08303   0.09717   0.10400   0.11320

 Mulliken charges:
               1
     1  C   -0.450443
     2  C   -0.256339
     3  C    0.193576
     4  C   -0.182237
     5  C   -0.136773
     6  C    0.125612
     7  C    0.236556
     8  N   -0.479232
     9  C   -0.133084
    10  C   -0.198429
    11  C    0.160696
    12  C   -0.169071
    13  C   -0.176713
    14  C   -0.125954
    15  C    0.342995
    16  C   -0.254463
    17  N   -0.740752
    18  C    0.330693
    19  C   -0.178182
    20  C   -0.139282
    21  C   -0.120464
    22  C   -0.178412
    23  C   -0.122112
    24  S    0.176777
    25  H    0.152737
    26  H    0.156819
    27  H    0.156893
    28  H    0.147934
    29  H    0.148764
    30  H    0.159301
    31  H    0.158180
    32  H    0.137992
    33  H    0.129042
    34  H    0.147216
    35  H    0.121044
    36  H    0.323566
    37  H    0.123528
    38  H    0.133860
    39  H    0.132477
    40  H    0.145684
 Sum of Mulliken charges =  -0.00000

 Dipole moment (field-independent basis, Debye):
    X=              4.0818    Y=              4.4305    Z=              1.5993  Tot=              6.2329
 Quadrupole moment (field-independent basis, Debye-Ang):
   XX=           -178.3383   YY=           -143.7030   ZZ=           -143.0367
   XY=            -11.0475   XZ=            -20.4291   YZ=             -7.9757

 Normal termination of Gaussian 16 at Fri Nov  4 23:17:24 2022.
