 Gaussian 16, Revision B.01,
 Gaussian 16:  ES64L-G16RevB.01 20-Dec-2017

 -------------------------------------------------------------------
 #p b3lyp/6-31g(d) 6D 10F nosymm GFInput td=(50-50,nstate=2) SCF=XQC
 -------------------------------------------------------------------

 ------------------------------
 Gaussian input prepared by ASE
 ------------------------------
 Symbolic Z-matrix:
 Charge =  0 Multiplicity = 1

                          Input orientation:
 ---------------------------------------------------------------------
 Center     Atomic      Atomic             Coordinates (Angstroms)
 Number     Number       Type             X           Y           Z
 ---------------------------------------------------------------------
      1          6           0        2.334288   -2.058485   -0.647533
      2          6           0        2.121594   -1.316683    0.678410
      3          6           0        1.839277   -2.340225    1.803825
      4          6           0        0.994225   -0.291749    0.638563
      5          6           0       -0.274393   -0.363779    0.084392
      6          6           0       -1.174015    0.711521    0.220045
      7          6           0       -2.571248    0.627811   -0.355671
      8          6           0       -3.587675   -0.037612    0.609789
      9          6           0       -4.982553   -0.119641    0.028955
     10          6           0       -5.378379   -1.222787   -0.740019
     11          6           0       -6.650405   -1.283111   -1.310563
     12          6           0       -7.553602   -0.235602   -1.120853
     13          6           0       -7.174235    0.869123   -0.356257
     14          6           0       -5.900728    0.923607    0.211668
     15          6           0       -0.753490    1.842581    0.930953
     16          6           0        0.520673    1.931609    1.503197
     17          6           0        1.390032    0.852410    1.348709
     18          7           0        2.690341    0.697946    1.843519
     19          6           0        3.349147   -0.411886    1.124158
     20          6           0        4.273776    0.062341    0.010271
     21          6           0        3.934921    1.126928   -0.839362
     22          6           0        4.803519    1.533397   -1.852676
     23          6           0        6.028682    0.887573   -2.033517
     24          6           0        6.379973   -0.167532   -1.191006
     25          6           0        5.508951   -0.571494   -0.177902
     26          1           0        2.488295   -1.368851   -1.481701
     27          1           0        3.203166   -2.724734   -0.592671
     28          1           0        1.458975   -2.678199   -0.874994
     29          1           0        1.729011   -1.839124    2.771125
     30          1           0        0.914651   -2.891511    1.599384
     31          1           0        2.658371   -3.066690    1.882557
     32          1           0       -0.579988   -1.247653   -0.473488
     33          1           0       -2.935581    1.631679   -0.607968
     34          1           0       -2.559360    0.059387   -1.294718
     35          1           0       -3.225682   -1.042319    0.861798
     36          1           0       -3.602977    0.531804    1.547429
     37          1           0       -4.682225   -2.046138   -0.887937
     38          1           0       -6.937817   -2.150633   -1.899376
     39          1           0       -8.546098   -0.281897   -1.561263
     40          1           0       -7.871986    1.687550   -0.197467
     41          1           0       -5.614698    1.785667    0.811160
     42          1           0       -1.434943    2.684676    1.035169
     43          1           0        0.823123    2.824516    2.044564
     44          1           0        3.245656    1.540411    1.942373
     45          1           0        3.959272   -0.985514    1.832105
     46          1           0        2.984817    1.637663   -0.711573
     47          1           0        4.522376    2.358360   -2.502281
     48          1           0        6.705448    1.208468   -2.820902
     49          1           0        7.335062   -0.671384   -1.315346
     50          1           0        5.794460   -1.387599    0.482928
 ---------------------------------------------------------------------

 SCF Done:  E(RB3LYP) =  -984.379334720     A.U. after   14 cycles

 Excitation energies and oscillator strengths:

 Excited state symmetry could not be determined.
 Excited State   1:      Triplet-?Sym    3.4592 eV  358.42 nm  f=0.0000  <S**2>=2.000
      86 -> 90        -0.10751
      86 -> 93        -0.24985
      88 -> 89         0.33680
      88 -> 90        -0.12732
      88 -> 91         0.15978
      88 -> 93         0.11657
      88 -> 94         0.46252
 This state for optimization and/or second-order correction.
 Total Energy, E(TD-HF/TD-DFT) =  -984.252212796
 Copying the excited state density for this state as the 1-particle RhoCI density.

 Excited state symmetry could not be determined.
 Excited State   2:      Triplet-?Sym    3.6626 eV  338.51 nm  f=0.0000  <S**2>=2.000
      83 -> 90        -0.14290
      84 -> 89         0.16322
      88 -> 89         0.22777
      88 -> 90         0.31646
      88 -> 91        -0.15520
      88 -> 93         0.46218
      88 -> 94        -0.15501

 Excited state symmetry could not be determined.
 Excited State   3:      Singlet-?Sym    4.1892 eV  295.96 nm  f=0.0138  <S**2>=0.000
      88 -> 89         0.70052

 Excited state symmetry could not be determined.
 Excited State   4:      Singlet-?Sym    4.3264 eV  286.57 nm  f=0.0696  <S**2>=0.000
      88 -> 90         0.69698

 Alpha  occ. eigenvalues --  -14.33723 -10.22352 -10.21140 -10.20462 -10.19520
 Alpha  occ. eigenvalues --  -10.19166 -10.19122 -10.19038 -10.19015 -10.18856
 Alpha  occ. eigenvalues --  -10.18808 -10.18358 -10.18347 -10.18206 -10.18164
 Alpha  occ. eigenvalues --  -10.18109 -10.18101 -10.18100 -10.17950 -10.17917
 Alpha  occ. eigenvalues --  -10.17819 -10.17777 -10.17573 -10.17298 -10.17222
 Alpha  occ. eigenvalues --   -0.94262  -0.85383  -0.84825  -0.83555  -0.80525
 Alpha  occ. eigenvalues --   -0.78409  -0.75893  -0.74416  -0.73843  -0.73590
 Alpha  occ. eigenvalues --   -0.72460  -0.69475  -0.68279  -0.66780  -0.63379
 Alpha  occ. eigenvalues --   -0.61593  -0.60392  -0.59727  -0.58303  -0.57290
 Alpha  occ. eigenvalues --   -0.56570  -0.54064  -0.51713  -0.50886  -0.50364
 Alpha  occ. eigenvalues --   -0.47618  -0.46649  -0.46007  -0.45655  -0.44760
 Alpha  occ. eigenvalues --   -0.44312  -0.43832  -0.43202  -0.42524  -0.42338
 Alpha  occ. eigenvalues --   -0.41948  -0.41271  -0.40766  -0.40199  -0.39810
 Alpha  occ. eigenvalues --   -0.38689  -0.38278  -0.38065  -0.36695  -0.36298
 Alpha  occ. eigenvalues --   -0.36064  -0.35298  -0.34764  -0.34402  -0.34252
 Alpha  occ. eigenvalues --   -0.33717  -0.33462  -0.32754  -0.32569  -0.31910
 Alpha  occ. eigenvalues --   -0.31003  -0.28307  -0.25106  -0.24516  -0.24250
 Alpha  occ. eigenvalues --   -0.23592  -0.23436  -0.18616
 Alpha virt. eigenvalues --   -0.00727  -0.00424   0.00518   0.00636   0.00826
 Alpha virt. eigenvalues --    0.02699   0.08613   0.09259   0.09971   0.10414
 Alpha virt. eigenvalues --    0.11162   0.12036   0.12904   0.13188   0.13958

 Mulliken charges:
               1
     1  C   -0.458436
     2  C    0.024196
     3  C   -0.443323
     4  C    0.135550
     5  C   -0.276710
     6  C    0.176668
     7  C   -0.346357
     8  C   -0.344046
     9  C    0.177279
    10  C   -0.181386
    11  C   -0.127644
    12  C   -0.132088
    13  C   -0.127677
    14  C   -0.181657
    15  C   -0.199453
    16  C   -0.195957
    17  C    0.294926
    18  N   -0.651372
    19  C   -0.083844
    20  C    0.171418
    21  C   -0.195224
    22  C   -0.130595
    23  C   -0.129009
    24  C   -0.128229
    25  C   -0.188279
    26  H    0.161608
    27  H    0.142410
    28  H    0.142151
    29  H    0.163044
    30  H    0.144744
    31  H    0.136511
    32  H    0.115352
    33  H    0.142225
    34  H    0.142583
    35  H    0.143478
    36  H    0.144993
    37  H    0.119747
    38  H    0.126202
    39  H    0.125834
    40  H    0.126301
    41  H    0.120603
    42  H    0.116553
    43  H    0.119139
    44  H    0.309711
    45  H    0.134109
    46  H    0.146061
    47  H    0.131836
    48  H    0.130140
    49  H    0.130236
    50  H    0.125680
 Sum of Mulliken charges =  -0.00000

 Dipole moment (field-independent basis, Debye):
    X=              1.6191    Y=              0.1406    Z=             -0.4658  Tot=              1.6907
 Quadrupole moment (field-independent basis, Debye-Ang):
   XX=           -136.5006   YY=           -139.1167   ZZ=           -149.6129
   XY=             -1.8661   XZ=              0.9517   YZ=              2.2424

 Normal termination of Gaussian 16 at Sat Nov  5 09:56:34 2022.
