 Gaussian 16, Revision B.01,
 Gaussian 16:  ES64L-G16RevB.01 20-Dec-2017

 -----------------------------
 #p b3lyp/6-31g(d) opt SCF=XQC
 -----------------------------

 ------------------------------
 Gaussian input prepared by ASE
 ------------------------------
 Symbolic Z-matrix:
 Charge =  0 Multiplicity = 1

 SCF Done:  E(RB3LYP) =  -984.372374436     A.U. after   14 cycles
 SCF Done:  E(RB3LYP) =  -984.378878099     A.U. after   12 cycles
 SCF Done:  E(RB3LYP) =  -984.379244605     A.U. after   11 cycles
 SCF Done:  E(RB3LYP) =  -984.379309481     A.U. after   11 cycles
 SCF Done:  E(RB3LYP) =  -984.379325401     A.U. after   10 cycles
 SCF Done:  E(RB3LYP) =  -984.379331212     A.U. after    8 cycles
 SCF Done:  E(RB3LYP) =  -984.379333040     A.U. after    8 cycles
 SCF Done:  E(RB3LYP) =  -984.379333409     A.U. after    8 cycles
 SCF Done:  E(RB3LYP) =  -984.379333572     A.U. after    7 cycles
 SCF Done:  E(RB3LYP) =  -984.379333671     A.U. after    7 cycles
 SCF Done:  E(RB3LYP) =  -984.379333758     A.U. after    7 cycles
 SCF Done:  E(RB3LYP) =  -984.379333842     A.U. after    7 cycles
 SCF Done:  E(RB3LYP) =  -984.379333896     A.U. after    7 cycles
 Optimization completed.
    -- Stationary point found.

                         Standard orientation:
 ---------------------------------------------------------------------
 Center     Atomic      Atomic             Coordinates (Angstroms)
 Number     Number       Type             X           Y           Z
 ---------------------------------------------------------------------
      1          6           0        2.296523    2.053904    0.803957
      2          6           0        2.098146    1.386970   -0.563332
      3          6           0        1.817959    2.470820   -1.631352
      4          6           0        0.976750    0.355082   -0.590092
      5          6           0       -0.296347    0.388552   -0.042560
      6          6           0       -1.188402   -0.682428   -0.245616
      7          6           0       -2.590338   -0.639239    0.323091
      8          6           0       -3.603612    0.073898   -0.611112
      9          6           0       -5.003220    0.115132   -0.037372
     10          6           0       -5.411407    1.170848    0.789537
     11          6           0       -6.687961    1.191686    1.352728
     12          6           0       -7.583361    0.151485    1.097243
     13          6           0       -7.191655   -0.906147    0.274488
     14          6           0       -5.913674   -0.921294   -0.285748
     15          6           0       -0.755777   -1.769152   -1.015937
     16          6           0        0.523100   -1.818541   -1.582429
     17          6           0        1.384732   -0.744902   -1.360582
     18          7           0        2.687705   -0.555416   -1.835825
     19          6           0        3.334428    0.515722   -1.049921
     20          6           0        4.253651   -0.015426    0.042547
     21          6           0        3.914983   -1.128183    0.828115
     22          6           0        4.778510   -1.586318    1.823564
     23          6           0        5.998362   -0.944839    2.050019
     24          6           0        6.349471    0.158120    1.271121
     25          6           0        5.483533    0.613726    0.275723
     26          1           0        2.448534    1.319148    1.599051
     27          1           0        3.161725    2.727077    0.793490
     28          1           0        1.415808    2.654841    1.059250
     29          1           0        1.717893    2.024524   -2.626207
     30          1           0        0.888519    3.004461   -1.403284
     31          1           0        2.633192    3.205178   -1.662638
     32          1           0       -0.611415    1.237777    0.561924
     33          1           0       -2.950431   -1.657789    0.515522
     34          1           0       -2.588844   -0.124689    1.292777
     35          1           0       -3.245865    1.093256   -0.803227
     36          1           0       -3.608523   -0.441742   -1.579477
     37          1           0       -4.721373    1.988444    0.989050
     38          1           0       -6.984977    2.022941    1.987311
     39          1           0       -8.579350    0.167242    1.531880
     40          1           0       -7.883235   -1.718222    0.064386
     41          1           0       -5.617994   -1.746501   -0.930696
     42          1           0       -1.431320   -2.607847   -1.172764
     43          1           0        0.834958   -2.677733   -2.170960
     44          1           0        3.248835   -1.387810   -1.977761
     45          1           0        3.946283    1.131841   -1.719639
     46          1           0        2.968965   -1.636235    0.664375
     47          1           0        4.497578   -2.448218    2.423396
     48          1           0        6.671219   -1.305863    2.823250
     49          1           0        7.300540    0.659524    1.431069
     50          1           0        5.768968    1.467441   -0.335782
 ---------------------------------------------------------------------

 The electronic state is 1-A.
 Alpha  occ. eigenvalues --  -14.33723 -10.22352 -10.21140 -10.20462 -10.19520
 Alpha  occ. eigenvalues --  -10.19166 -10.19122 -10.19038 -10.19015 -10.18856
 Alpha  occ. eigenvalues --  -10.18808 -10.18358 -10.18347 -10.18206 -10.18164
 Alpha  occ. eigenvalues --  -10.18109 -10.18101 -10.18100 -10.17950 -10.17917
 Alpha  occ. eigenvalues --  -10.17819 -10.17777 -10.17573 -10.17298 -10.17222
 Alpha  occ. eigenvalues --   -0.94262  -0.85383  -0.84825  -0.83555  -0.80525
 Alpha  occ. eigenvalues --   -0.78409  -0.75893  -0.74416  -0.73843  -0.73590
 Alpha  occ. eigenvalues --   -0.72460  -0.69475  -0.68279  -0.66780  -0.63379
 Alpha  occ. eigenvalues --   -0.61593  -0.60392  -0.59727  -0.58303  -0.57290
 Alpha  occ. eigenvalues --   -0.56570  -0.54064  -0.51713  -0.50886  -0.50364
 Alpha  occ. eigenvalues --   -0.47618  -0.46649  -0.46007  -0.45655  -0.44760
 Alpha  occ. eigenvalues --   -0.44312  -0.43832  -0.43202  -0.42524  -0.42338
 Alpha  occ. eigenvalues --   -0.41948  -0.41271  -0.40766  -0.40199  -0.39810
 Alpha  occ. eigenvalues --   -0.38689  -0.38278  -0.38065  -0.36695  -0.36298
 Alpha  occ. eigenvalues --   -0.36064  -0.35298  -0.34764  -0.34402  -0.34252
 Alpha  occ. eigenvalues --   -0.33717  -0.33462  -0.32754  -0.32569  -0.31910
 Alpha  occ. eigenvalues --   -0.31003  -0.28307  -0.25106  -0.24516  -0.24250
 Alpha  occ. eigenvalues --   -0.23592  -0.23436  -0.18616
 Alpha virt. eigenvalues --   -0.00727  -0.00424   0.00518   0.00636   0.00826
 Alpha virt. eigenvalues --    0.02699   0.08613   0.09259   0.09971   0.10414
 Alpha virt. eigenvalues --    0.11162   0.12036   0.12904   0.13188   0.13958

 Mulliken charges:
               1
     1  C   -0.458441
     2  C    0.024220
     3  C   -0.443325
     4  C    0.135520
     5  C   -0.276691
     6  C    0.176658
     7  C   -0.346359
     8  C   -0.344048
     9  C    0.177272
    10  C   -0.181384
    11  C   -0.127642
    12  C   -0.132089
    13  C   -0.127679
    14  C   -0.181649
    15  C   -0.199446
    16  C   -0.195959
    17  C    0.294932
    18  N   -0.651378
    19  C   -0.083830
    20  C    0.171417
    21  C   -0.195227
    22  C   -0.130599
    23  C   -0.128999
    24  C   -0.128233
    25  C   -0.188284
    26  H    0.161607
    27  H    0.142410
    28  H    0.142151
    29  H    0.163043
    30  H    0.144743
    31  H    0.136510
    32  H    0.115350
    33  H    0.142225
    34  H    0.142584
    35  H    0.143479
    36  H    0.144994
    37  H    0.119745
    38  H    0.126202
    39  H    0.125835
    40  H    0.126301
    41  H    0.120602
    42  H    0.116551
    43  H    0.119138
    44  H    0.309712
    45  H    0.134108
    46  H    0.146061
    47  H    0.131836
    48  H    0.130139
    49  H    0.130237
    50  H    0.125681
 Sum of Mulliken charges =  -0.00000

 Dipole moment (field-independent basis, Debye):
    X=              1.6164    Y=             -0.1575    Z=              0.4696  Tot=              1.6906
 Quadrupole moment (field-independent basis, Debye-Ang):
   XX=           -136.5756   YY=           -139.3884   ZZ=           -149.3172
   XY=              1.9502   XZ=             -0.7336   YZ=              2.8366

 1\1\GINC-NODE93\FOpt\RB3LYP\6-31G(d)\C24H25N1\WYKGROUP\04-Nov-2022\0\\
 #p b3lyp/6-31g(d) opt SCF=XQC\\Gaussian input prepared by ASE\\0,1\C,2
 .3342881468,-2.0584848552,-0.6475332767\C,2.1215939177,-1.3166831226,0
 .6784096765\C,1.839277213,-2.3402254023,1.8038249295\C,0.9942250481,-0
 .2917491345,0.6385631041\C,-0.274393286,-0.3637794235,0.0843917127\C,-
 1.1740151792,0.7115212991,0.2200453862\C,-2.5712484404,0.6278107086,-0
 .35567119\C,-3.5876749525,-0.0376122254,0.6097886487\C,-4.9825531343,-
 0.1196406246,0.0289545392\C,-5.3783787506,-1.2227868464,-0.7400193009\

 Normal termination of Gaussian 16 at Fri Nov  4 10:22:13 2022.
