 Gaussian 16, Revision B.01,
 Gaussian 16:  ES64L-G16RevB.01 20-Dec-2017

 -------------------------------------------------------------------
 #p b3lyp/6-31g(d) 6D 10F nosymm GFInput td=(50-50,nstate=2) SCF=XQC
 -------------------------------------------------------------------

 ------------------------------
 Gaussian input prepared by ASE
 ------------------------------
 Symbolic Z-matrix:
 Charge =  0 Multiplicity = 1

                          Input orientation:
 ---------------------------------------------------------------------
 Center     Atomic      Atomic             Coordinates (Angstroms)
 Number     Number       Type             X           Y           Z
 ---------------------------------------------------------------------
      1          6           0       11.564879    1.330450   -0.846701
      2          6           0       10.668746    1.975043   -0.084379
      3          6           0        9.273903    1.617590    0.169019
      4         16           0        8.541438    2.405507    1.581899
      5          6           0        7.056113    1.508641    1.378599
      6          6           0        5.900034    1.578569    2.161009
      7          6           0        4.817413    0.778752    1.822119
      8          6           0        4.855544   -0.088952    0.703904
      9          6           0        3.675946   -0.923702    0.358244
     10          6           0        3.843696   -2.242263   -0.120753
     11          6           0        2.757461   -3.041434   -0.456933
     12          6           0        1.469336   -2.521810   -0.312098
     13         16           0       -0.041854   -3.355389   -0.682449
     14          6           0       -0.969324   -1.932530   -0.195680
     15          6           0       -2.368682   -1.805283   -0.187413
     16          7           0       -3.213600   -2.871304   -0.608518
     17          6           0       -4.326123   -3.224235    0.206867
     18          6           0       -4.154551   -3.374432    1.592539
     19          6           0       -5.238821   -3.698641    2.404514
     20          6           0       -6.506518   -3.896693    1.851623
     21          6           0       -6.677592   -3.757915    0.473102
     22          6           0       -5.602128   -3.415688   -0.345791
     23          6           0       -3.099098   -3.378706   -1.932566
     24          6           0       -2.720144   -2.542682   -2.993667
     25          6           0       -2.588426   -3.058476   -4.282608
     26          6           0       -2.849538   -4.404551   -4.539708
     27          6           0       -3.233747   -5.237669   -3.485564
     28          6           0       -3.349078   -4.737114   -2.191495
     29          6           0       -2.919256   -0.609178    0.281747
     30          6           0       -2.115347    0.456551    0.729775
     31          7           0       -2.740282    1.650859    1.171955
     32          6           0       -3.906616    2.110764    0.461332
     33          6           0       -5.090228    2.239801    1.081540
     34          6           0       -5.415428    1.891482    2.507483
     35          6           0       -6.728490    1.101271    2.630526
     36          6           0       -3.651260    2.460246   -0.993758
     37          6           0       -4.869456    2.854644   -1.835398
     38          6           0       -4.500115    3.137455   -3.295666
     39          6           0       -2.198238    2.428116    2.224973
     40          6           0       -1.525734    1.822511    3.302819
     41          6           0       -1.004689    2.596257    4.337473
     42          6           0       -1.152375    3.984744    4.337390
     43          6           0       -1.832232    4.589017    3.278762
     44          6           0       -2.345169    3.826429    2.231203
     45          6           0       -0.721968    0.326766    0.687528
     46          6           0       -0.148515   -0.867320    0.239239
     47          6           0        1.265832   -1.209547    0.166017
     48          6           0        2.376563   -0.423225    0.496595
     49          6           0        6.017408   -0.138516   -0.069533
     50          6           0        7.134715    0.648459    0.259587
     51          6           0        8.406443    0.730594   -0.434254
     52          6           0        8.655537   -0.109553   -1.623911
     53          6           0        8.966187    0.297886   -2.864253
     54          6           0        9.178836    1.707584   -3.325560
     55          1           0       12.583048    1.700483   -0.921704
     56          1           0       11.322636    0.429553   -1.398550
     57          1           0       11.007649    2.862071    0.450760
     58          1           0        5.849563    2.235809    3.024308
     59          1           0        3.926920    0.802705    2.443144
     60          1           0        4.846611   -2.650388   -0.204375
     61          1           0        2.912179   -4.054822   -0.815997
     62          1           0       -3.168115   -3.235448    2.023815
     63          1           0       -5.087197   -3.810939    3.474911
     64          1           0       -7.348376   -4.157609    2.486554
     65          1           0       -7.658866   -3.901948    0.028253
     66          1           0       -5.746459   -3.295033   -1.414465
     67          1           0       -2.527937   -1.491520   -2.803783
     68          1           0       -2.289905   -2.396487   -5.091326
     69          1           0       -2.751672   -4.801414   -5.546107
     70          1           0       -3.430873   -6.291023   -3.667286
     71          1           0       -3.629982   -5.392440   -1.373200
     72          1           0       -3.998170   -0.505144    0.309249
     73          1           0       -5.914343    2.654675    0.503888
     74          1           0       -5.499701    2.818063    3.096424
     75          1           0       -4.593893    1.322838    2.953582
     76          1           0       -6.967462    0.905228    3.681772
     77          1           0       -6.660693    0.136768    2.114768
     78          1           0       -7.569402    1.654968    2.194896
     79          1           0       -2.908385    3.273129   -1.022821
     80          1           0       -3.151984    1.605622   -1.471629
     81          1           0       -5.617303    2.051670   -1.794703
     82          1           0       -5.347270    3.744377   -1.404178
     83          1           0       -3.773661    3.955780   -3.371248
     84          1           0       -4.054676    2.254906   -3.770663
     85          1           0       -5.382654    3.420594   -3.880079
     86          1           0       -1.419447    0.743162    3.329036
     87          1           0       -0.491918    2.102554    5.159245
     88          1           0       -0.749530    4.583444    5.149127
     89          1           0       -1.958934    5.668558    3.257749
     90          1           0       -2.869345    4.313051    1.415499
     91          1           0       -0.092300    1.147457    1.012991
     92          1           0        2.229177    0.597172    0.839039
     93          1           0        6.050186   -0.763587   -0.956772
     94          1           0        8.495244   -1.177843   -1.469183
     95          1           0        9.083896   -0.474524   -3.624819
     96          1           0       10.244655    1.901088   -3.513728
     97          1           0        8.649147    1.890175   -4.268866
     98          1           0        8.838135    2.435088   -2.584264
 ---------------------------------------------------------------------

 SCF Done:  E(RB3LYP) =  -2837.69102544     A.U. after   16 cycles

 Excitation energies and oscillator strengths:

 Excited state symmetry could not be determined.
 Excited State   1:      Triplet-?Sym    2.3541 eV  526.67 nm  f=0.0000  <S**2>=2.000
     192 ->196        -0.34141
     193 ->196         0.58022
 This state for optimization and/or second-order correction.
 Total Energy, E(TD-HF/TD-DFT) =  -2837.60451359
 Copying the excited state density for this state as the 1-particle RhoCI density.

 Excited state symmetry could not be determined.
 Excited State   2:      Triplet-?Sym    2.8113 eV  441.03 nm  f=0.0000  <S**2>=2.000
     190 ->197         0.12331
     191 ->197         0.16952
     194 ->197        -0.25227
     195 ->197         0.48116
     195 ->199         0.28327

 Excited state symmetry could not be determined.
 Excited State   3:      Singlet-?Sym    3.2584 eV  380.51 nm  f=0.0225  <S**2>=0.000
     195 ->196         0.65405
     195 ->197        -0.25639

 Excited state symmetry could not be determined.
 Excited State   4:      Singlet-?Sym    3.3043 eV  375.22 nm  f=0.0472  <S**2>=0.000
     195 ->196         0.26046
     195 ->197         0.64334

 Alpha  occ. eigenvalues --  -88.90053 -88.89791 -14.36413 -14.35839 -10.23561
 Alpha  occ. eigenvalues --  -10.23066 -10.22837 -10.22740 -10.22735 -10.22722
 Alpha  occ. eigenvalues --  -10.22042 -10.21972 -10.21891 -10.21822 -10.20319
 Alpha  occ. eigenvalues --  -10.20291 -10.20202 -10.20018 -10.19943 -10.19909
 Alpha  occ. eigenvalues --  -10.19870 -10.19757 -10.19688 -10.19427 -10.19330
 Alpha  occ. eigenvalues --  -10.19260 -10.19153 -10.19113 -10.19067 -10.18952
 Alpha  occ. eigenvalues --  -10.18923 -10.18909 -10.18807 -10.18768 -10.18758
 Alpha  occ. eigenvalues --  -10.18655 -10.18624 -10.18615 -10.18613 -10.18592
 Alpha  occ. eigenvalues --  -10.18574 -10.18504 -10.18466 -10.18459 -10.18422
 Alpha  occ. eigenvalues --  -10.18298 -10.18196 -10.18175 -10.18170 -10.18144
 Alpha  occ. eigenvalues --  -10.17962 -10.17953 -10.17578 -10.17252  -7.96187
 Alpha  occ. eigenvalues --   -7.95819  -5.92618  -5.92282  -5.92263  -5.91922
 Alpha  occ. eigenvalues --   -5.91819  -5.91407  -0.96499  -0.95653  -0.89398
 Alpha  occ. eigenvalues --   -0.89086  -0.85552  -0.85123  -0.84336  -0.83937
 Alpha  occ. eigenvalues --   -0.83042  -0.81360  -0.80169  -0.79715  -0.78021
 Alpha  occ. eigenvalues --   -0.77798  -0.77490  -0.76432  -0.75565  -0.75224
 Alpha  occ. eigenvalues --   -0.74460  -0.74303  -0.74033  -0.73905  -0.73258
 Alpha  occ. eigenvalues --   -0.72576  -0.71651  -0.70718  -0.70215  -0.68615
 Alpha  occ. eigenvalues --   -0.67693  -0.67499  -0.64409  -0.63160  -0.62246
 Alpha  occ. eigenvalues --   -0.62139  -0.61546  -0.61047  -0.60046  -0.59939
 Alpha  occ. eigenvalues --   -0.59701  -0.59619  -0.59256  -0.58881  -0.58139
 Alpha  occ. eigenvalues --   -0.56922  -0.56425  -0.55702  -0.54127  -0.53484
 Alpha  occ. eigenvalues --   -0.53056  -0.51661  -0.50443  -0.49669  -0.49400
 Alpha  occ. eigenvalues --   -0.48817  -0.48345  -0.47903  -0.47705  -0.47561
 Alpha  occ. eigenvalues --   -0.47364  -0.47064  -0.46695  -0.46546  -0.46101
 Alpha  occ. eigenvalues --   -0.45432  -0.44925  -0.44535  -0.44300  -0.44189
 Alpha  occ. eigenvalues --   -0.43755  -0.43546  -0.43383  -0.43056  -0.42816
 Alpha  occ. eigenvalues --   -0.42618  -0.42381  -0.42269  -0.41915  -0.41840
 Alpha  occ. eigenvalues --   -0.41750  -0.41569  -0.41047  -0.40535  -0.40174
 Alpha  occ. eigenvalues --   -0.39925  -0.39378  -0.39218  -0.39026  -0.37842
 Alpha  occ. eigenvalues --   -0.37521  -0.37249  -0.37077  -0.36958  -0.36842
 Alpha  occ. eigenvalues --   -0.36635  -0.36519  -0.36378  -0.36117  -0.36023
 Alpha  occ. eigenvalues --   -0.35867  -0.35441  -0.35343  -0.35108  -0.34814
 Alpha  occ. eigenvalues --   -0.34397  -0.34209  -0.34087  -0.33987  -0.33953
 Alpha  occ. eigenvalues --   -0.33532  -0.33441  -0.33259  -0.33121  -0.32970
 Alpha  occ. eigenvalues --   -0.32742  -0.31944  -0.30715  -0.29305  -0.28738
 Alpha  occ. eigenvalues --   -0.28025  -0.27700  -0.25907  -0.25469  -0.25210
 Alpha  occ. eigenvalues --   -0.25142  -0.25018  -0.24488  -0.24373  -0.23223
 Alpha  occ. eigenvalues --   -0.22438  -0.20723  -0.20419  -0.18850  -0.17882
 Alpha virt. eigenvalues --   -0.04859  -0.03672  -0.02446  -0.01442  -0.00945
 Alpha virt. eigenvalues --   -0.00319   0.00222   0.00394   0.00578   0.00918
 Alpha virt. eigenvalues --    0.01555   0.01791   0.02480   0.03013   0.03278

 Mulliken charges:
               1
     1  C   -0.334340
     2  C   -0.095597
     3  C   -0.213139
     4  S    0.213450
     5  C   -0.143178
     6  C   -0.182411
     7  C   -0.163553
     8  C    0.082359
     9  C    0.074762
    10  C   -0.157677
    11  C   -0.193699
    12  C   -0.134755
    13  S    0.234285
    14  C   -0.203320
    15  C    0.233845
    16  N   -0.659935
    17  C    0.278839
    18  C   -0.158123
    19  C   -0.139733
    20  C   -0.128852
    21  C   -0.140993
    22  C   -0.170031
    23  C    0.280830
    24  C   -0.166765
    25  C   -0.136515
    26  C   -0.127918
    27  C   -0.139119
    28  C   -0.154438
    29  C   -0.214720
    30  C    0.292216
    31  N   -0.641178
    32  C    0.239909
    33  C   -0.144559
    34  C   -0.295013
    35  C   -0.449779
    36  C   -0.310226
    37  C   -0.258778
    38  C   -0.443709
    39  C    0.318434
    40  C   -0.176910
    41  C   -0.139484
    42  C   -0.132387
    43  C   -0.138919
    44  C   -0.178213
    45  C   -0.225843
    46  C    0.115041
    47  C    0.092677
    48  C   -0.223573
    49  C   -0.236612
    50  C    0.113138
    51  C    0.124588
    52  C   -0.212096
    53  C   -0.070638
    54  C   -0.484483
    55  H    0.144676
    56  H    0.158802
    57  H    0.138504
    58  H    0.141955
    59  H    0.135173
    60  H    0.133338
    61  H    0.142638
    62  H    0.144718
    63  H    0.131578
    64  H    0.127344
    65  H    0.130829
    66  H    0.145129
    67  H    0.141568
    68  H    0.130245
    69  H    0.126310
    70  H    0.130515
    71  H    0.144785
    72  H    0.156303
    73  H    0.126681
    74  H    0.150590
    75  H    0.158396
    76  H    0.144453
    77  H    0.158829
    78  H    0.139889
    79  H    0.146920
    80  H    0.154078
    81  H    0.141666
    82  H    0.137509
    83  H    0.143818
    84  H    0.144613
    85  H    0.144449
    86  H    0.141917
    87  H    0.127962
    88  H    0.123813
    89  H    0.127342
    90  H    0.133491
    91  H    0.149908
    92  H    0.140931
    93  H    0.136776
    94  H    0.137889
    95  H    0.127999
    96  H    0.160717
    97  H    0.153018
    98  H    0.168774
 Sum of Mulliken charges =  -0.00000

 Dipole moment (field-independent basis, Debye):
    X=             -0.6415    Y=              0.6681    Z=             -1.1581  Tot=              1.4829
 Quadrupole moment (field-independent basis, Debye-Ang):
   XX=           -301.1863   YY=           -318.7374   ZZ=           -314.8660
   XY=             -1.7424   XZ=            -10.6618   YZ=              3.7328

 Normal termination of Gaussian 16 at Sat Nov  5 10:23:49 2022.
