 Gaussian 16, Revision B.01,
 Gaussian 16:  ES64L-G16RevB.01 20-Dec-2017

 -----------------------------
 #p b3lyp/6-31g(d) opt SCF=XQC
 -----------------------------

 ------------------------------
 Gaussian input prepared by ASE
 ------------------------------
 Symbolic Z-matrix:
 Charge =  0 Multiplicity = 1

 SCF Done:  E(RB3LYP) =  -2837.66778862     A.U. after   16 cycles
 SCF Done:  E(RB3LYP) =  -2837.68330354     A.U. after   13 cycles
 SCF Done:  E(RB3LYP) =  -2837.68477726     A.U. after   12 cycles
 SCF Done:  E(RB3LYP) =  -2837.68571397     A.U. after   12 cycles
 SCF Done:  E(RB3LYP) =  -2837.68610355     A.U. after   11 cycles
 SCF Done:  E(RB3LYP) =  -2837.68636789     A.U. after   11 cycles
 SCF Done:  E(RB3LYP) =  -2837.68660436     A.U. after   11 cycles
 SCF Done:  E(RB3LYP) =  -2837.68687080     A.U. after   12 cycles
 SCF Done:  E(RB3LYP) =  -2837.68687338     A.U. after   11 cycles
 SCF Done:  E(RB3LYP) =  -2837.68685871     A.U. after   12 cycles
 SCF Done:  E(RB3LYP) =  -2837.69096090     A.U. after   11 cycles
 SCF Done:  E(RB3LYP) =  -2837.69096469     A.U. after   10 cycles
 SCF Done:  E(RB3LYP) =  -2837.69100809     A.U. after   11 cycles
 SCF Done:  E(RB3LYP) =  -2837.69101576     A.U. after   10 cycles
 SCF Done:  E(RB3LYP) =  -2837.69101720     A.U. after    9 cycles
 SCF Done:  E(RB3LYP) =  -2837.69101923     A.U. after    9 cycles
 SCF Done:  E(RB3LYP) =  -2837.69101983     A.U. after    8 cycles
 SCF Done:  E(RB3LYP) =  -2837.69101995     A.U. after    9 cycles
 SCF Done:  E(RB3LYP) =  -2837.69101999     A.U. after    7 cycles
 SCF Done:  E(RB3LYP) =  -2837.69102000     A.U. after    6 cycles
 Optimization completed.
    -- Stationary point found.

                         Standard orientation:
 ---------------------------------------------------------------------
 Center     Atomic      Atomic             Coordinates (Angstroms)
 Number     Number       Type             X           Y           Z
 ---------------------------------------------------------------------
      1          6           0      -11.270653   -0.674342    0.387183
      2          6           0      -10.477258    0.392978    0.210989
      3          6           0       -9.036621    0.417356   -0.037089
      4         16           0       -8.413062    1.945691   -0.692004
      5          6           0       -6.803770    1.283975   -0.847578
      6          6           0       -5.657450    1.924540   -1.326328
      7          6           0       -4.464538    1.215797   -1.361945
      8          6           0       -4.383398   -0.125671   -0.916244
      9          6           0       -3.089218   -0.854626   -0.954441
     10          6           0       -3.045108   -2.223799   -1.300281
     11          6           0       -1.848678   -2.930040   -1.337377
     12          6           0       -0.662701   -2.261499   -1.026312
     13         16           0        0.957509   -2.961649   -1.005863
     14          6           0        1.644888   -1.407233   -0.523191
     15          6           0        3.002963   -1.122534   -0.301737
     16          7           0        4.004227   -2.125201   -0.442259
     17          6           0        5.179224   -1.817984   -1.185304
     18          6           0        5.068247   -1.186828   -2.434869
     19          6           0        6.210508   -0.861546   -3.162528
     20          6           0        7.479951   -1.173971   -2.669707
     21          6           0        7.592520   -1.810538   -1.432388
     22          6           0        6.455756   -2.123830   -0.688114
     23          6           0        3.944855   -3.296400    0.362999
     24          6           0        3.406098   -3.253324    1.657743
     25          6           0        3.332000   -4.413906    2.427367
     26          6           0        3.808678   -5.627496    1.931207
     27          6           0        4.351962   -5.671425    0.644414
     28          6           0        4.412584   -4.522514   -0.139676
     29          6           0        3.356436    0.188943    0.028404
     30          6           0        2.396280    1.211597    0.151111
     31          7           0        2.822701    2.515844    0.511034
     32          6           0        3.878293    2.641264    1.484085
     33          6           0        5.037990    3.242895    1.175237
     34          6           0        5.450766    3.796755   -0.160147
     35          6           0        6.880179    3.383440   -0.547001
     36          6           0        3.533467    2.080816    2.852158
     37          6           0        4.648027    2.085754    3.903652
     38          6           0        4.201901    1.453478    5.226519
     39          6           0        2.183344    3.673826    0.003997
     40          6           0        1.647605    3.696712   -1.297244
     41          6           0        1.029095    4.844178   -1.788619
     42          6           0        0.942102    5.999899   -1.009871
     43          6           0        1.485769    5.987605    0.275555
     44          6           0        2.094112    4.841035    0.782823
     45          6           0        1.043715    0.906550   -0.042914
     46          6           0        0.667850   -0.394466   -0.391825
     47          6           0       -0.670538   -0.893486   -0.679149
     48          6           0       -1.889091   -0.203983   -0.647238
     49          6           0       -5.538617   -0.745260   -0.434406
     50          6           0       -6.763796   -0.056864   -0.401674
     51          6           0       -8.047459   -0.537835    0.074068
     52          6           0       -8.180556   -1.923239    0.570173
     53          6           0       -8.584476   -2.322946    1.785920
     54          6           0       -9.041137   -1.453337    2.917519
     55          1           0      -12.337907   -0.541211    0.537064
     56          1           0      -10.894145   -1.690697    0.377315
     57          1           0      -10.947108    1.376472    0.216140
     58          1           0       -5.697244    2.952475   -1.674987
     59          1           0       -3.576117    1.694985   -1.762331
     60          1           0       -3.967204   -2.730910   -1.568561
     61          1           0       -1.839984   -3.980489   -1.613609
     62          1           0        4.083011   -0.955519   -2.827523
     63          1           0        6.105343   -0.373342   -4.127902
     64          1           0        8.368481   -0.926426   -3.243445
     65          1           0        8.573191   -2.054229   -1.031847
     66          1           0        6.552374   -2.605141    0.279593
     67          1           0        3.045126   -2.310246    2.055543
     68          1           0        2.907668   -4.361972    3.426675
     69          1           0        3.754746   -6.528241    2.535909
     70          1           0        4.718343   -6.611111    0.239210
     71          1           0        4.818663   -4.565843   -1.145254
     72          1           0        4.403031    0.425129    0.184899
     73          1           0        5.767001    3.362868    1.974686
     74          1           0        5.392649    4.895944   -0.129930
     75          1           0        4.746923    3.477518   -0.934725
     76          1           0        7.173551    3.841419   -1.498235
     77          1           0        6.962627    2.296233   -0.656778
     78          1           0        7.605872    3.698732    0.212900
     79          1           0        2.664463    2.636965    3.238184
     80          1           0        3.173152    1.050590    2.722435
     81          1           0        5.520549    1.544857    3.513993
     82          1           0        4.980198    3.115922    4.088852
     83          1           0        3.347063    1.990105    5.655922
     84          1           0        3.899394    0.408756    5.085188
     85          1           0        5.010396    1.469113    5.965892
     86          1           0        1.724246    2.814017   -1.923306
     87          1           0        0.625952    4.835431   -2.798265
     88          1           0        0.464103    6.894056   -1.399284
     89          1           0        1.429340    6.875937    0.899723
     90          1           0        2.509825    4.848813    1.784849
     91          1           0        0.293412    1.681791    0.066574
     92          1           0       -1.906581    0.841980   -0.354224
     93          1           0       -5.487342   -1.758026   -0.046262
     94          1           0       -7.839971   -2.691433   -0.126072
     95          1           0       -8.589218   -3.396145    1.978672
     96          1           0      -10.128481   -1.534131    3.058860
     97          1           0       -8.572105   -1.765312    3.859015
     98          1           0       -8.809555   -0.399682    2.741338
 ---------------------------------------------------------------------

 The electronic state is 1-A.
 Alpha  occ. eigenvalues --  -88.90053 -88.89791 -14.36413 -14.35839 -10.23561
 Alpha  occ. eigenvalues --  -10.23066 -10.22837 -10.22740 -10.22736 -10.22722
 Alpha  occ. eigenvalues --  -10.22042 -10.21972 -10.21891 -10.21822 -10.20319
 Alpha  occ. eigenvalues --  -10.20291 -10.20202 -10.20018 -10.19943 -10.19909
 Alpha  occ. eigenvalues --  -10.19870 -10.19757 -10.19688 -10.19427 -10.19330
 Alpha  occ. eigenvalues --  -10.19260 -10.19153 -10.19113 -10.19067 -10.18952
 Alpha  occ. eigenvalues --  -10.18923 -10.18909 -10.18807 -10.18768 -10.18759
 Alpha  occ. eigenvalues --  -10.18655 -10.18624 -10.18615 -10.18613 -10.18592
 Alpha  occ. eigenvalues --  -10.18574 -10.18504 -10.18466 -10.18459 -10.18422
 Alpha  occ. eigenvalues --  -10.18298 -10.18196 -10.18175 -10.18170 -10.18144
 Alpha  occ. eigenvalues --  -10.17962 -10.17953 -10.17578 -10.17252  -7.96187
 Alpha  occ. eigenvalues --   -7.95818  -5.92618  -5.92281  -5.92263  -5.91921
 Alpha  occ. eigenvalues --   -5.91819  -5.91407  -0.96499  -0.95653  -0.89398
 Alpha  occ. eigenvalues --   -0.89086  -0.85552  -0.85123  -0.84336  -0.83937
 Alpha  occ. eigenvalues --   -0.83042  -0.81360  -0.80169  -0.79715  -0.78021
 Alpha  occ. eigenvalues --   -0.77798  -0.77490  -0.76432  -0.75565  -0.75224
 Alpha  occ. eigenvalues --   -0.74460  -0.74303  -0.74033  -0.73905  -0.73258
 Alpha  occ. eigenvalues --   -0.72576  -0.71651  -0.70718  -0.70215  -0.68615
 Alpha  occ. eigenvalues --   -0.67693  -0.67499  -0.64409  -0.63160  -0.62246
 Alpha  occ. eigenvalues --   -0.62139  -0.61546  -0.61047  -0.60045  -0.59938
 Alpha  occ. eigenvalues --   -0.59701  -0.59619  -0.59256  -0.58881  -0.58139
 Alpha  occ. eigenvalues --   -0.56922  -0.56425  -0.55702  -0.54127  -0.53484
 Alpha  occ. eigenvalues --   -0.53056  -0.51661  -0.50443  -0.49669  -0.49400
 Alpha  occ. eigenvalues --   -0.48817  -0.48345  -0.47903  -0.47705  -0.47561
 Alpha  occ. eigenvalues --   -0.47364  -0.47064  -0.46695  -0.46546  -0.46101
 Alpha  occ. eigenvalues --   -0.45432  -0.44925  -0.44535  -0.44300  -0.44189
 Alpha  occ. eigenvalues --   -0.43755  -0.43546  -0.43383  -0.43056  -0.42816
 Alpha  occ. eigenvalues --   -0.42618  -0.42381  -0.42269  -0.41915  -0.41840
 Alpha  occ. eigenvalues --   -0.41750  -0.41569  -0.41047  -0.40535  -0.40174
 Alpha  occ. eigenvalues --   -0.39925  -0.39378  -0.39218  -0.39026  -0.37842
 Alpha  occ. eigenvalues --   -0.37521  -0.37249  -0.37077  -0.36958  -0.36842
 Alpha  occ. eigenvalues --   -0.36635  -0.36519  -0.36378  -0.36117  -0.36023
 Alpha  occ. eigenvalues --   -0.35867  -0.35441  -0.35343  -0.35108  -0.34814
 Alpha  occ. eigenvalues --   -0.34397  -0.34209  -0.34087  -0.33987  -0.33953
 Alpha  occ. eigenvalues --   -0.33532  -0.33441  -0.33259  -0.33121  -0.32970
 Alpha  occ. eigenvalues --   -0.32742  -0.31944  -0.30715  -0.29305  -0.28738
 Alpha  occ. eigenvalues --   -0.28025  -0.27700  -0.25907  -0.25469  -0.25210
 Alpha  occ. eigenvalues --   -0.25142  -0.25017  -0.24488  -0.24373  -0.23223
 Alpha  occ. eigenvalues --   -0.22438  -0.20723  -0.20419  -0.18850  -0.17881
 Alpha virt. eigenvalues --   -0.04859  -0.03672  -0.02446  -0.01442  -0.00945
 Alpha virt. eigenvalues --   -0.00319   0.00222   0.00394   0.00578   0.00918
 Alpha virt. eigenvalues --    0.01555   0.01791   0.02480   0.03013   0.03278

 Mulliken charges:
               1
     1  C   -0.334331
     2  C   -0.095610
     3  C   -0.213136
     4  S    0.213449
     5  C   -0.143161
     6  C   -0.182414
     7  C   -0.163558
     8  C    0.082354
     9  C    0.074767
    10  C   -0.157684
    11  C   -0.193702
    12  C   -0.134753
    13  S    0.234324
    14  C   -0.203338
    15  C    0.233857
    16  N   -0.659950
    17  C    0.278844
    18  C   -0.158096
    19  C   -0.139740
    20  C   -0.128857
    21  C   -0.140984
    22  C   -0.170053
    23  C    0.280812
    24  C   -0.166753
    25  C   -0.136520
    26  C   -0.127931
    27  C   -0.139098
    28  C   -0.154449
    29  C   -0.214726
    30  C    0.292231
    31  N   -0.641196
    32  C    0.239924
    33  C   -0.144575
    34  C   -0.295017
    35  C   -0.449768
    36  C   -0.310229
    37  C   -0.258780
    38  C   -0.443711
    39  C    0.318448
    40  C   -0.176919
    41  C   -0.139486
    42  C   -0.132385
    43  C   -0.138917
    44  C   -0.178221
    45  C   -0.225845
    46  C    0.115038
    47  C    0.092648
    48  C   -0.223554
    49  C   -0.236598
    50  C    0.113120
    51  C    0.124592
    52  C   -0.212097
    53  C   -0.070642
    54  C   -0.484485
    55  H    0.144676
    56  H    0.158800
    57  H    0.138505
    58  H    0.141955
    59  H    0.135174
    60  H    0.133338
    61  H    0.142637
    62  H    0.144713
    63  H    0.131577
    64  H    0.127343
    65  H    0.130828
    66  H    0.145127
    67  H    0.141573
    68  H    0.130246
    69  H    0.126311
    70  H    0.130515
    71  H    0.144787
    72  H    0.156308
    73  H    0.126683
    74  H    0.150591
    75  H    0.158399
    76  H    0.144453
    77  H    0.158823
    78  H    0.139888
    79  H    0.146922
    80  H    0.154076
    81  H    0.141665
    82  H    0.137511
    83  H    0.143819
    84  H    0.144614
    85  H    0.144449
    86  H    0.141923
    87  H    0.127962
    88  H    0.123813
    89  H    0.127342
    90  H    0.133494
    91  H    0.149913
    92  H    0.140931
    93  H    0.136775
    94  H    0.137889
    95  H    0.128000
    96  H    0.160718
    97  H    0.153019
    98  H    0.168774
 Sum of Mulliken charges =  -0.00000

 Dipole moment (field-independent basis, Debye):
    X=              0.4929    Y=             -0.0207    Z=              1.3985  Tot=              1.4830
 Quadrupole moment (field-independent basis, Debye-Ang):
   XX=           -301.4267   YY=           -311.9709   ZZ=           -320.2905
   XY=              9.3051   XZ=             -4.6672   YZ=             -2.8602

 Normal termination of Gaussian 16 at Sat Nov  5 02:06:33 2022.
