 Gaussian 16, Revision B.01,
 Gaussian 16:  ES64L-G16RevB.01 20-Dec-2017

 -----------------------------
 #p b3lyp/6-31g(d) opt SCF=XQC
 -----------------------------

 ------------------------------
 Gaussian input prepared by ASE
 ------------------------------
 Symbolic Z-matrix:
 Charge =  0 Multiplicity = 1

 SCF Done:  E(RB3LYP) =  -1503.92527587     A.U. after   15 cycles
 SCF Done:  E(RB3LYP) =  -1503.93233889     A.U. after   12 cycles
 SCF Done:  E(RB3LYP) =  -1503.93298545     A.U. after   11 cycles
 SCF Done:  E(RB3LYP) =  -1503.93321940     A.U. after   11 cycles
 SCF Done:  E(RB3LYP) =  -1503.93366579     A.U. after   12 cycles
 SCF Done:  E(RB3LYP) =  -1503.93369816     A.U. after   14 cycles
 SCF Done:  E(RB3LYP) =  -1503.93424543     A.U. after   11 cycles
 SCF Done:  E(RB3LYP) =  -1503.93518999     A.U. after   13 cycles
 SCF Done:  E(RB3LYP) =  -1503.93529256     A.U. after   12 cycles
 SCF Done:  E(RB3LYP) =  -1503.93536571     A.U. after   12 cycles
 SCF Done:  E(RB3LYP) =  -1503.93549484     A.U. after    7 cycles
 SCF Done:  E(RB3LYP) =  -1503.93549493     A.U. after    7 cycles
 SCF Done:  E(RB3LYP) =  -1503.93549501     A.U. after    7 cycles
 SCF Done:  E(RB3LYP) =  -1503.93549509     A.U. after    8 cycles
 SCF Done:  E(RB3LYP) =  -1503.93549515     A.U. after    7 cycles
 SCF Done:  E(RB3LYP) =  -1503.93549521     A.U. after    7 cycles
 SCF Done:  E(RB3LYP) =  -1503.93549526     A.U. after    7 cycles
 SCF Done:  E(RB3LYP) =  -1503.93549531     A.U. after    7 cycles
 SCF Done:  E(RB3LYP) =  -1503.93549533     A.U. after    7 cycles
 SCF Done:  E(RB3LYP) =  -1503.93549535     A.U. after    7 cycles
 Optimization completed.
    -- Stationary point found.

                         Standard orientation:
 ---------------------------------------------------------------------
 Center     Atomic      Atomic             Coordinates (Angstroms)
 Number     Number       Type             X           Y           Z
 ---------------------------------------------------------------------
      1          6           0       -7.916027    1.112210    1.609264
      2          6           0       -8.637218    0.981284    0.279777
      3          8           0       -7.834163    0.313573   -0.744605
      4          7           0       -7.631228   -1.006469   -0.452424
      5          7           0       -8.658965   -1.875058   -0.428691
      6          7           0       -8.126400   -3.028770   -0.167386
      7          7           0       -6.780167   -2.932341   -0.042236
      8          6           0       -6.460701   -1.653333   -0.218506
      9          6           0       -5.106795   -1.098296   -0.163968
     10          6           0       -4.092130   -1.900346    0.385659
     11          6           0       -2.788230   -1.425735    0.459290
     12          6           0       -2.459012   -0.151285   -0.019806
     13          6           0       -1.021814    0.313249    0.022303
     14          8           0       -0.987987    1.732845    0.054354
     15          6           0        0.224677    2.368346    0.031126
     16          6           0        0.173808    3.765862    0.017858
     17          6           0        1.364730    4.487678   -0.001348
     18          6           0        2.599501    3.843678   -0.008542
     19          6           0        2.639606    2.445626    0.005615
     20          8           0        3.887806    1.887407    0.000280
     21          6           0        4.009550    0.473358   -0.000202
     22          6           0        5.474257    0.084555   -0.027166
     23          6           0        6.501853    1.044343   -0.219574
     24          6           0        7.806274    0.611719   -0.250803
     25          6           0        8.096233   -0.766662   -0.094339
     26          6           0        9.412068   -1.299269   -0.113751
     27          6           0        9.619602   -2.650812    0.045004
     28          6           0        8.520047   -3.526621    0.230235
     29          6           0        7.232420   -3.040169    0.254135
     30          6           0        6.986008   -1.650817    0.092728
     31          7           0        5.697147   -1.207222    0.124098
     32          6           0        1.454679    1.695641    0.026801
     33          6           0       -3.468054    0.642180   -0.573902
     34          6           0       -4.780124    0.179297   -0.645075
     35          1           0       -7.718263    0.133054    2.056790
     36          1           0       -8.546546    1.674416    2.307299
     37          1           0       -6.966803    1.644222    1.494468
     38          1           0       -9.584702    0.443134    0.370141
     39          1           0       -8.823281    1.953019   -0.183730
     40          1           0       -4.344296   -2.888460    0.755040
     41          1           0       -2.017200   -2.054093    0.899400
     42          1           0       -0.516033   -0.103060    0.905545
     43          1           0       -0.482406   -0.050583   -0.866694
     44          1           0       -0.793173    4.257269    0.023621
     45          1           0        1.329838    5.573657   -0.011821
     46          1           0        3.532498    4.396766   -0.023608
     47          1           0        3.505496    0.045252   -0.879266
     48          1           0        3.541696    0.039569    0.893916
     49          1           0        6.242887    2.089602   -0.334016
     50          1           0        8.622511    1.316312   -0.394629
     51          1           0       10.251368   -0.622280   -0.256003
     52          1           0       10.628861   -3.052763    0.029063
     53          1           0        8.700576   -4.591006    0.354103
     54          1           0        6.375914   -3.692109    0.394903
     55          1           0        1.491154    0.615746    0.044552
     56          1           0       -3.222490    1.631248   -0.944477
     57          1           0       -5.546809    0.805402   -1.085213
 ---------------------------------------------------------------------

 The electronic state is 1-A.
 Alpha  occ. eigenvalues --  -19.23841 -19.18717 -19.18579 -14.48644 -14.40424
 Alpha  occ. eigenvalues --  -14.39041 -14.35642 -14.33049 -10.27837 -10.26607
 Alpha  occ. eigenvalues --  -10.26031 -10.25561 -10.25549 -10.25220 -10.23837
 Alpha  occ. eigenvalues --  -10.22780 -10.22419 -10.21644 -10.21157 -10.20771
 Alpha  occ. eigenvalues --  -10.20661 -10.20630 -10.20562 -10.20227 -10.20213
 Alpha  occ. eigenvalues --  -10.20043 -10.19956 -10.19952 -10.19901 -10.19519
 Alpha  occ. eigenvalues --  -10.19296 -10.19284 -10.18260 -10.18246  -1.17653
 Alpha  occ. eigenvalues --   -1.09197  -1.07477  -1.07288  -0.94877  -0.90976
 Alpha  occ. eigenvalues --   -0.89782  -0.86883  -0.85531  -0.85017  -0.80942
 Alpha  occ. eigenvalues --   -0.79809  -0.78281  -0.77846  -0.76185  -0.74848
 Alpha  occ. eigenvalues --   -0.74697  -0.74299  -0.71832  -0.69424  -0.68813
 Alpha  occ. eigenvalues --   -0.66563  -0.64161  -0.63751  -0.62854  -0.61788
 Alpha  occ. eigenvalues --   -0.60569  -0.60016  -0.59612  -0.58973  -0.56180
 Alpha  occ. eigenvalues --   -0.55503  -0.53630  -0.53022  -0.52583  -0.51800
 Alpha  occ. eigenvalues --   -0.50787  -0.50133  -0.49168  -0.49095  -0.48585
 Alpha  occ. eigenvalues --   -0.48463  -0.47612  -0.46204  -0.45929  -0.45646
 Alpha  occ. eigenvalues --   -0.45223  -0.44627  -0.44180  -0.43640  -0.43418
 Alpha  occ. eigenvalues --   -0.42701  -0.42078  -0.41305  -0.41205  -0.40901
 Alpha  occ. eigenvalues --   -0.40653  -0.39470  -0.39174  -0.38268  -0.38233
 Alpha  occ. eigenvalues --   -0.37963  -0.37507  -0.36651  -0.36243  -0.36215
 Alpha  occ. eigenvalues --   -0.35601  -0.35227  -0.34556  -0.34136  -0.33692
 Alpha  occ. eigenvalues --   -0.33559  -0.31664  -0.30833  -0.30135  -0.29970
 Alpha  occ. eigenvalues --   -0.29660  -0.27428  -0.26621  -0.26033  -0.25062
 Alpha  occ. eigenvalues --   -0.24697  -0.24340  -0.23361  -0.21361
 Alpha virt. eigenvalues --   -0.05572  -0.05112  -0.01721  -0.01681  -0.00111
 Alpha virt. eigenvalues --    0.00387   0.01109   0.01903   0.05027   0.06174
 Alpha virt. eigenvalues --    0.08395   0.08511   0.08893   0.09416   0.09473

 Mulliken charges:
               1
     1  C   -0.472084
     2  C   -0.046756
     3  O   -0.390485
     4  N   -0.117433
     5  N   -0.050849
     6  N   -0.089932
     7  N   -0.396427
     8  C    0.536445
     9  C    0.142140
    10  C   -0.164890
    11  C   -0.184879
    12  C    0.127506
    13  C   -0.094868
    14  O   -0.529240
    15  C    0.388159
    16  C   -0.185968
    17  C   -0.134995
    18  C   -0.186780
    19  C    0.392920
    20  O   -0.533855
    21  C   -0.070157
    22  C    0.249415
    23  C   -0.161881
    24  C   -0.153156
    25  C    0.154416
    26  C   -0.195135
    27  C   -0.132971
    28  C   -0.136904
    29  C   -0.145104
    30  C    0.242878
    31  N   -0.565865
    32  C   -0.277250
    33  C   -0.169526
    34  C   -0.191241
    35  H    0.176546
    36  H    0.165030
    37  H    0.171515
    38  H    0.188396
    39  H    0.173150
    40  H    0.175295
    41  H    0.135734
    42  H    0.152976
    43  H    0.162697
    44  H    0.132915
    45  H    0.133688
    46  H    0.133077
    47  H    0.164284
    48  H    0.165798
    49  H    0.158909
    50  H    0.142323
    51  H    0.134277
    52  H    0.135237
    53  H    0.136289
    54  H    0.142047
    55  H    0.146613
    56  H    0.155076
    57  H    0.162879
 Sum of Mulliken charges =  -0.00000

 Dipole moment (field-independent basis, Debye):
    X=              3.8469    Y=              4.3386    Z=              0.9737  Tot=              5.8796
 Quadrupole moment (field-independent basis, Debye-Ang):
   XX=           -183.9586   YY=           -198.1973   ZZ=           -198.3375
   XY=            -44.0486   XZ=            -12.5724   YZ=             -2.8702

 Normal termination of Gaussian 16 at Sat Nov  5 00:01:03 2022.
