 Gaussian 16, Revision B.01,
 Gaussian 16:  ES64L-G16RevB.01 20-Dec-2017

 -------------------------------------------------------------------
 #p b3lyp/6-31g(d) 6D 10F nosymm GFInput td=(50-50,nstate=2) SCF=XQC
 -------------------------------------------------------------------

 ------------------------------
 Gaussian input prepared by ASE
 ------------------------------
 Symbolic Z-matrix:
 Charge =  0 Multiplicity = 1

                          Input orientation:
 ---------------------------------------------------------------------
 Center     Atomic      Atomic             Coordinates (Angstroms)
 Number     Number       Type             X           Y           Z
 ---------------------------------------------------------------------
      1          6           0       -8.150706    0.605322    1.406498
      2          6           0       -8.861365   -0.074355    0.249865
      3          8           0       -7.998996   -0.994456   -0.491639
      4          7           0       -7.659495   -2.088002    0.255328
      5          7           0       -8.592027   -2.978899    0.639955
      6          7           0       -7.941971   -3.899084    1.283109
      7          7           0       -6.612239   -3.637216    1.306392
      8          6           0       -6.427306   -2.489726    0.659821
      9          6           0       -5.137606   -1.829185    0.448959
     10          6           0       -4.042818   -2.272475    1.210440
     11          6           0       -2.794464   -1.683945    1.048959
     12          6           0       -2.600915   -0.651558    0.122216
     13          6           0       -1.219097   -0.071456   -0.070573
     14          8           0       -1.331706    1.256092   -0.562871
     15          6           0       -0.191192    1.949044   -0.869464
     16          6           0       -0.385999    3.231487   -1.392154
     17          6           0        0.724008    4.003686   -1.725734
     18          6           0        2.018563    3.521628   -1.549117
     19          6           0        2.202724    2.238007   -1.024943
     20          8           0        3.501798    1.837208   -0.878635
     21          6           0        3.768736    0.541062   -0.365695
     22          6           0        5.265575    0.309264   -0.310892
     23          6           0        6.187695    1.222194   -0.885716
     24          6           0        7.529603    0.933242   -0.811940
     25          6           0        7.960983   -0.256173   -0.173432
     26          6           0        9.324618   -0.632133   -0.052495
     27          6           0        9.671258   -1.803634    0.581831
     28          6           0        8.668865   -2.648328    1.122268
     29          6           0        7.338072   -2.310736    1.021221
     30          6           0        6.948848   -1.108910    0.372230
     31          7           0        5.621286   -0.808301    0.293895
     32          6           0        1.101595    1.441057   -0.679449
     33          6           0       -3.689247   -0.217326   -0.640511
     34          6           0       -4.946925   -0.794872   -0.480697
     35          1           0       -7.850710   -0.116178    2.173033
     36          1           0       -8.832256    1.323597    1.876020
     37          1           0       -7.262019    1.144026    1.064044
     38          1           0       -9.747814   -0.627592    0.571790
     39          1           0       -9.149040    0.635482   -0.529301
     40          1           0       -4.189824   -3.073388    1.926908
     41          1           0       -1.960485   -2.029971    1.655396
     42          1           0       -0.668546   -0.082743    0.881273
     43          1           0       -0.649614   -0.685385   -0.786414
     44          1           0       -1.398465    3.597095   -1.525607
     45          1           0        0.577239    5.000620   -2.132254
     46          1           0        2.889448    4.115116   -1.805923
     47          1           0        3.307018   -0.226679   -1.004043
     48          1           0        3.352717    0.426137    0.644368
     49          1           0        5.821716    2.122037   -1.364327
     50          1           0        8.268065    1.608298   -1.238970
     51          1           0       10.088874    0.020149   -0.468925
     52          1           0       10.716497   -2.086317    0.671206
     53          1           0        8.958848   -3.569746    1.620014
     54          1           0        6.554110   -2.942023    1.427823
     55          1           0        1.249348    0.452584   -0.268464
     56          1           0       -3.548914    0.583408   -1.358156
     57          1           0       -5.776349   -0.450532   -1.086520
 ---------------------------------------------------------------------

 SCF Done:  E(RB3LYP) =  -1503.93549474     A.U. after   15 cycles

 Excitation energies and oscillator strengths:

 Excited state symmetry could not be determined.
 Excited State   1:      Triplet-?Sym    2.7982 eV  443.08 nm  f=0.0000  <S**2>=2.000
     108 ->127         0.10895
     115 ->123         0.16238
     118 ->120         0.65818
     119 ->120        -0.10417
 This state for optimization and/or second-order correction.
 Total Energy, E(TD-HF/TD-DFT) =  -1503.83266143
 Copying the excited state density for this state as the 1-particle RhoCI density.

 Excited state symmetry could not be determined.
 Excited State   2:      Triplet-?Sym    3.3066 eV  374.96 nm  f=0.0000  <S**2>=2.000
     113 ->122        -0.23886
     113 ->123         0.10214
     116 ->121         0.63096

 Excited state symmetry could not be determined.
 Excited State   3:      Singlet-?Sym    3.8474 eV  322.26 nm  f=0.0043  <S**2>=0.000
     119 ->120         0.70473

 Excited state symmetry could not be determined.
 Excited State   4:      Singlet-?Sym    3.9924 eV  310.55 nm  f=0.0026  <S**2>=0.000
     119 ->121         0.70416

 Alpha  occ. eigenvalues --  -19.23841 -19.18718 -19.18579 -14.48644 -14.40424
 Alpha  occ. eigenvalues --  -14.39041 -14.35642 -14.33049 -10.27837 -10.26607
 Alpha  occ. eigenvalues --  -10.26031 -10.25562 -10.25549 -10.25220 -10.23837
 Alpha  occ. eigenvalues --  -10.22780 -10.22419 -10.21644 -10.21157 -10.20771
 Alpha  occ. eigenvalues --  -10.20661 -10.20630 -10.20562 -10.20227 -10.20213
 Alpha  occ. eigenvalues --  -10.20043 -10.19956 -10.19952 -10.19901 -10.19519
 Alpha  occ. eigenvalues --  -10.19296 -10.19285 -10.18260 -10.18246  -1.17653
 Alpha  occ. eigenvalues --   -1.09197  -1.07477  -1.07288  -0.94877  -0.90976
 Alpha  occ. eigenvalues --   -0.89782  -0.86883  -0.85531  -0.85017  -0.80942
 Alpha  occ. eigenvalues --   -0.79809  -0.78281  -0.77846  -0.76185  -0.74848
 Alpha  occ. eigenvalues --   -0.74697  -0.74299  -0.71832  -0.69424  -0.68813
 Alpha  occ. eigenvalues --   -0.66563  -0.64161  -0.63751  -0.62854  -0.61788
 Alpha  occ. eigenvalues --   -0.60569  -0.60016  -0.59612  -0.58973  -0.56180
 Alpha  occ. eigenvalues --   -0.55503  -0.53630  -0.53022  -0.52583  -0.51800
 Alpha  occ. eigenvalues --   -0.50787  -0.50133  -0.49168  -0.49095  -0.48586
 Alpha  occ. eigenvalues --   -0.48463  -0.47612  -0.46204  -0.45929  -0.45646
 Alpha  occ. eigenvalues --   -0.45223  -0.44627  -0.44180  -0.43640  -0.43418
 Alpha  occ. eigenvalues --   -0.42701  -0.42078  -0.41305  -0.41205  -0.40901
 Alpha  occ. eigenvalues --   -0.40653  -0.39470  -0.39174  -0.38268  -0.38233
 Alpha  occ. eigenvalues --   -0.37963  -0.37507  -0.36651  -0.36243  -0.36215
 Alpha  occ. eigenvalues --   -0.35601  -0.35227  -0.34556  -0.34136  -0.33692
 Alpha  occ. eigenvalues --   -0.33559  -0.31664  -0.30833  -0.30135  -0.29970
 Alpha  occ. eigenvalues --   -0.29660  -0.27428  -0.26621  -0.26033  -0.25062
 Alpha  occ. eigenvalues --   -0.24697  -0.24340  -0.23361  -0.21361
 Alpha virt. eigenvalues --   -0.05572  -0.05112  -0.01721  -0.01681  -0.00111
 Alpha virt. eigenvalues --    0.00387   0.01109   0.01903   0.05027   0.06174
 Alpha virt. eigenvalues --    0.08395   0.08511   0.08894   0.09416   0.09473

 Mulliken charges:
               1
     1  C   -0.472067
     2  C   -0.046765
     3  O   -0.390494
     4  N   -0.117428
     5  N   -0.050851
     6  N   -0.089933
     7  N   -0.396432
     8  C    0.536460
     9  C    0.142129
    10  C   -0.164892
    11  C   -0.184876
    12  C    0.127508
    13  C   -0.094856
    14  O   -0.529238
    15  C    0.388131
    16  C   -0.185965
    17  C   -0.134993
    18  C   -0.186796
    19  C    0.392914
    20  O   -0.533843
    21  C   -0.070161
    22  C    0.249405
    23  C   -0.161866
    24  C   -0.153158
    25  C    0.154412
    26  C   -0.195129
    27  C   -0.132968
    28  C   -0.136904
    29  C   -0.145105
    30  C    0.242877
    31  N   -0.565862
    32  C   -0.277235
    33  C   -0.169520
    34  C   -0.191232
    35  H    0.176541
    36  H    0.165027
    37  H    0.171513
    38  H    0.188396
    39  H    0.173150
    40  H    0.175296
    41  H    0.135734
    42  H    0.152974
    43  H    0.162695
    44  H    0.132920
    45  H    0.133688
    46  H    0.133083
    47  H    0.164285
    48  H    0.165800
    49  H    0.158905
    50  H    0.142323
    51  H    0.134276
    52  H    0.135237
    53  H    0.136289
    54  H    0.142047
    55  H    0.146613
    56  H    0.155066
    57  H    0.162877
 Sum of Mulliken charges =  -0.00000

 Dipole moment (field-independent basis, Debye):
    X=              3.3838    Y=              4.7324    Z=             -0.8511  Tot=              5.8796
 Quadrupole moment (field-independent basis, Debye-Ang):
   XX=           -176.3530   YY=           -211.1633   ZZ=           -196.6845
   XY=            -45.0107   XZ=              4.0052   YZ=              0.3172

 Normal termination of Gaussian 16 at Sat Nov  5 09:59:31 2022.
