 Gaussian 16, Revision B.01,
 Gaussian 16:  ES64L-G16RevB.01 20-Dec-2017

 -------------------------------------------------------------------
 #p b3lyp/6-31g(d) 6D 10F nosymm GFInput td=(50-50,nstate=2) SCF=XQC
 -------------------------------------------------------------------

 ------------------------------
 Gaussian input prepared by ASE
 ------------------------------
 Symbolic Z-matrix:
 Charge =  0 Multiplicity = 1

                          Input orientation:
 ---------------------------------------------------------------------
 Center     Atomic      Atomic             Coordinates (Angstroms)
 Number     Number       Type             X           Y           Z
 ---------------------------------------------------------------------
      1          6           0        0.378373    2.075865   -3.036677
      2          6           0        0.245109    1.649222   -1.761620
      3          7           0        1.230099    1.750264   -0.774356
      4          6           0        2.595864    2.138718   -1.087201
      5          6           0        3.437557    1.042557   -1.789572
      6          6           0        3.640983   -0.178529   -0.939576
      7          6           0        2.926153   -1.350953   -1.001104
      8          7           0        3.372229   -2.232047   -0.032658
      9          6           0        4.395874   -1.640340    0.679520
     10          6           0        5.168400   -2.120297    1.742469
     11          6           0        6.143796   -1.279383    2.260470
     12          6           0        6.369270    0.021462    1.746548
     13          6           0        7.449783    0.889094    2.352666
     14          6           0        5.589775    0.480185    0.688834
     15          6           0        4.589842   -0.342174    0.137658
     16          6           0       -1.044057    1.088545   -1.265872
     17          6           0       -1.847628    0.284339   -2.089291
     18          6           0       -3.057324   -0.230480   -1.628894
     19          6           0       -3.505518    0.027919   -0.324364
     20          6           0       -4.805606   -0.530032    0.170504
     21          6           0       -5.996143    0.208365   -0.000465
     22          6           0       -5.986379    1.561329   -0.677434
     23          6           0       -7.201340   -0.328212    0.467867
     24          6           0       -7.236163   -1.571492    1.094414
     25          6           0       -6.057752   -2.295111    1.259918
     26          6           0       -4.834046   -1.790384    0.804753
     27          6           0       -3.568406   -2.596734    0.997666
     28          6           0       -2.697711    0.822442    0.501650
     29          6           0       -1.488600    1.342538    0.041900
     30          1           0        1.309130    2.465208   -3.432037
     31          1           0       -0.481483    2.102915   -3.694491
     32          1           0        1.182644    1.004529   -0.088708
     33          1           0        2.559784    3.040119   -1.708297
     34          1           0        3.080092    2.417945   -0.144213
     35          1           0        4.409071    1.478134   -2.061655
     36          1           0        2.943449    0.764968   -2.727210
     37          1           0        2.129229   -1.633615   -1.675977
     38          1           0        3.023310   -3.166709    0.109265
     39          1           0        5.014136   -3.115909    2.151092
     40          1           0        6.757655   -1.629772    3.087268
     41          1           0        7.266836    1.077129    3.418580
     42          1           0        8.437461    0.416218    2.276969
     43          1           0        7.508695    1.860305    1.850815
     44          1           0        5.759833    1.477141    0.287529
     45          1           0       -1.507528    0.050137   -3.093793
     46          1           0       -3.661397   -0.853009   -2.284541
     47          1           0       -6.995421    1.983026   -0.719310
     48          1           0       -5.603196    1.499044   -1.702741
     49          1           0       -5.343462    2.274721   -0.148616
     50          1           0       -8.119895    0.239172    0.337400
     51          1           0       -8.179446   -1.975572    1.452961
     52          1           0       -6.081762   -3.266261    1.748878
     53          1           0       -3.084043   -2.825495    0.040957
     54          1           0       -3.783398   -3.543880    1.502259
     55          1           0       -2.829607   -2.053554    1.598783
     56          1           0       -3.026548    1.041729    1.514619
     57          1           0       -0.890575    1.974662    0.691562
 ---------------------------------------------------------------------

 SCF Done:  E(RB3LYP) =  -1155.25103180     A.U. after   14 cycles

 Excitation energies and oscillator strengths:

 Excited state symmetry could not be determined.
 Excited State   1:      Triplet-?Sym    3.0114 eV  411.72 nm  f=0.0000  <S**2>=2.000
      96 ->105        -0.12278
      97 ->103        -0.16569
     101 ->103         0.20267
     102 ->103         0.59996
     102 ->109         0.16001
     102 ->110        -0.14230
 This state for optimization and/or second-order correction.
 Total Energy, E(TD-HF/TD-DFT) =  -1155.14036646
 Copying the excited state density for this state as the 1-particle RhoCI density.

 Excited state symmetry could not be determined.
 Excited State   2:      Triplet-?Sym    3.2392 eV  382.76 nm  f=0.0000  <S**2>=2.000
      95 ->104        -0.11415
     100 ->108        -0.18061
     101 ->104         0.61451
     102 ->104        -0.22335

 Excited state symmetry could not be determined.
 Excited State   3:      Singlet-?Sym    4.2677 eV  290.51 nm  f=0.0691  <S**2>=0.000
     102 ->103         0.68446
     102 ->105         0.12270

 Excited state symmetry could not be determined.
 Excited State   4:      Singlet-?Sym    4.3932 eV  282.22 nm  f=0.0066  <S**2>=0.000
     101 ->105         0.13401
     102 ->103        -0.12595
     102 ->105         0.66587

 Alpha  occ. eigenvalues --  -14.37655 -14.33506 -10.21784 -10.21461 -10.21321
 Alpha  occ. eigenvalues --  -10.21142 -10.19515 -10.19455 -10.19221 -10.19171
 Alpha  occ. eigenvalues --  -10.18785 -10.18761 -10.18759 -10.18716 -10.18670
 Alpha  occ. eigenvalues --  -10.18602 -10.18434 -10.18381 -10.18187 -10.17879
 Alpha  occ. eigenvalues --  -10.17845 -10.17824 -10.17822 -10.17790 -10.17772
 Alpha  occ. eigenvalues --  -10.17714 -10.17607 -10.17534 -10.15305  -0.97419
 Alpha  occ. eigenvalues --   -0.92376  -0.86410  -0.84311  -0.83728  -0.79886
 Alpha  occ. eigenvalues --   -0.77956  -0.77404  -0.75545  -0.75133  -0.74274
 Alpha  occ. eigenvalues --   -0.73030  -0.71284  -0.70407  -0.68112  -0.67778
 Alpha  occ. eigenvalues --   -0.67159  -0.64182  -0.61207  -0.60734  -0.60106
 Alpha  occ. eigenvalues --   -0.58079  -0.57142  -0.56553  -0.55361  -0.54219
 Alpha  occ. eigenvalues --   -0.52976  -0.52481  -0.49847  -0.48016  -0.46833
 Alpha  occ. eigenvalues --   -0.46649  -0.46204  -0.45388  -0.44585  -0.44198
 Alpha  occ. eigenvalues --   -0.43541  -0.43094  -0.42740  -0.42141  -0.41734
 Alpha  occ. eigenvalues --   -0.41517  -0.41139  -0.41061  -0.40566  -0.40277
 Alpha  occ. eigenvalues --   -0.39938  -0.39611  -0.39575  -0.38826  -0.38168
 Alpha  occ. eigenvalues --   -0.37408  -0.36831  -0.36565  -0.36107  -0.35465
 Alpha  occ. eigenvalues --   -0.34653  -0.34274  -0.33814  -0.33326  -0.33251
 Alpha  occ. eigenvalues --   -0.32267  -0.31905  -0.31829  -0.30852  -0.26734
 Alpha  occ. eigenvalues --   -0.24906  -0.23959  -0.23393  -0.23130  -0.21189
 Alpha  occ. eigenvalues --   -0.19857  -0.19065
 Alpha virt. eigenvalues --   -0.01528  -0.00507  -0.00220   0.00216   0.01180
 Alpha virt. eigenvalues --    0.02937   0.06489   0.06649   0.07954   0.09898
 Alpha virt. eigenvalues --    0.10178   0.10541   0.11421   0.12088   0.12751

 Mulliken charges:
               1
     1  C   -0.451787
     2  C    0.345119
     3  N   -0.618664
     4  C   -0.140154
     5  C   -0.351916
     6  C    0.060852
     7  C   -0.010952
     8  N   -0.691097
     9  C    0.309589
    10  C   -0.159788
    11  C   -0.201690
    12  C    0.178596
    13  C   -0.531130
    14  C   -0.277460
    15  C    0.088892
    16  C    0.062937
    17  C   -0.179230
    18  C   -0.166688
    19  C    0.048906
    20  C   -0.072104
    21  C    0.167915
    22  C   -0.529731
    23  C   -0.199655
    24  C   -0.112614
    25  C   -0.199998
    26  C    0.168718
    27  C   -0.529885
    28  C   -0.164045
    29  C   -0.181088
    30  H    0.129725
    31  H    0.134974
    32  H    0.315129
    33  H    0.152314
    34  H    0.150852
    35  H    0.140566
    36  H    0.155654
    37  H    0.154268
    38  H    0.326184
    39  H    0.120696
    40  H    0.116366
    41  H    0.156360
    42  H    0.156741
    43  H    0.151158
    44  H    0.116063
    45  H    0.134212
    46  H    0.132420
    47  H    0.149550
    48  H    0.164987
    49  H    0.165761
    50  H    0.119799
    51  H    0.124653
    52  H    0.118644
    53  H    0.161691
    54  H    0.148954
    55  H    0.163193
    56  H    0.133396
    57  H    0.143839
 Sum of Mulliken charges =  -0.00000

 Dipole moment (field-independent basis, Debye):
    X=              0.3043    Y=             -2.1545    Z=              0.5389  Tot=              2.2417
 Quadrupole moment (field-independent basis, Debye-Ang):
   XX=           -169.9131   YY=           -160.7847   ZZ=           -169.1071
   XY=              0.4724   XZ=              2.1958   YZ=             -1.1659

 Normal termination of Gaussian 16 at Sat Nov  5 10:18:41 2022.
