 Gaussian 16, Revision B.01,
 Gaussian 16:  ES64L-G16RevB.01 20-Dec-2017

 -----------------------------
 #p b3lyp/6-31g(d) opt SCF=XQC
 -----------------------------

 ------------------------------
 Gaussian input prepared by ASE
 ------------------------------
 Symbolic Z-matrix:
 Charge =  0 Multiplicity = 1

 SCF Done:  E(RB3LYP) =  -1155.23806116     A.U. after   14 cycles
 SCF Done:  E(RB3LYP) =  -1155.24707532     A.U. after   14 cycles
 SCF Done:  E(RB3LYP) =  -1155.24924154     A.U. after   12 cycles
 SCF Done:  E(RB3LYP) =  -1155.25022859     A.U. after   12 cycles
 SCF Done:  E(RB3LYP) =  -1155.25044949     A.U. after   11 cycles
 SCF Done:  E(RB3LYP) =  -1155.25050924     A.U. after   11 cycles
 SCF Done:  E(RB3LYP) =  -1155.25052085     A.U. after    9 cycles
 SCF Done:  E(RB3LYP) =  -1155.25052257     A.U. after    9 cycles
 SCF Done:  E(RB3LYP) =  -1155.25052316     A.U. after    8 cycles
 SCF Done:  E(RB3LYP) =  -1155.25052356     A.U. after    7 cycles
 SCF Done:  E(RB3LYP) =  -1155.25097088     A.U. after   11 cycles
 SCF Done:  E(RB3LYP) =  -1155.25102041     A.U. after   11 cycles
 SCF Done:  E(RB3LYP) =  -1155.25102436     A.U. after    9 cycles
 SCF Done:  E(RB3LYP) =  -1155.25102723     A.U. after    9 cycles
 SCF Done:  E(RB3LYP) =  -1155.25102847     A.U. after    9 cycles
 SCF Done:  E(RB3LYP) =  -1155.25102914     A.U. after    7 cycles
 SCF Done:  E(RB3LYP) =  -1155.25102986     A.U. after    9 cycles
 SCF Done:  E(RB3LYP) =  -1155.25103014     A.U. after    7 cycles
 SCF Done:  E(RB3LYP) =  -1155.25103032     A.U. after    7 cycles
 SCF Done:  E(RB3LYP) =  -1155.25103036     A.U. after    6 cycles
 Optimization completed.
    -- Stationary point found.

                         Standard orientation:
 ---------------------------------------------------------------------
 Center     Atomic      Atomic             Coordinates (Angstroms)
 Number     Number       Type             X           Y           Z
 ---------------------------------------------------------------------
      1          6           0        0.302731    3.592075   -0.838541
      2          6           0        0.225916    2.428296   -0.156434
      3          7           0        1.265633    1.865338    0.590005
      4          6           0        2.623602    2.381328    0.528690
      5          6           0        3.392205    2.032501   -0.771659
      6          6           0        3.604195    0.556930   -0.952427
      7          6           0        2.851736   -0.292363   -1.728219
      8          7           0        3.322677   -1.587593   -1.610783
      9          6           0        4.400981   -1.599935   -0.749230
     10          6           0        5.215073   -2.652004   -0.316309
     11          6           0        6.242270   -2.349624    0.567032
     12          6           0        6.479009   -1.030402    1.026116
     13          6           0        7.616713   -0.764750    1.986705
     14          6           0        5.657600    0.002173    0.583538
     15          6           0        4.604679   -0.264693   -0.310931
     16          6           0       -1.050920    1.663218   -0.076310
     17          6           0       -1.922077    1.592228   -1.174736
     18          6           0       -3.120118    0.885959   -1.095693
     19          6           0       -3.488809    0.213185    0.079419
     20          6           0       -4.776511   -0.549407    0.161346
     21          6           0       -5.951549    0.102612    0.592617
     22          6           0       -5.937362    1.565800    0.977029
     23          6           0       -7.145332   -0.625180    0.662983
     24          6           0       -7.183928   -1.973027    0.314649
     25          6           0       -6.020839   -2.610496   -0.110234
     26          6           0       -4.808838   -1.915078   -0.192864
     27          6           0       -3.559719   -2.631647   -0.657075
     28          6           0       -2.613578    0.275244    1.173146
     29          6           0       -1.415925    0.985043    1.098104
     30          1           0        1.222084    4.157551   -0.934634
     31          1           0       -0.590324    4.035419   -1.261274
     32          1           0        1.232776    0.852032    0.614837
     33          1           0        2.581325    3.467867    0.659963
     34          1           0        3.166546    1.974933    1.389924
     35          1           0        4.360332    2.551864   -0.747372
     36          1           0        2.839740    2.436467   -1.627204
     37          1           0        2.011142   -0.069573   -2.371805
     38          1           0        2.953693   -2.387837   -2.099598
     39          1           0        5.052981   -3.671535   -0.657330
     40          1           0        6.889133   -3.150562    0.918112
     41          1           0        7.497669   -1.329435    2.920492
     42          1           0        8.583983   -1.057154    1.558058
     43          1           0        7.677837    0.296751    2.247584
     44          1           0        5.835894    1.018088    0.929968
     45          1           0       -1.644257    2.083742   -2.102515
     46          1           0       -3.777534    0.843282   -1.960738
     47          1           0       -6.933890    1.897089    1.285131
     48          1           0       -5.612440    2.200735    0.144414
     49          1           0       -5.245293    1.760943    1.804603
     50          1           0       -8.051922   -0.124815    0.995278
     51          1           0       -8.118229   -2.525436    0.374202
     52          1           0       -6.047826   -3.662989   -0.382853
     53          1           0       -3.135157   -2.165718   -1.554231
     54          1           0       -3.775740   -3.678907   -0.890534
     55          1           0       -2.773211   -2.610830    0.106589
     56          1           0       -2.880151   -0.232915    2.096747
     57          1           0       -0.764578    1.038799    1.965360
 ---------------------------------------------------------------------

 The electronic state is 1-A.
 Alpha  occ. eigenvalues --  -14.37655 -14.33506 -10.21784 -10.21461 -10.21321
 Alpha  occ. eigenvalues --  -10.21142 -10.19515 -10.19455 -10.19221 -10.19171
 Alpha  occ. eigenvalues --  -10.18785 -10.18761 -10.18759 -10.18716 -10.18670
 Alpha  occ. eigenvalues --  -10.18602 -10.18434 -10.18381 -10.18187 -10.17879
 Alpha  occ. eigenvalues --  -10.17845 -10.17824 -10.17822 -10.17790 -10.17772
 Alpha  occ. eigenvalues --  -10.17714 -10.17607 -10.17534 -10.15305  -0.97419
 Alpha  occ. eigenvalues --   -0.92376  -0.86410  -0.84311  -0.83728  -0.79886
 Alpha  occ. eigenvalues --   -0.77956  -0.77404  -0.75545  -0.75133  -0.74274
 Alpha  occ. eigenvalues --   -0.73030  -0.71284  -0.70407  -0.68112  -0.67778
 Alpha  occ. eigenvalues --   -0.67159  -0.64182  -0.61207  -0.60734  -0.60106
 Alpha  occ. eigenvalues --   -0.58079  -0.57142  -0.56553  -0.55361  -0.54219
 Alpha  occ. eigenvalues --   -0.52976  -0.52481  -0.49847  -0.48016  -0.46833
 Alpha  occ. eigenvalues --   -0.46649  -0.46204  -0.45388  -0.44585  -0.44198
 Alpha  occ. eigenvalues --   -0.43541  -0.43094  -0.42740  -0.42141  -0.41734
 Alpha  occ. eigenvalues --   -0.41517  -0.41139  -0.41061  -0.40566  -0.40277
 Alpha  occ. eigenvalues --   -0.39938  -0.39611  -0.39575  -0.38826  -0.38168
 Alpha  occ. eigenvalues --   -0.37408  -0.36831  -0.36565  -0.36107  -0.35465
 Alpha  occ. eigenvalues --   -0.34653  -0.34274  -0.33814  -0.33326  -0.33251
 Alpha  occ. eigenvalues --   -0.32267  -0.31905  -0.31829  -0.30852  -0.26734
 Alpha  occ. eigenvalues --   -0.24906  -0.23959  -0.23393  -0.23130  -0.21190
 Alpha  occ. eigenvalues --   -0.19857  -0.19065
 Alpha virt. eigenvalues --   -0.01528  -0.00507  -0.00220   0.00216   0.01180
 Alpha virt. eigenvalues --    0.02937   0.06489   0.06649   0.07954   0.09898
 Alpha virt. eigenvalues --    0.10178   0.10541   0.11421   0.12088   0.12751

 Mulliken charges:
               1
     1  C   -0.451773
     2  C    0.345108
     3  N   -0.618654
     4  C   -0.140152
     5  C   -0.351929
     6  C    0.060850
     7  C   -0.010955
     8  N   -0.691086
     9  C    0.309575
    10  C   -0.159786
    11  C   -0.201684
    12  C    0.178597
    13  C   -0.531133
    14  C   -0.277454
    15  C    0.088897
    16  C    0.062924
    17  C   -0.179232
    18  C   -0.166691
    19  C    0.048930
    20  C   -0.072101
    21  C    0.167914
    22  C   -0.529734
    23  C   -0.199652
    24  C   -0.112614
    25  C   -0.200002
    26  C    0.168717
    27  C   -0.529892
    28  C   -0.164069
    29  C   -0.181076
    30  H    0.129722
    31  H    0.134973
    32  H    0.315128
    33  H    0.152313
    34  H    0.150853
    35  H    0.140568
    36  H    0.155657
    37  H    0.154269
    38  H    0.326184
    39  H    0.120694
    40  H    0.116365
    41  H    0.156360
    42  H    0.156741
    43  H    0.151158
    44  H    0.116062
    45  H    0.134214
    46  H    0.132421
    47  H    0.149550
    48  H    0.164988
    49  H    0.165762
    50  H    0.119799
    51  H    0.124653
    52  H    0.118644
    53  H    0.161691
    54  H    0.148956
    55  H    0.163194
    56  H    0.133398
    57  H    0.143840
 Sum of Mulliken charges =  -0.00000

 Dipole moment (field-independent basis, Debye):
    X=              0.2673    Y=             -1.9701    Z=             -1.0356  Tot=              2.2417
 Quadrupole moment (field-independent basis, Debye-Ang):
   XX=           -169.6258   YY=           -163.3775   ZZ=           -167.0689
   XY=             -0.9811   XZ=              2.0890   YZ=              3.8631

 1\1\GINC-NODE90\FOpt\RB3LYP\6-31G(d)\C27H28N2\WYKGROUP\05-Nov-2022\0\\
 #p b3lyp/6-31g(d) opt SCF=XQC\\Gaussian input prepared by ASE\\0,1\C,0
 .3783729692,2.075864719,-3.0366765183\C,0.2451090582,1.6492215409,-1.7
 61619914\N,1.2300991016,1.7502638151,-0.7743561544\C,2.5958643094,2.13
 87176609,-1.0872010182\C,3.4375566454,1.0425565806,-1.78957232\C,3.640
 9827639,-0.1785289716,-0.9395764917\C,2.9261531288,-1.3509529612,-1.00
 11042093\N,3.3722286157,-2.2320467901,-0.0326583185\C,4.3958737617,-1.
 6403395358,0.6795199429\C,5.1684002863,-2.1202969314,1.7424691952\C,6.

 Normal termination of Gaussian 16 at Sat Nov  5 00:26:43 2022.
