 Gaussian 16, Revision B.01,
 Gaussian 16:  ES64L-G16RevB.01 20-Dec-2017

 -----------------------------
 #p b3lyp/6-31g(d) opt SCF=XQC
 -----------------------------

 ------------------------------
 Gaussian input prepared by ASE
 ------------------------------
 Symbolic Z-matrix:
 Charge =  0 Multiplicity = 1

 SCF Done:  E(RB3LYP) =  -1660.13768658     A.U. after   16 cycles
 SCF Done:  E(RB3LYP) =  -1660.14216119     A.U. after   15 cycles
 SCF Done:  E(RB3LYP) =  -1660.14896630     A.U. after   12 cycles
 SCF Done:  E(RB3LYP) =  -1660.15060613     A.U. after   14 cycles
 SCF Done:  E(RB3LYP) =  -1660.15522633     A.U. after   14 cycles
 SCF Done:  E(RB3LYP) =  -1660.15548059     A.U. after   13 cycles
 SCF Done:  E(RB3LYP) =  -1660.15637403     A.U. after   13 cycles
 SCF Done:  E(RB3LYP) =  -1660.15646420     A.U. after   12 cycles
 SCF Done:  E(RB3LYP) =  -1660.15662696     A.U. after   12 cycles
 SCF Done:  E(RB3LYP) =  -1660.15672524     A.U. after   11 cycles
 SCF Done:  E(RB3LYP) =  -1660.15676950     A.U. after   11 cycles
 SCF Done:  E(RB3LYP) =  -1660.15678960     A.U. after   11 cycles
 SCF Done:  E(RB3LYP) =  -1660.15679643     A.U. after   10 cycles
 SCF Done:  E(RB3LYP) =  -1660.15679900     A.U. after    8 cycles
 SCF Done:  E(RB3LYP) =  -1660.15679965     A.U. after    8 cycles
 SCF Done:  E(RB3LYP) =  -1660.15680005     A.U. after    7 cycles
 SCF Done:  E(RB3LYP) =  -1660.15680046     A.U. after    7 cycles
 SCF Done:  E(RB3LYP) =  -1660.15680068     A.U. after    7 cycles
 SCF Done:  E(RB3LYP) =  -1660.15680069     A.U. after    7 cycles
 SCF Done:  E(RB3LYP) =  -1660.15680061     A.U. after    7 cycles
 Optimization completed.
    -- Stationary point found.

                         Standard orientation:
 ---------------------------------------------------------------------
 Center     Atomic      Atomic             Coordinates (Angstroms)
 Number     Number       Type             X           Y           Z
 ---------------------------------------------------------------------
      1          6           0        1.920420    0.683231    3.259702
      2          6           0        2.319198    2.045227    2.767772
      3          6           0        2.650313    2.458106    1.530615
      4          6           0        2.709035    1.739468    0.242048
      5          6           0        3.481088    2.275425   -0.732756
      6          6           0        3.709257    1.769206   -2.129914
      7          6           0        3.754066    2.901237   -3.169081
      8          6           0        1.945555    0.458004    0.017566
      9          6           0        0.586437    0.477178    0.050570
     10          6           0       -0.609129   -0.471822    0.000144
     11          6           0       -0.893368   -1.804885    0.002464
     12          6           0        0.051121   -2.874583    0.415581
     13          6           0        0.857263   -2.725773    1.555808
     14          6           0        1.696023   -3.754914    1.981567
     15          6           0        1.739738   -4.960865    1.281083
     16          6           0        0.931190   -5.131774    0.154469
     17          6           0        0.092006   -4.104409   -0.268470
     18          6           0       -2.255356   -2.276625   -0.390331
     19          6           0       -2.952920   -3.214736    0.392973
     20          6           0       -4.215652   -3.665622    0.014499
     21          6           0       -4.802290   -3.204611   -1.167269
     22          6           0       -4.114259   -2.290387   -1.965388
     23          6           0       -2.853841   -1.832829   -1.580913
     24          6           0       -1.476476    0.743382    0.005218
     25          6           0       -2.919166    1.017191    0.017294
     26          6           0       -3.795096    0.307073    0.857245
     27          6           0       -5.153004    0.616231    0.891912
     28          6           0       -5.665214    1.634776    0.085276
     29          6           0       -4.806165    2.348043   -0.753118
     30          6           0       -3.445913    2.046826   -0.783664
     31          6           0       -0.399953    1.595615    0.085935
     32          6           0       -0.346516    3.064187    0.174313
     33          6           0       -1.062051    3.728738    1.185936
     34          6           0       -1.063146    5.120203    1.262101
     35          6           0       -0.358319    5.875741    0.322777
     36          6           0        0.345928    5.228012   -0.694019
     37          6           0        0.354260    3.835545   -0.767703
     38          6           0        2.779112   -0.731735   -0.293502
     39          6           0        2.411604   -1.648904   -1.293049
     40          6           0        3.244017   -2.714425   -1.630294
     41          6           0        4.464974   -2.890198   -0.977307
     42          6           0        4.849905   -1.983381    0.012463
     43          6           0        4.022462   -0.912356    0.342266
     44          1           0        0.838949    0.629590    3.453121
     45          1           0        2.419451    0.468610    4.213619
     46          1           0        2.173262   -0.111730    2.557530
     47          1           0        2.357826    2.809579    3.544398
     48          1           0        2.955238    3.501238    1.447481
     49          1           0        4.018522    3.194199   -0.488030
     50          1           0        2.941660    1.039170   -2.404782
     51          1           0        4.665840    1.224171   -2.163637
     52          1           0        3.967275    2.506259   -4.168619
     53          1           0        4.533961    3.633147   -2.925626
     54          1           0        2.799886    3.439061   -3.217612
     55          1           0        0.802480   -1.800928    2.119690
     56          1           0        2.309914   -3.616017    2.867586
     57          1           0        2.390296   -5.764821    1.615150
     58          1           0        0.953331   -6.069549   -0.395049
     59          1           0       -0.537492   -4.247398   -1.141824
     60          1           0       -2.498431   -3.584359    1.307817
     61          1           0       -4.742270   -4.380908    0.641286
     62          1           0       -5.784215   -3.562023   -1.466061
     63          1           0       -4.556461   -1.933608   -2.891885
     64          1           0       -2.316872   -1.129338   -2.210187
     65          1           0       -3.406254   -0.486877    1.485570
     66          1           0       -5.813411    0.057040    1.549364
     67          1           0       -6.725937    1.870329    0.109601
     68          1           0       -5.195071    3.142017   -1.385381
     69          1           0       -2.781392    2.604741   -1.436165
     70          1           0       -1.612034    3.143985    1.917031
     71          1           0       -1.616178    5.614790    2.056383
     72          1           0       -0.360398    6.961023    0.380777
     73          1           0        0.890198    5.808072   -1.434929
     74          1           0        0.897918    3.338355   -1.563397
     75          1           0        1.473137   -1.507532   -1.819506
     76          1           0        2.938028   -3.407378   -2.409437
     77          1           0        5.114426   -3.719915   -1.243703
     78          1           0        5.801037   -2.105664    0.524652
     79          1           0        4.340945   -0.200200    1.097843
 ---------------------------------------------------------------------

 The electronic state is 1-A.
 Alpha  occ. eigenvalues --  -10.20300 -10.20125 -10.20013 -10.19929 -10.19633
 Alpha  occ. eigenvalues --  -10.19596 -10.19448 -10.19255 -10.19245 -10.19048
 Alpha  occ. eigenvalues --  -10.18904 -10.18747 -10.18667 -10.18618 -10.18606
 Alpha  occ. eigenvalues --  -10.18598 -10.18555 -10.18540 -10.18536 -10.18529
 Alpha  occ. eigenvalues --  -10.18501 -10.18490 -10.18483 -10.18446 -10.18421
 Alpha  occ. eigenvalues --  -10.18349 -10.18348 -10.18302 -10.18245 -10.18205
 Alpha  occ. eigenvalues --  -10.18109 -10.18060 -10.18047 -10.18010 -10.17983
 Alpha  occ. eigenvalues --  -10.17942 -10.17916 -10.17833 -10.17802 -10.17793
 Alpha  occ. eigenvalues --  -10.17468 -10.17401 -10.17194  -0.88707  -0.85650
 Alpha  occ. eigenvalues --   -0.85063  -0.84747  -0.84184  -0.84107  -0.81687
 Alpha  occ. eigenvalues --   -0.78712  -0.77310  -0.76820  -0.75212  -0.74844
 Alpha  occ. eigenvalues --   -0.73956  -0.73878  -0.73842  -0.73704  -0.73455
 Alpha  occ. eigenvalues --   -0.73179  -0.72903  -0.69756  -0.69083  -0.67140
 Alpha  occ. eigenvalues --   -0.63238  -0.62931  -0.61585  -0.60360  -0.60018
 Alpha  occ. eigenvalues --   -0.59894  -0.59809  -0.59608  -0.58919  -0.58779
 Alpha  occ. eigenvalues --   -0.58318  -0.55914  -0.54642  -0.54329  -0.52580
 Alpha  occ. eigenvalues --   -0.51975  -0.51464  -0.51017  -0.49129  -0.48821
 Alpha  occ. eigenvalues --   -0.47185  -0.46829  -0.46433  -0.45885  -0.44959
 Alpha  occ. eigenvalues --   -0.44673  -0.44536  -0.44197  -0.44145  -0.44035
 Alpha  occ. eigenvalues --   -0.43789  -0.43510  -0.42795  -0.42571  -0.42301
 Alpha  occ. eigenvalues --   -0.41846  -0.41477  -0.41463  -0.41371  -0.41342
 Alpha  occ. eigenvalues --   -0.41098  -0.40900  -0.40111  -0.39347  -0.38910
 Alpha  occ. eigenvalues --   -0.37998  -0.37378  -0.37325  -0.37026  -0.36431
 Alpha  occ. eigenvalues --   -0.36136  -0.35700  -0.35424  -0.35168  -0.35044
 Alpha  occ. eigenvalues --   -0.34720  -0.34386  -0.34270  -0.34104  -0.33834
 Alpha  occ. eigenvalues --   -0.33700  -0.33661  -0.33380  -0.33347  -0.32916
 Alpha  occ. eigenvalues --   -0.32521  -0.31872  -0.30760  -0.28803  -0.27313
 Alpha  occ. eigenvalues --   -0.26357  -0.25082  -0.24971  -0.24605  -0.24269
 Alpha  occ. eigenvalues --   -0.24056  -0.23918  -0.23430  -0.23331  -0.21386
 Alpha  occ. eigenvalues --   -0.19541  -0.18544
 Alpha virt. eigenvalues --   -0.04870  -0.04113  -0.01162  -0.00442  -0.00413
 Alpha virt. eigenvalues --   -0.00131   0.00461   0.00961   0.01129   0.01201
 Alpha virt. eigenvalues --    0.01544   0.03882   0.05051   0.07904   0.09241

 Mulliken charges:
               1
     1  C   -0.501456
     2  C   -0.110649
     3  C   -0.150922
     4  C    0.105093
     5  C   -0.155551
     6  C   -0.292600
     7  C   -0.452802
     8  C   -0.203785
     9  C    0.103025
    10  C    0.060016
    11  C   -0.154123
    12  C    0.113273
    13  C   -0.168750
    14  C   -0.129211
    15  C   -0.123656
    16  C   -0.132766
    17  C   -0.172533
    18  C    0.082552
    19  C   -0.170913
    20  C   -0.133848
    21  C   -0.127099
    22  C   -0.126084
    23  C   -0.160229
    24  C   -0.009975
    25  C    0.075782
    26  C   -0.144077
    27  C   -0.136024
    28  C   -0.125633
    29  C   -0.135993
    30  C   -0.159534
    31  C   -0.019132
    32  C    0.073692
    33  C   -0.146620
    34  C   -0.136545
    35  C   -0.125804
    36  C   -0.143772
    37  C   -0.153322
    38  C    0.131154
    39  C   -0.167966
    40  C   -0.123198
    41  C   -0.126203
    42  C   -0.137016
    43  C   -0.177703
    44  H    0.158471
    45  H    0.146317
    46  H    0.176473
    47  H    0.121759
    48  H    0.123043
    49  H    0.120243
    50  H    0.154410
    51  H    0.157200
    52  H    0.145498
    53  H    0.143634
    54  H    0.148591
    55  H    0.142306
    56  H    0.127241
    57  H    0.125723
    58  H    0.125792
    59  H    0.136583
    60  H    0.138616
    61  H    0.128091
    62  H    0.127418
    63  H    0.129644
    64  H    0.133487
    65  H    0.140140
    66  H    0.129493
    67  H    0.127336
    68  H    0.129103
    69  H    0.140235
    70  H    0.138399
    71  H    0.129448
    72  H    0.127579
    73  H    0.127264
    74  H    0.144627
    75  H    0.133695
    76  H    0.125627
    77  H    0.123793
    78  H    0.124766
    79  H    0.138859
 Sum of Mulliken charges =  -0.00000

 Dipole moment (field-independent basis, Debye):
    X=             -0.4821    Y=              0.0736    Z=             -0.1646  Tot=              0.5147
 Quadrupole moment (field-independent basis, Debye-Ang):
   XX=           -233.7988   YY=           -232.9177   ZZ=           -239.6041
   XY=             -1.5171   XZ=              0.2514   YZ=             -1.3810

 Normal termination of Gaussian 16 at Sat Nov  5 00:55:35 2022.
