 Gaussian 16, Revision B.01,
 Gaussian 16:  ES64L-G16RevB.01 20-Dec-2017

 -------------------------------------------------------------------
 #p b3lyp/6-31g(d) 6D 10F nosymm GFInput td=(50-50,nstate=2) SCF=XQC
 -------------------------------------------------------------------

 ------------------------------
 Gaussian input prepared by ASE
 ------------------------------
 Symbolic Z-matrix:
 Charge =  0 Multiplicity = 1

                          Input orientation:
 ---------------------------------------------------------------------
 Center     Atomic      Atomic             Coordinates (Angstroms)
 Number     Number       Type             X           Y           Z
 ---------------------------------------------------------------------
      1          6           0        1.074396   -0.037937    3.622476
      2          6           0        2.384981    0.574355    3.218104
      3          6           0        3.123383    0.389094    2.108552
      4          6           0        2.896282   -0.441868    0.909294
      5          6           0        3.980988   -0.773787    0.169835
      6          6           0        4.038857   -1.586887   -1.093452
      7          6           0        5.040629   -1.023080   -2.114208
      8          6           0        1.514888   -0.908094    0.522218
      9          6           0        0.573448    0.010374    0.177594
     10          6           0       -0.910177    0.105995   -0.172024
     11          6           0       -2.033286   -0.665527   -0.207167
     12          6           0       -2.189361   -1.971344    0.483818
     13          6           0       -1.727059   -2.153463    1.797302
     14          6           0       -1.931085   -3.357557    2.469947
     15          6           0       -2.611575   -4.404038    1.846475
     16          6           0       -3.093310   -4.233337    0.546087
     17          6           0       -2.891315   -3.029641   -0.123914
     18          6           0       -3.241042   -0.189401   -0.946402
     19          6           0       -4.518367   -0.237049   -0.357860
     20          6           0       -5.644929    0.191592   -1.056544
     21          6           0       -5.523757    0.658922   -2.368096
     22          6           0       -4.267003    0.692508   -2.972767
     23          6           0       -3.138503    0.271480   -2.269164
     24          6           0       -0.674060    1.554803   -0.444497
     25          6           0       -1.493557    2.707329   -0.840198
     26          6           0       -2.747448    2.953707   -0.253602
     27          6           0       -3.487283    4.080506   -0.605259
     28          6           0       -2.994600    4.980078   -1.553145
     29          6           0       -1.750590    4.747447   -2.143009
     30          6           0       -1.004347    3.625696   -1.786992
     31          6           0        0.653956    1.474597   -0.095701
     32          6           0        1.693689    2.515453   -0.041436
     33          6           0        1.474217    3.682205    0.711903
     34          6           0        2.424599    4.700960    0.741745
     35          6           0        3.608279    4.579093    0.010993
     36          6           0        3.832458    3.430804   -0.750955
     37          6           0        2.885990    2.407078   -0.776383
     38          6           0        1.327492   -2.381507    0.490646
     39          6           0        0.613555   -3.012264   -0.542696
     40          6           0        0.516161   -4.401073   -0.603569
     41          6           0        1.130041   -5.194745    0.366616
     42          6           0        1.850710   -4.585033    1.395704
     43          6           0        1.956719   -3.197132    1.450632
     44          1           0        0.247652    0.678946    3.510943
     45          1           0        1.103594   -0.318610    4.683336
     46          1           0        0.825158   -0.927002    3.042492
     47          1           0        2.803181    1.264762    3.951127
     48          1           0        4.074348    0.920984    2.080752
     49          1           0        4.949492   -0.415071    0.525074
     50          1           0        3.045913   -1.664137   -1.547109
     51          1           0        4.334806   -2.618250   -0.844544
     52          1           0        5.094158   -1.661416   -3.003143
     53          1           0        6.049068   -0.959301   -1.687383
     54          1           0        4.756050   -0.016036   -2.441236
     55          1           0       -1.224797   -1.331187    2.295193
     56          1           0       -1.564466   -3.474052    3.486413
     57          1           0       -2.774483   -5.341265    2.372058
     58          1           0       -3.629891   -5.040301    0.053367
     59          1           0       -3.273929   -2.903084   -1.132402
     60          1           0       -4.620755   -0.608230    0.657947
     61          1           0       -6.620463    0.158089   -0.577971
     62          1           0       -6.403704    0.986393   -2.915504
     63          1           0       -4.162861    1.043843   -3.995972
     64          1           0       -2.163476    0.289124   -2.746900
     65          1           0       -3.138689    2.259285    0.481962
     66          1           0       -4.453471    4.254285   -0.139043
     67          1           0       -3.576148    5.855404   -1.830302
     68          1           0       -1.358673    5.441089   -2.882375
     69          1           0       -0.037057    3.449338   -2.247276
     70          1           0        0.554242    3.780356    1.280173
     71          1           0        2.239554    5.591672    1.336501
     72          1           0        4.348931    5.374186    0.032581
     73          1           0        4.746943    3.330954   -1.330088
     74          1           0        3.062938    1.520380   -1.375005
     75          1           0        0.150438   -2.402945   -1.312187
     76          1           0       -0.038738   -4.864033   -1.415131
     77          1           0        1.055753   -6.277842    0.315926
     78          1           0        2.338453   -5.192017    2.154401
     79          1           0        2.537865   -2.733624    2.242418
 ---------------------------------------------------------------------

 SCF Done:  E(RB3LYP) =  -1660.15680157     A.U. after   16 cycles

 Excitation energies and oscillator strengths:

 Excited state symmetry could not be determined.
 Excited State   1:      Triplet-?Sym    1.9588 eV  632.98 nm  f=0.0000  <S**2>=2.000
     145 ->149         0.11156
     146 ->148        -0.12689
     146 ->149        -0.25591
     147 ->148         0.60014
     147 <-148         0.10412
 This state for optimization and/or second-order correction.
 Total Energy, E(TD-HF/TD-DFT) =  -1660.08481871
 Copying the excited state density for this state as the 1-particle RhoCI density.

 Excited state symmetry could not be determined.
 Excited State   2:      Triplet-?Sym    2.3700 eV  523.14 nm  f=0.0000  <S**2>=2.000
     145 ->148         0.10186
     145 ->150        -0.12836
     146 ->148        -0.37161
     146 ->149        -0.12507
     147 ->149         0.49976

 Excited state symmetry could not be determined.
 Excited State   3:      Singlet-?Sym    3.1627 eV  392.02 nm  f=0.0842  <S**2>=0.000
     146 ->148         0.17589
     146 ->149         0.10372
     147 ->148         0.61375
     147 ->149         0.27149

 Excited state symmetry could not be determined.
 Excited State   4:      Singlet-?Sym    3.2528 eV  381.16 nm  f=0.0535  <S**2>=0.000
     146 ->148         0.48271
     146 ->149        -0.15871
     147 ->148        -0.28100
     147 ->149         0.38463

 Alpha  occ. eigenvalues --  -10.20300 -10.20125 -10.20013 -10.19929 -10.19633
 Alpha  occ. eigenvalues --  -10.19596 -10.19448 -10.19255 -10.19245 -10.19048
 Alpha  occ. eigenvalues --  -10.18904 -10.18747 -10.18667 -10.18618 -10.18606
 Alpha  occ. eigenvalues --  -10.18598 -10.18555 -10.18540 -10.18536 -10.18529
 Alpha  occ. eigenvalues --  -10.18501 -10.18490 -10.18482 -10.18446 -10.18421
 Alpha  occ. eigenvalues --  -10.18349 -10.18348 -10.18302 -10.18245 -10.18205
 Alpha  occ. eigenvalues --  -10.18109 -10.18060 -10.18047 -10.18010 -10.17983
 Alpha  occ. eigenvalues --  -10.17942 -10.17916 -10.17833 -10.17802 -10.17793
 Alpha  occ. eigenvalues --  -10.17469 -10.17401 -10.17194  -0.88707  -0.85650
 Alpha  occ. eigenvalues --   -0.85063  -0.84747  -0.84184  -0.84107  -0.81687
 Alpha  occ. eigenvalues --   -0.78712  -0.77310  -0.76820  -0.75212  -0.74844
 Alpha  occ. eigenvalues --   -0.73957  -0.73878  -0.73842  -0.73704  -0.73455
 Alpha  occ. eigenvalues --   -0.73179  -0.72903  -0.69756  -0.69083  -0.67140
 Alpha  occ. eigenvalues --   -0.63238  -0.62931  -0.61585  -0.60360  -0.60018
 Alpha  occ. eigenvalues --   -0.59894  -0.59809  -0.59607  -0.58919  -0.58779
 Alpha  occ. eigenvalues --   -0.58318  -0.55914  -0.54642  -0.54329  -0.52580
 Alpha  occ. eigenvalues --   -0.51975  -0.51464  -0.51017  -0.49129  -0.48821
 Alpha  occ. eigenvalues --   -0.47185  -0.46829  -0.46433  -0.45885  -0.44959
 Alpha  occ. eigenvalues --   -0.44673  -0.44536  -0.44197  -0.44145  -0.44035
 Alpha  occ. eigenvalues --   -0.43789  -0.43510  -0.42795  -0.42571  -0.42301
 Alpha  occ. eigenvalues --   -0.41846  -0.41477  -0.41463  -0.41371  -0.41342
 Alpha  occ. eigenvalues --   -0.41098  -0.40900  -0.40111  -0.39347  -0.38910
 Alpha  occ. eigenvalues --   -0.37998  -0.37378  -0.37325  -0.37026  -0.36431
 Alpha  occ. eigenvalues --   -0.36136  -0.35700  -0.35424  -0.35168  -0.35044
 Alpha  occ. eigenvalues --   -0.34720  -0.34386  -0.34270  -0.34104  -0.33834
 Alpha  occ. eigenvalues --   -0.33700  -0.33661  -0.33380  -0.33347  -0.32916
 Alpha  occ. eigenvalues --   -0.32521  -0.31872  -0.30760  -0.28803  -0.27313
 Alpha  occ. eigenvalues --   -0.26357  -0.25082  -0.24971  -0.24605  -0.24269
 Alpha  occ. eigenvalues --   -0.24056  -0.23918  -0.23429  -0.23331  -0.21386
 Alpha  occ. eigenvalues --   -0.19541  -0.18544
 Alpha virt. eigenvalues --   -0.04870  -0.04113  -0.01162  -0.00442  -0.00413
 Alpha virt. eigenvalues --   -0.00131   0.00461   0.00961   0.01129   0.01201
 Alpha virt. eigenvalues --    0.01544   0.03882   0.05051   0.07904   0.09241

 Mulliken charges:
               1
     1  C   -0.501456
     2  C   -0.110646
     3  C   -0.150941
     4  C    0.105105
     5  C   -0.155551
     6  C   -0.292590
     7  C   -0.452804
     8  C   -0.203783
     9  C    0.103030
    10  C    0.060030
    11  C   -0.154146
    12  C    0.113270
    13  C   -0.168753
    14  C   -0.129205
    15  C   -0.123657
    16  C   -0.132758
    17  C   -0.172527
    18  C    0.082549
    19  C   -0.170902
    20  C   -0.133863
    21  C   -0.127085
    22  C   -0.126096
    23  C   -0.160231
    24  C   -0.009981
    25  C    0.075814
    26  C   -0.144108
    27  C   -0.136012
    28  C   -0.125635
    29  C   -0.135992
    30  C   -0.159538
    31  C   -0.019113
    32  C    0.073671
    33  C   -0.146603
    34  C   -0.136556
    35  C   -0.125797
    36  C   -0.143777
    37  C   -0.153315
    38  C    0.131119
    39  C   -0.167938
    40  C   -0.123203
    41  C   -0.126206
    42  C   -0.137015
    43  C   -0.177700
    44  H    0.158473
    45  H    0.146317
    46  H    0.176475
    47  H    0.121759
    48  H    0.123045
    49  H    0.120242
    50  H    0.154409
    51  H    0.157198
    52  H    0.145498
    53  H    0.143634
    54  H    0.148591
    55  H    0.142306
    56  H    0.127238
    57  H    0.125723
    58  H    0.125789
    59  H    0.136584
    60  H    0.138616
    61  H    0.128092
    62  H    0.127418
    63  H    0.129645
    64  H    0.133486
    65  H    0.140140
    66  H    0.129492
    67  H    0.127336
    68  H    0.129103
    69  H    0.140232
    70  H    0.138398
    71  H    0.129448
    72  H    0.127579
    73  H    0.127263
    74  H    0.144625
    75  H    0.133693
    76  H    0.125628
    77  H    0.123794
    78  H    0.124766
    79  H    0.138862
 Sum of Mulliken charges =  -0.00000

 Dipole moment (field-independent basis, Debye):
    X=             -0.2561    Y=              0.3363    Z=             -0.2937  Tot=              0.5147
 Quadrupole moment (field-independent basis, Debye-Ang):
   XX=           -234.6687   YY=           -232.6290   ZZ=           -238.9018
   XY=              0.5696   XZ=             -0.0010   YZ=             -2.6511

 Normal termination of Gaussian 16 at Sat Nov  5 10:12:19 2022.
