 Gaussian 16, Revision B.01,
 Gaussian 16:  ES64L-G16RevB.01 20-Dec-2017

 -------------------------------------------------------------------
 #p b3lyp/6-31g(d) 6D 10F nosymm GFInput td=(50-50,nstate=2) SCF=XQC
 -------------------------------------------------------------------

 ------------------------------
 Gaussian input prepared by ASE
 ------------------------------
 Symbolic Z-matrix:
 Charge =  0 Multiplicity = 1

                          Input orientation:
 ---------------------------------------------------------------------
 Center     Atomic      Atomic             Coordinates (Angstroms)
 Number     Number       Type             X           Y           Z
 ---------------------------------------------------------------------
      1          6           0       -4.727716   -2.663883   -1.879107
      2          6           0       -4.642960   -1.454116   -1.304288
      3          6           0       -5.898987   -0.721089   -0.867902
      4          6           0       -5.990679   -0.511485    0.652978
      5          6           0       -3.322453   -0.806048   -1.059996
      6          6           0       -3.159340    0.589752   -1.209109
      7          6           0       -1.933771    1.228864   -1.017451
      8          6           0       -0.838855    0.440222   -0.661456
      9          6           0       -0.979155   -0.952560   -0.495489
     10          6           0       -2.211928   -1.576077   -0.684406
     11          7           0        0.225333   -1.517962   -0.117275
     12          6           0        1.078657   -0.523510   -0.070347
     13          7           0        2.402099   -0.666669    0.273138
     14          6           0        3.120345   -1.848523    0.550299
     15          6           0        2.624837   -3.146464    0.360827
     16          6           0        3.443741   -4.241159    0.638495
     17          6           0        4.753946   -4.100426    1.108436
     18          6           0        5.608998   -5.302491    1.435269
     19          6           0        5.233163   -2.796330    1.289618
     20          6           0        4.436414   -1.690143    1.017670
     21          7           0        0.512139    0.731177   -0.380102
     22          6           0        1.113664    2.050145   -0.760595
     23          6           0        2.592165    2.211941   -0.339718
     24          6           0        1.059139    2.161803   -2.300406
     25          6           0        0.347271    3.168624   -0.024007
     26          6           0        0.075797    4.401535   -0.630716
     27          6           0       -0.545127    5.429430    0.083696
     28          6           0       -0.901068    5.243748    1.418604
     29          6           0       -0.631608    4.020012    2.034460
     30          6           0       -0.013277    2.995347    1.320026
     31          1           0       -5.687324   -3.151096   -2.032456
     32          1           0       -3.849215   -3.200627   -2.225563
     33          1           0       -6.773177   -1.285012   -1.213756
     34          1           0       -5.955368    0.257422   -1.365085
     35          1           0       -5.988407   -1.473307    1.178005
     36          1           0       -5.143677    0.074228    1.024911
     37          1           0       -6.913092    0.018507    0.917387
     38          1           0       -4.009998    1.198066   -1.500035
     39          1           0       -1.860611    2.303028   -1.135364
     40          1           0       -2.305068   -2.644241   -0.518410
     41          1           0        2.889831    0.173896    0.526398
     42          1           0        1.610406   -3.282078    0.013363
     43          1           0        3.039958   -5.239591    0.483256
     44          1           0        6.667983   -5.111650    1.227376
     45          1           0        5.305539   -6.179050    0.852768
     46          1           0        5.532806   -5.576517    2.496571
     47          1           0        6.248333   -2.640198    1.648424
     48          1           0        4.841173   -0.689433    1.162839
     49          1           0        2.896842    3.230964   -0.593319
     50          1           0        2.726473    2.110418    0.743287
     51          1           0        3.256094    1.528318   -0.877507
     52          1           0        1.558761    3.070008   -2.650623
     53          1           0        1.581696    1.304571   -2.736239
     54          1           0        0.033333    2.160337   -2.674983
     55          1           0        0.339116    4.572655   -1.669373
     56          1           0       -0.751611    6.375073   -0.410522
     57          1           0       -1.386897    6.041904    1.973036
     58          1           0       -0.908898    3.858408    3.072688
     59          1           0        0.174215    2.041335    1.803993
 ---------------------------------------------------------------------

 SCF Done:  E(RB3LYP) =  -1210.59974568     A.U. after   15 cycles

 Excitation energies and oscillator strengths:

 Excited state symmetry could not be determined.
 Excited State   1:      Triplet-?Sym    3.1923 eV  388.39 nm  f=0.0000  <S**2>=2.000
     104 ->110        -0.14007
     104 ->112         0.13651
     105 ->109         0.42113
     105 ->110         0.24707
     106 ->110        -0.39149
 This state for optimization and/or second-order correction.
 Total Energy, E(TD-HF/TD-DFT) =  -1210.48243170
 Copying the excited state density for this state as the 1-particle RhoCI density.

 Excited state symmetry could not be determined.
 Excited State   2:      Triplet-?Sym    3.3512 eV  369.97 nm  f=0.0000  <S**2>=2.000
     103 ->111         0.19799
     104 ->110         0.12927
     104 ->112         0.15104
     105 ->110        -0.16625
     106 ->108         0.11779
     106 ->109         0.56400
     106 ->112        -0.12699

 Excited state symmetry could not be determined.
 Excited State   3:      Singlet-?Sym    4.0592 eV  305.44 nm  f=0.0014  <S**2>=0.000
     106 ->107         0.70438

 Excited state symmetry could not be determined.
 Excited State   4:      Singlet-?Sym    4.1290 eV  300.27 nm  f=0.0392  <S**2>=0.000
     106 ->108         0.70161

 Alpha  occ. eigenvalues --  -14.38408 -14.37249 -14.29966 -10.28846 -10.26751
 Alpha  occ. eigenvalues --  -10.22853 -10.21109 -10.20898 -10.20803 -10.20016
 Alpha  occ. eigenvalues --  -10.19962 -10.19867 -10.19785 -10.19685 -10.19677
 Alpha  occ. eigenvalues --  -10.19231 -10.18483 -10.18347 -10.18324 -10.18163
 Alpha  occ. eigenvalues --  -10.18138 -10.18086 -10.17726 -10.17695 -10.17692
 Alpha  occ. eigenvalues --  -10.17484 -10.17065 -10.17055 -10.16532 -10.16163
 Alpha  occ. eigenvalues --   -1.01881  -0.94459  -0.89810  -0.85960  -0.84389
 Alpha  occ. eigenvalues --   -0.83431  -0.80713  -0.79118  -0.76219  -0.75361
 Alpha  occ. eigenvalues --   -0.74592  -0.73659  -0.73326  -0.71928  -0.71343
 Alpha  occ. eigenvalues --   -0.70247  -0.67886  -0.64917  -0.63036  -0.61541
 Alpha  occ. eigenvalues --   -0.61241  -0.60840  -0.59927  -0.58878  -0.57352
 Alpha  occ. eigenvalues --   -0.56108  -0.53887  -0.53341  -0.51748  -0.51428
 Alpha  occ. eigenvalues --   -0.49727  -0.47598  -0.46640  -0.46186  -0.45940
 Alpha  occ. eigenvalues --   -0.45751  -0.44903  -0.44859  -0.44106  -0.43446
 Alpha  occ. eigenvalues --   -0.43261  -0.42901  -0.42340  -0.42093  -0.41558
 Alpha  occ. eigenvalues --   -0.41375  -0.41083  -0.40979  -0.40768  -0.39973
 Alpha  occ. eigenvalues --   -0.38931  -0.38544  -0.37734  -0.37588  -0.37529
 Alpha  occ. eigenvalues --   -0.36591  -0.36248  -0.36023  -0.34989  -0.34808
 Alpha  occ. eigenvalues --   -0.34504  -0.34093  -0.33632  -0.33089  -0.32601
 Alpha  occ. eigenvalues --   -0.31655  -0.30107  -0.28659  -0.26185  -0.25890
 Alpha  occ. eigenvalues --   -0.25359  -0.25114  -0.24098  -0.22295  -0.20501
 Alpha  occ. eigenvalues --   -0.18195
 Alpha virt. eigenvalues --   -0.01339  -0.01186  -0.00745   0.00283   0.00804
 Alpha virt. eigenvalues --    0.02605   0.05939   0.06968   0.07716   0.08705
 Alpha virt. eigenvalues --    0.09727   0.10416   0.10909   0.11484   0.12429

 Mulliken charges:
               1
     1  C   -0.404862
     2  C    0.158698
     3  C   -0.329034
     4  C   -0.439598
     5  C    0.103687
     6  C   -0.213942
     7  C   -0.181085
     8  C    0.330511
     9  C    0.265329
    10  C   -0.253219
    11  N   -0.603741
    12  C    0.761258
    13  N   -0.818638
    14  C    0.359273
    15  C   -0.149063
    16  C   -0.201513
    17  C    0.183232
    18  C   -0.530045
    19  C   -0.184418
    20  C   -0.210550
    21  N   -0.632717
    22  C    0.137162
    23  C   -0.502595
    24  C   -0.458582
    25  C    0.136049
    26  C   -0.187510
    27  C   -0.131344
    28  C   -0.126539
    29  C   -0.129502
    30  C   -0.165220
    31  H    0.129007
    32  H    0.140013
    33  H    0.136743
    34  H    0.141079
    35  H    0.148539
    36  H    0.156894
    37  H    0.137870
    38  H    0.121189
    39  H    0.141640
    40  H    0.134874
    41  H    0.342066
    42  H    0.185520
    43  H    0.122220
    44  H    0.152313
    45  H    0.155019
    46  H    0.161695
    47  H    0.118274
    48  H    0.112815
    49  H    0.174323
    50  H    0.164849
    51  H    0.170132
    52  H    0.149899
    53  H    0.164915
    54  H    0.175322
    55  H    0.130854
    56  H    0.134212
    57  H    0.134581
    58  H    0.137443
    59  H    0.144215
 Sum of Mulliken charges =  -0.00000

 Dipole moment (field-independent basis, Debye):
    X=              2.3423    Y=              4.4117    Z=              0.1736  Tot=              4.9979
 Quadrupole moment (field-independent basis, Debye-Ang):
   XX=           -167.7329   YY=           -163.0444   ZZ=           -176.6737
   XY=             -0.3823   XZ=             -0.1834   YZ=             -2.2288

 Normal termination of Gaussian 16 at Sat Nov  5 10:10:56 2022.
