 Gaussian 16, Revision B.01,
 Gaussian 16:  ES64L-G16RevB.01 20-Dec-2017

 -----------------------------
 #p b3lyp/6-31g(d) opt SCF=XQC
 -----------------------------

 ------------------------------
 Gaussian input prepared by ASE
 ------------------------------
 Symbolic Z-matrix:
 Charge =  0 Multiplicity = 1

 SCF Done:  E(RB3LYP) =  -1210.58934141     A.U. after   15 cycles
 SCF Done:  E(RB3LYP) =  -1210.59432071     A.U. after   13 cycles
 SCF Done:  E(RB3LYP) =  -1210.59395085     A.U. after   12 cycles
 SCF Done:  E(RB3LYP) =  -1210.59702849     A.U. after   12 cycles
 SCF Done:  E(RB3LYP) =  -1210.59885931     A.U. after   12 cycles
 SCF Done:  E(RB3LYP) =  -1210.59899050     A.U. after   11 cycles
 SCF Done:  E(RB3LYP) =  -1210.59923520     A.U. after   11 cycles
 SCF Done:  E(RB3LYP) =  -1210.59931531     A.U. after   11 cycles
 SCF Done:  E(RB3LYP) =  -1210.59936252     A.U. after   11 cycles
 SCF Done:  E(RB3LYP) =  -1210.59941723     A.U. after   11 cycles
 SCF Done:  E(RB3LYP) =  -1210.59974412     A.U. after    7 cycles
 SCF Done:  E(RB3LYP) =  -1210.59974419     A.U. after    7 cycles
 SCF Done:  E(RB3LYP) =  -1210.59974429     A.U. after    7 cycles
 SCF Done:  E(RB3LYP) =  -1210.59974447     A.U. after    8 cycles
 SCF Done:  E(RB3LYP) =  -1210.59974468     A.U. after    8 cycles
 SCF Done:  E(RB3LYP) =  -1210.59974499     A.U. after    8 cycles
 SCF Done:  E(RB3LYP) =  -1210.59974532     A.U. after    8 cycles
 SCF Done:  E(RB3LYP) =  -1210.59974550     A.U. after    8 cycles
 SCF Done:  E(RB3LYP) =  -1210.59974554     A.U. after    6 cycles
 SCF Done:  E(RB3LYP) =  -1210.59974555     A.U. after    6 cycles
 Optimization completed.
    -- Stationary point found.

                         Standard orientation:
 ---------------------------------------------------------------------
 Center     Atomic      Atomic             Coordinates (Angstroms)
 Number     Number       Type             X           Y           Z
 ---------------------------------------------------------------------
      1          6           0        3.030249    4.858517   -0.857376
      2          6           0        3.481776    3.707038   -0.336456
      3          6           0        4.857711    3.639898    0.302025
      4          6           0        4.821263    3.334650    1.808980
      5          6           0        2.645309    2.472721   -0.350368
      6          6           0        3.227955    1.202393   -0.559866
      7          6           0        2.475576    0.028166   -0.608162
      8          6           0        1.094634    0.134309   -0.437093
      9          6           0        0.491609    1.388982   -0.215218
     10          6           0        1.257560    2.552948   -0.163298
     11          7           0       -0.874007    1.245946   -0.047444
     12          6           0       -1.109720   -0.037158   -0.179291
     13          7           0       -2.359952   -0.599728   -0.077264
     14          6           0       -3.605494    0.039686    0.093764
     15          6           0       -3.806613    1.425801    0.028065
     16          6           0       -5.094356    1.940487    0.179317
     17          6           0       -6.209156    1.124865    0.401279
     18          6           0       -7.588699    1.709232    0.596910
     19          6           0       -5.989857   -0.257672    0.461622
     20          6           0       -4.716072   -0.793783    0.311715
     21          7           0        0.047660   -0.810249   -0.411525
     22          6           0        0.251277   -2.203173   -0.925904
     23          6           0       -0.989408   -3.113991   -0.783098
     24          6           0        0.576336   -2.102012   -2.432742
     25          6           0        1.359581   -2.876788   -0.089947
     26          6           0        2.297308   -3.742580   -0.666952
     27          6           0        3.239301   -4.406652    0.123084
     28          6           0        3.256810   -4.220002    1.504390
     29          6           0        2.324081   -3.362172    2.090532
     30          6           0        1.385923   -2.699622    1.300866
     31          1           0        3.626454    5.766871   -0.823104
     32          1           0        2.061778    4.930848   -1.343915
     33          1           0        5.370402    4.594128    0.133419
     34          1           0        5.468534    2.876578   -0.200064
     35          1           0        4.260938    4.106948    2.347822
     36          1           0        4.338923    2.371998    2.007619
     37          1           0        5.835657    3.298777    2.222943
     38          1           0        4.300700    1.125323   -0.706774
     39          1           0        2.969082   -0.923438   -0.763030
     40          1           0        0.777155    3.503809    0.042314
     41          1           0       -2.390867   -1.593609    0.063506
     42          1           0       -2.959212    2.078524   -0.127037
     43          1           0       -5.228403    3.018877    0.123535
     44          1           0       -8.366132    1.048607    0.196585
     45          1           0       -7.685425    2.680548    0.099979
     46          1           0       -7.814565    1.865643    1.660761
     47          1           0       -6.829235   -0.929761    0.627251
     48          1           0       -4.580260   -1.873502    0.357365
     49          1           0       -0.701415   -4.116240   -1.111894
     50          1           0       -1.311410   -3.212262    0.259928
     51          1           0       -1.820899   -2.788303   -1.415481
     52          1           0        0.656429   -3.093186   -2.889107
     53          1           0       -0.236407   -1.568278   -2.935176
     54          1           0        1.504654   -1.556707   -2.615658
     55          1           0        2.308676   -3.904174   -1.739885
     56          1           0        3.961230   -5.068360   -0.348180
     57          1           0        3.991451   -4.733811    2.118214
     58          1           0        2.329465   -3.201916    3.165340
     59          1           0        0.677476   -2.020236    1.765683
 ---------------------------------------------------------------------

 The electronic state is 1-A.
 Alpha  occ. eigenvalues --  -14.38408 -14.37249 -14.29966 -10.28846 -10.26751
 Alpha  occ. eigenvalues --  -10.22853 -10.21109 -10.20898 -10.20803 -10.20016
 Alpha  occ. eigenvalues --  -10.19962 -10.19867 -10.19785 -10.19685 -10.19677
 Alpha  occ. eigenvalues --  -10.19231 -10.18483 -10.18347 -10.18323 -10.18163
 Alpha  occ. eigenvalues --  -10.18138 -10.18086 -10.17726 -10.17695 -10.17692
 Alpha  occ. eigenvalues --  -10.17484 -10.17065 -10.17055 -10.16532 -10.16163
 Alpha  occ. eigenvalues --   -1.01881  -0.94459  -0.89810  -0.85960  -0.84390
 Alpha  occ. eigenvalues --   -0.83431  -0.80713  -0.79118  -0.76219  -0.75361
 Alpha  occ. eigenvalues --   -0.74592  -0.73659  -0.73326  -0.71928  -0.71343
 Alpha  occ. eigenvalues --   -0.70247  -0.67886  -0.64917  -0.63036  -0.61541
 Alpha  occ. eigenvalues --   -0.61241  -0.60840  -0.59927  -0.58878  -0.57352
 Alpha  occ. eigenvalues --   -0.56108  -0.53887  -0.53341  -0.51748  -0.51428
 Alpha  occ. eigenvalues --   -0.49727  -0.47598  -0.46640  -0.46186  -0.45940
 Alpha  occ. eigenvalues --   -0.45751  -0.44903  -0.44859  -0.44106  -0.43446
 Alpha  occ. eigenvalues --   -0.43261  -0.42901  -0.42340  -0.42093  -0.41558
 Alpha  occ. eigenvalues --   -0.41375  -0.41083  -0.40979  -0.40768  -0.39973
 Alpha  occ. eigenvalues --   -0.38931  -0.38544  -0.37734  -0.37588  -0.37529
 Alpha  occ. eigenvalues --   -0.36591  -0.36248  -0.36023  -0.34989  -0.34808
 Alpha  occ. eigenvalues --   -0.34504  -0.34093  -0.33632  -0.33089  -0.32601
 Alpha  occ. eigenvalues --   -0.31655  -0.30107  -0.28659  -0.26185  -0.25890
 Alpha  occ. eigenvalues --   -0.25359  -0.25113  -0.24098  -0.22295  -0.20501
 Alpha  occ. eigenvalues --   -0.18195
 Alpha virt. eigenvalues --   -0.01339  -0.01186  -0.00745   0.00283   0.00804
 Alpha virt. eigenvalues --    0.02605   0.05939   0.06968   0.07716   0.08705
 Alpha virt. eigenvalues --    0.09727   0.10416   0.10909   0.11484   0.12429

 Mulliken charges:
               1
     1  C   -0.404863
     2  C    0.158691
     3  C   -0.329024
     4  C   -0.439601
     5  C    0.103698
     6  C   -0.213943
     7  C   -0.181082
     8  C    0.330518
     9  C    0.265311
    10  C   -0.253223
    11  N   -0.603759
    12  C    0.761285
    13  N   -0.818643
    14  C    0.359282
    15  C   -0.149068
    16  C   -0.201514
    17  C    0.183228
    18  C   -0.530045
    19  C   -0.184418
    20  C   -0.210549
    21  N   -0.632727
    22  C    0.137197
    23  C   -0.502605
    24  C   -0.458603
    25  C    0.136040
    26  C   -0.187521
    27  C   -0.131340
    28  C   -0.126532
    29  C   -0.129513
    30  C   -0.165208
    31  H    0.129007
    32  H    0.140013
    33  H    0.136741
    34  H    0.141077
    35  H    0.148539
    36  H    0.156895
    37  H    0.137870
    38  H    0.121188
    39  H    0.141641
    40  H    0.134875
    41  H    0.342070
    42  H    0.185524
    43  H    0.122220
    44  H    0.152314
    45  H    0.155019
    46  H    0.161696
    47  H    0.118274
    48  H    0.112816
    49  H    0.174324
    50  H    0.164850
    51  H    0.170131
    52  H    0.149903
    53  H    0.164919
    54  H    0.175325
    55  H    0.130855
    56  H    0.134212
    57  H    0.134580
    58  H    0.137443
    59  H    0.144209
 Sum of Mulliken charges =  -0.00000

 Dipole moment (field-independent basis, Debye):
    X=              0.1903    Y=             -4.9814    Z=             -0.3582  Tot=              4.9979
 Quadrupole moment (field-independent basis, Debye-Ang):
   XX=           -166.1105   YY=           -165.4148   ZZ=           -176.2589
   XY=             -2.8568   XZ=              0.2742   YZ=              2.6121

 1\1\GINC-NODE12\FOpt\RB3LYP\6-31G(d)\C27H29N3\WYKGROUP\05-Nov-2022\0\\
 #p b3lyp/6-31g(d) opt SCF=XQC\\Gaussian input prepared by ASE\\0,1\C,-
 4.727715617,-2.6638830155,-1.8791073375\C,-4.642960195,-1.4541159526,-
 1.3042882886\C,-5.8989866541,-0.721088824,-0.867901614\C,-5.9906794923
 ,-0.5114852138,0.6529784454\C,-3.3224533132,-0.8060480382,-1.059995771
 \C,-3.1593398048,0.5897522025,-1.2091090688\C,-1.9337711639,1.22886402
 6,-1.017450689\C,-0.8388545318,0.4402224861,-0.6614556456\C,-0.9791549
 353,-0.9525598162,-0.4954886967\C,-2.211928333,-1.5760773899,-0.684406

 Normal termination of Gaussian 16 at Sat Nov  5 00:31:38 2022.
