 Gaussian 16, Revision B.01,
 Gaussian 16:  ES64L-G16RevB.01 20-Dec-2017

 -------------------------------------------------------------------
 #p b3lyp/6-31g(d) 6D 10F nosymm GFInput td=(50-50,nstate=2) SCF=XQC
 -------------------------------------------------------------------

 ------------------------------
 Gaussian input prepared by ASE
 ------------------------------
 Symbolic Z-matrix:
 Charge =  0 Multiplicity = 1

                          Input orientation:
 ---------------------------------------------------------------------
 Center     Atomic      Atomic             Coordinates (Angstroms)
 Number     Number       Type             X           Y           Z
 ---------------------------------------------------------------------
      1          7           0        0.105747    1.713599    2.168652
      2          6           0       -0.129850    0.651685    1.755341
      3          6           0       -0.417167   -0.673722    1.285831
      4          6           0       -0.374582   -1.724407    2.217922
      5          6           0       -0.653273   -3.026940    1.819096
      6          6           0       -0.977210   -3.283376    0.486065
      7          6           0       -1.021287   -2.241837   -0.440078
      8          6           0       -0.742103   -0.920240   -0.070422
      9          6           0       -0.792142    0.193349   -1.071919
     10          6           0        0.386410    0.904366   -1.411375
     11          6           0        1.743960    0.501169   -0.936732
     12          6           0        2.244417   -0.794797   -1.187230
     13          6           0        3.531914   -1.155774   -0.815006
     14          6           0        4.364975   -0.226754   -0.173899
     15          6           0        3.858914    1.068215    0.075087
     16          6           0        2.567970    1.437684   -0.301322
     17         16           0        5.034362    2.102997    0.895242
     18          6           0        6.223985    0.795589    0.900535
     19          6           0        7.516879    0.862510    1.424392
     20          6           0        8.326352   -0.267970    1.346112
     21          6           0        7.852787   -1.449171    0.753746
     22          6           0        6.564846   -1.511394    0.233880
     23          6           0        5.729898   -0.385330    0.300265
     24          6           0        0.297251    2.010155   -2.269903
     25          6           0       -0.921005    2.402170   -2.814442
     26          6           0       -2.070906    1.674770   -2.520975
     27          6           0       -2.025725    0.574777   -1.653906
     28          6           0       -3.300247   -0.192845   -1.445236
     29          6           0       -3.625839   -1.158930   -2.404062
     30          6           0       -4.798955   -1.918012   -2.326435
     31          6           0       -5.689629   -1.721329   -1.278031
     32          6           0       -5.388179   -0.744521   -0.329115
     33         16           0       -6.417906   -0.343252    1.044567
     34          6           0       -5.291918    0.914280    1.556136
     35          6           0       -5.462500    1.742009    2.666907
     36          6           0       -4.488580    2.698118    2.940143
     37          6           0       -3.366626    2.824713    2.109746
     38          6           0       -3.205232    2.001084    1.000986
     39          6           0       -4.164983    1.017381    0.705048
     40          6           0       -4.210601    0.044837   -0.387361
     41          1           0       -0.124835   -1.502457    3.250436
     42          1           0       -0.619340   -3.834893    2.543808
     43          1           0       -1.196072   -4.297459    0.163390
     44          1           0       -1.273128   -2.453908   -1.473418
     45          1           0        1.613594   -1.516719   -1.695475
     46          1           0        3.895114   -2.157727   -1.027827
     47          1           0        2.186944    2.429120   -0.078080
     48          1           0        7.883971    1.775815    1.883543
     49          1           0        9.334769   -0.232540    1.748944
     50          1           0        8.498020   -2.321548    0.701474
     51          1           0        6.204036   -2.429088   -0.223178
     52          1           0        1.206917    2.543551   -2.529787
     53          1           0       -0.970849    3.257249   -3.482902
     54          1           0       -3.024507    1.957796   -2.957192
     55          1           0       -2.939714   -1.318860   -3.231510
     56          1           0       -5.012845   -2.661704   -3.088990
     57          1           0       -6.602658   -2.304684   -1.202860
     58          1           0       -6.336797    1.640718    3.303519
     59          1           0       -4.601423    3.348080    3.803469
     60          1           0       -2.603930    3.563425    2.335419
     61          1           0       -2.331494    2.120970    0.374180
 ---------------------------------------------------------------------

 SCF Done:  E(RB3LYP) =  -2273.76002459     A.U. after   16 cycles

 Excitation energies and oscillator strengths:

 Excited state symmetry could not be determined.
 Excited State   1:      Triplet-?Sym    3.0191 eV  410.67 nm  f=0.0000  <S**2>=2.000
     136 ->146        -0.10040
     139 ->143         0.55824
     139 ->144        -0.11731
     139 ->145         0.17679
     140 ->149         0.17412
     141 ->143         0.10172
 This state for optimization and/or second-order correction.
 Total Energy, E(TD-HF/TD-DFT) =  -2273.64907527
 Copying the excited state density for this state as the 1-particle RhoCI density.

 Excited state symmetry could not be determined.
 Excited State   2:      Triplet-?Sym    3.1390 eV  394.99 nm  f=0.0000  <S**2>=2.000
     131 ->154         0.10346
     138 ->142        -0.10394
     138 ->143        -0.15451
     138 ->144        -0.55642
     141 ->147        -0.11483
     141 ->148        -0.17331
     141 ->151         0.12434

 Excited state symmetry could not be determined.
 Excited State   3:      Singlet-?Sym    3.8374 eV  323.09 nm  f=0.0039  <S**2>=0.000
     141 ->142         0.70290

 Excited state symmetry could not be determined.
 Excited State   4:      Singlet-?Sym    3.9375 eV  314.88 nm  f=0.0068  <S**2>=0.000
     139 ->142         0.17654
     140 ->142         0.59228
     140 ->143        -0.31917

 Alpha  occ. eigenvalues --  -88.89865 -88.89861 -14.32907 -10.23508 -10.22556
 Alpha  occ. eigenvalues --  -10.22431 -10.22332 -10.22321 -10.22311 -10.22052
 Alpha  occ. eigenvalues --  -10.21457 -10.21369 -10.21154 -10.21079 -10.21004
 Alpha  occ. eigenvalues --  -10.20939 -10.20759 -10.20756 -10.20631 -10.20470
 Alpha  occ. eigenvalues --  -10.20213 -10.20177 -10.20040 -10.20011 -10.19868
 Alpha  occ. eigenvalues --  -10.19795 -10.19764 -10.19709 -10.19665 -10.19647
 Alpha  occ. eigenvalues --  -10.19642 -10.19622 -10.19481 -10.19409 -10.19322
 Alpha  occ. eigenvalues --  -10.19256 -10.19188 -10.18922 -10.18602 -10.18240
 Alpha  occ. eigenvalues --   -7.95985  -7.95961  -5.92434  -5.92415  -5.92087
 Alpha  occ. eigenvalues --   -5.92064  -5.91575  -5.91547  -0.90456  -0.89651
 Alpha  occ. eigenvalues --   -0.89589  -0.88189  -0.86544  -0.85286  -0.84604
 Alpha  occ. eigenvalues --   -0.81590  -0.80794  -0.79205  -0.78859  -0.77744
 Alpha  occ. eigenvalues --   -0.77458  -0.75973  -0.74992  -0.74643  -0.73325
 Alpha  occ. eigenvalues --   -0.71919  -0.71227  -0.70280  -0.69941  -0.65477
 Alpha  occ. eigenvalues --   -0.64528  -0.64110  -0.62937  -0.60989  -0.60522
 Alpha  occ. eigenvalues --   -0.59168  -0.58888  -0.58544  -0.58486  -0.58010
 Alpha  occ. eigenvalues --   -0.56278  -0.55206  -0.52096  -0.51766  -0.51291
 Alpha  occ. eigenvalues --   -0.49961  -0.49333  -0.48488  -0.48091  -0.48064
 Alpha  occ. eigenvalues --   -0.47675  -0.46418  -0.46125  -0.44996  -0.44832
 Alpha  occ. eigenvalues --   -0.44739  -0.44615  -0.43741  -0.43418  -0.43378
 Alpha  occ. eigenvalues --   -0.42666  -0.42360  -0.41975  -0.41573  -0.40825
 Alpha  occ. eigenvalues --   -0.40606  -0.39706  -0.39322  -0.38875  -0.38782
 Alpha  occ. eigenvalues --   -0.38206  -0.37772  -0.37040  -0.36818  -0.36216
 Alpha  occ. eigenvalues --   -0.35815  -0.35725  -0.35417  -0.35177  -0.34672
 Alpha  occ. eigenvalues --   -0.34427  -0.34161  -0.33923  -0.33612  -0.33087
 Alpha  occ. eigenvalues --   -0.32822  -0.32252  -0.31135  -0.30883  -0.28695
 Alpha  occ. eigenvalues --   -0.28400  -0.27364  -0.26305  -0.25843  -0.25585
 Alpha  occ. eigenvalues --   -0.25416  -0.24611  -0.22180  -0.21696  -0.21262
 Alpha  occ. eigenvalues --   -0.21060
 Alpha virt. eigenvalues --   -0.04969  -0.04552  -0.03361  -0.02362  -0.01277
 Alpha virt. eigenvalues --   -0.00721  -0.00509  -0.00210   0.00099   0.00556
 Alpha virt. eigenvalues --    0.01825   0.01961   0.03666   0.03934   0.04450

 Mulliken charges:
               1
     1  N   -0.519231
     2  C    0.259529
     3  C    0.133308
     4  C   -0.141942
     5  C   -0.130409
     6  C   -0.118262
     7  C   -0.166359
     8  C    0.059840
     9  C   -0.016651
    10  C    0.055886
    11  C    0.066474
    12  C   -0.171555
    13  C   -0.176381
    14  C    0.112414
    15  C   -0.149563
    16  C   -0.212679
    17  S    0.220797
    18  C   -0.144152
    19  C   -0.183596
    20  C   -0.113952
    21  C   -0.148006
    22  C   -0.164507
    23  C    0.106644
    24  C   -0.169745
    25  C   -0.125786
    26  C   -0.155108
    27  C   -0.000562
    28  C    0.013171
    29  C   -0.183840
    30  C   -0.118453
    31  C   -0.178786
    32  C   -0.148200
    33  S    0.206628
    34  C   -0.142198
    35  C   -0.185328
    36  C   -0.114482
    37  C   -0.145131
    38  C   -0.175429
    39  C    0.106564
    40  C    0.082243
    41  H    0.161142
    42  H    0.144576
    43  H    0.142581
    44  H    0.145158
    45  H    0.132195
    46  H    0.133213
    47  H    0.161167
    48  H    0.142976
    49  H    0.132965
    50  H    0.131397
    51  H    0.132387
    52  H    0.143333
    53  H    0.139248
    54  H    0.144591
    55  H    0.132946
    56  H    0.133183
    57  H    0.142382
    58  H    0.139204
    59  H    0.132927
    60  H    0.148183
    61  H    0.161038
 Sum of Mulliken charges =  -0.00000

 Dipole moment (field-independent basis, Debye):
    X=              0.2032    Y=             -3.6787    Z=             -1.9035  Tot=              4.1470
 Quadrupole moment (field-independent basis, Debye-Ang):
   XX=           -229.2322   YY=           -223.1367   ZZ=           -232.1788
   XY=             -1.7131   XZ=              3.7706   YZ=             -1.7874

 Normal termination of Gaussian 16 at Sat Nov  5 10:23:48 2022.
