 Gaussian 16, Revision B.01,
 Gaussian 16:  ES64L-G16RevB.01 20-Dec-2017

 -----------------------------
 #p b3lyp/6-31g(d) opt SCF=XQC
 -----------------------------

 ------------------------------
 Gaussian input prepared by ASE
 ------------------------------
 Symbolic Z-matrix:
 Charge =  0 Multiplicity = 1

 SCF Done:  E(RB3LYP) =  -2273.73960927     A.U. after   16 cycles
 SCF Done:  E(RB3LYP) =  -2273.75285387     A.U. after   14 cycles
 SCF Done:  E(RB3LYP) =  -2273.74857232     A.U. after   16 cycles
 SCF Done:  E(RB3LYP) =  -2273.75476510     A.U. after   14 cycles
 SCF Done:  E(RB3LYP) =  -2273.75865130     A.U. after   15 cycles
 SCF Done:  E(RB3LYP) =  -2273.75909825     A.U. after   13 cycles
 SCF Done:  E(RB3LYP) =  -2273.75959208     A.U. after   13 cycles
 SCF Done:  E(RB3LYP) =  -2273.75994994     A.U. after   12 cycles
 SCF Done:  E(RB3LYP) =  -2273.75995481     A.U. after   12 cycles
 SCF Done:  E(RB3LYP) =  -2273.76001688     A.U. after   12 cycles
 SCF Done:  E(RB3LYP) =  -2273.76002371     A.U. after   10 cycles
 SCF Done:  E(RB3LYP) =  -2273.76002466     A.U. after    8 cycles
 SCF Done:  E(RB3LYP) =  -2273.76002485     A.U. after    7 cycles
 Optimization completed.
    -- Stationary point found.

                         Standard orientation:
 ---------------------------------------------------------------------
 Center     Atomic      Atomic             Coordinates (Angstroms)
 Number     Number       Type             X           Y           Z
 ---------------------------------------------------------------------
      1          7           0        0.272553   -2.437563   -0.733817
      2          6           0        0.022609   -1.336397   -1.014804
      3          6           0       -0.281281    0.011376   -1.403199
      4          6           0       -0.214400    0.332148   -2.769646
      5          6           0       -0.507578    1.620616   -3.202335
      6          6           0       -0.870371    2.593229   -2.269559
      7          6           0       -0.938596    2.276465   -0.913279
      8          6           0       -0.645718    0.989274   -0.445765
      9          6           0       -0.721899    0.657057    1.013485
     10          6           0        0.448094    0.294310    1.727133
     11          6           0        1.817775    0.374831    1.136976
     12          6           0        2.307705    1.586817    0.604252
     13          6           0        3.604514    1.690667    0.120514
     14          6           0        4.457912    0.577651    0.152066
     15          6           0        3.962335   -0.632752    0.685325
     16          6           0        2.661979   -0.741184    1.177305
     17         16           0        5.163384   -1.929083    0.639379
     18          6           0        6.349528   -0.842562   -0.093478
     19          6           0        7.657124   -1.175485   -0.453803
     20          6           0        8.461296   -0.192258   -1.024707
     21          6           0        7.968043    1.105211   -1.233689
     22          6           0        6.665524    1.432088   -0.873800
     23          6           0        5.835536    0.458857   -0.296301
     24          6           0        0.336907   -0.114768    3.064324
     25          6           0       -0.895578   -0.143235    3.708155
     26          6           0       -2.038293    0.259958    3.023217
     27          6           0       -1.970807    0.658558    1.681428
     28          6           0       -3.240630    1.141211    1.039720
     29          6           0       -3.596006    2.477266    1.257312
     30          6           0       -4.768217    3.030451    0.729733
     31          6           0       -5.627866    2.248310   -0.032105
     32          6           0       -5.296881    0.908771   -0.235951
     33         16           0       -6.285670   -0.230703   -1.148229
     34          6           0       -5.142409   -1.531748   -0.814797
     35          6           0       -5.278958   -2.851738   -1.247263
     36          6           0       -4.295286   -3.771967   -0.896703
     37          6           0       -3.197403   -3.375285   -0.121034
     38          6           0       -3.069971   -2.059974    0.311955
     39          6           0       -4.040200   -1.103851   -0.035695
     40          6           0       -4.119579    0.319765    0.293389
     41          1           0        0.065500   -0.440265   -3.478698
     42          1           0       -0.454733    1.862713   -4.259568
     43          1           0       -1.100864    3.603350   -2.596536
     44          1           0       -1.220589    3.041251   -0.197897
     45          1           0        1.660782    2.457827    0.588304
     46          1           0        3.959034    2.638303   -0.276244
     47          1           0        2.289916   -1.686580    1.559091
     48          1           0        8.039472   -2.179325   -0.293122
     49          1           0        9.480974   -0.434915   -1.310728
     50          1           0        8.609411    1.859643   -1.680433
     51          1           0        6.289507    2.438420   -1.038584
     52          1           0        1.239990   -0.383404    3.604526
     53          1           0       -0.962595   -0.456568    4.746334
     54          1           0       -3.003376    0.262885    3.521565
     55          1           0       -2.934372    3.098090    1.855503
     56          1           0       -5.005754    4.073737    0.918005
     57          1           0       -6.539748    2.664266   -0.450466
     58          1           0       -6.134806   -3.152650   -1.844679
     59          1           0       -4.381669   -4.802947   -1.228567
     60          1           0       -2.426758   -4.094490    0.138155
     61          1           0       -2.214356   -1.779913    0.912091
 ---------------------------------------------------------------------

 The electronic state is 1-A.
 Alpha  occ. eigenvalues --  -88.89865 -88.89861 -14.32907 -10.23509 -10.22556
 Alpha  occ. eigenvalues --  -10.22431 -10.22332 -10.22321 -10.22311 -10.22052
 Alpha  occ. eigenvalues --  -10.21457 -10.21369 -10.21154 -10.21079 -10.21005
 Alpha  occ. eigenvalues --  -10.20939 -10.20759 -10.20756 -10.20631 -10.20470
 Alpha  occ. eigenvalues --  -10.20213 -10.20177 -10.20040 -10.20011 -10.19868
 Alpha  occ. eigenvalues --  -10.19795 -10.19764 -10.19709 -10.19665 -10.19647
 Alpha  occ. eigenvalues --  -10.19642 -10.19622 -10.19481 -10.19409 -10.19323
 Alpha  occ. eigenvalues --  -10.19256 -10.19188 -10.18922 -10.18603 -10.18240
 Alpha  occ. eigenvalues --   -7.95985  -7.95961  -5.92434  -5.92414  -5.92087
 Alpha  occ. eigenvalues --   -5.92064  -5.91575  -5.91547  -0.90456  -0.89651
 Alpha  occ. eigenvalues --   -0.89589  -0.88189  -0.86544  -0.85286  -0.84605
 Alpha  occ. eigenvalues --   -0.81590  -0.80794  -0.79205  -0.78859  -0.77744
 Alpha  occ. eigenvalues --   -0.77458  -0.75973  -0.74992  -0.74643  -0.73325
 Alpha  occ. eigenvalues --   -0.71919  -0.71227  -0.70279  -0.69941  -0.65477
 Alpha  occ. eigenvalues --   -0.64527  -0.64110  -0.62937  -0.60989  -0.60522
 Alpha  occ. eigenvalues --   -0.59168  -0.58888  -0.58544  -0.58486  -0.58010
 Alpha  occ. eigenvalues --   -0.56278  -0.55207  -0.52096  -0.51766  -0.51291
 Alpha  occ. eigenvalues --   -0.49961  -0.49333  -0.48488  -0.48091  -0.48064
 Alpha  occ. eigenvalues --   -0.47675  -0.46418  -0.46125  -0.44996  -0.44832
 Alpha  occ. eigenvalues --   -0.44739  -0.44615  -0.43741  -0.43418  -0.43378
 Alpha  occ. eigenvalues --   -0.42666  -0.42360  -0.41975  -0.41573  -0.40825
 Alpha  occ. eigenvalues --   -0.40606  -0.39706  -0.39322  -0.38875  -0.38782
 Alpha  occ. eigenvalues --   -0.38206  -0.37773  -0.37040  -0.36818  -0.36216
 Alpha  occ. eigenvalues --   -0.35815  -0.35725  -0.35417  -0.35177  -0.34672
 Alpha  occ. eigenvalues --   -0.34427  -0.34161  -0.33923  -0.33612  -0.33087
 Alpha  occ. eigenvalues --   -0.32822  -0.32252  -0.31135  -0.30883  -0.28695
 Alpha  occ. eigenvalues --   -0.28400  -0.27364  -0.26305  -0.25843  -0.25585
 Alpha  occ. eigenvalues --   -0.25416  -0.24611  -0.22180  -0.21696  -0.21262
 Alpha  occ. eigenvalues --   -0.21060
 Alpha virt. eigenvalues --   -0.04969  -0.04552  -0.03361  -0.02362  -0.01277
 Alpha virt. eigenvalues --   -0.00721  -0.00509  -0.00210   0.00099   0.00556
 Alpha virt. eigenvalues --    0.01825   0.01961   0.03666   0.03934   0.04450

 Mulliken charges:
               1
     1  N   -0.519244
     2  C    0.259547
     3  C    0.133286
     4  C   -0.141937
     5  C   -0.130406
     6  C   -0.118269
     7  C   -0.166365
     8  C    0.059847
     9  C   -0.016635
    10  C    0.055870
    11  C    0.066492
    12  C   -0.171567
    13  C   -0.176371
    14  C    0.112427
    15  C   -0.149584
    16  C   -0.212674
    17  S    0.220800
    18  C   -0.144129
    19  C   -0.183600
    20  C   -0.113956
    21  C   -0.147994
    22  C   -0.164518
    23  C    0.106624
    24  C   -0.169746
    25  C   -0.125780
    26  C   -0.155116
    27  C   -0.000576
    28  C    0.013172
    29  C   -0.183838
    30  C   -0.118454
    31  C   -0.178790
    32  C   -0.148199
    33  S    0.206623
    34  C   -0.142208
    35  C   -0.185329
    36  C   -0.114477
    37  C   -0.145148
    38  C   -0.175412
    39  C    0.106565
    40  C    0.082261
    41  H    0.161142
    42  H    0.144576
    43  H    0.142582
    44  H    0.145157
    45  H    0.132198
    46  H    0.133212
    47  H    0.161166
    48  H    0.142977
    49  H    0.132965
    50  H    0.131396
    51  H    0.132388
    52  H    0.143334
    53  H    0.139248
    54  H    0.144592
    55  H    0.132948
    56  H    0.133184
    57  H    0.142382
    58  H    0.139204
    59  H    0.132928
    60  H    0.148186
    61  H    0.161041
 Sum of Mulliken charges =  -0.00000

 Dipole moment (field-independent basis, Debye):
    X=              0.1394    Y=              4.1058    Z=             -0.5659  Tot=              4.1470
 Quadrupole moment (field-independent basis, Debye-Ang):
   XX=           -228.9986   YY=           -226.1298   ZZ=           -227.7088
   XY=             -0.2521   XZ=             -4.0620   YZ=             -4.8863

 Normal termination of Gaussian 16 at Sat Nov  5 00:01:38 2022.
