 Gaussian 16, Revision B.01,
 Gaussian 16:  ES64L-G16RevB.01 20-Dec-2017

 -------------------------------------------------------------------
 #p b3lyp/6-31g(d) 6D 10F nosymm GFInput td=(50-50,nstate=2) SCF=XQC
 -------------------------------------------------------------------

 ------------------------------
 Gaussian input prepared by ASE
 ------------------------------
 Symbolic Z-matrix:
 Charge =  0 Multiplicity = 1

                          Input orientation:
 ---------------------------------------------------------------------
 Center     Atomic      Atomic             Coordinates (Angstroms)
 Number     Number       Type             X           Y           Z
 ---------------------------------------------------------------------
      1          6           0        3.795531    2.443325   -1.349464
      2          6           0        3.853196    2.458227    0.194668
      3          6           0        2.452248    2.387509    0.830698
      4          6           0        1.817963    1.014521    0.719335
      5          6           0        0.359849    0.858664    0.585707
      6          6           0       -0.312321   -0.262483    1.118491
      7          6           0       -1.682686   -0.429484    0.974989
      8          6           0       -2.468602    0.525533    0.305186
      9          6           0       -3.932367    0.351496    0.162364
     10          6           0       -4.507415   -0.918497    0.023181
     11          6           0       -5.894716   -1.037472   -0.116080
     12          6           0       -6.532634   -2.376545   -0.268373
     13          6           0       -7.928864   -2.496698   -0.342322
     14          6           0       -8.484129   -3.764819   -0.481115
     15          6           0       -7.637784   -4.872297   -0.542617
     16          6           0       -6.262174   -4.651462   -0.457944
     17          7           0       -5.712851   -3.441941   -0.323668
     18          7           0       -6.717922    0.023889   -0.122014
     19          6           0       -6.181920    1.240894    0.012091
     20          6           0       -7.162947    2.428832    0.070039
     21          6           0       -7.737901    2.580731    1.466352
     22          6           0       -9.015072    2.265978    1.751662
     23          6           0       -9.938876    1.861082    0.714512
     24          6           0       -9.507504    1.922152   -0.568988
     25          7           0       -8.241962    2.322347   -0.918787
     26          6           0       -7.834869    2.366475   -2.307796
     27          6           0       -4.808494    1.449309    0.151159
     28          6           0       -1.810285    1.651600   -0.214316
     29          6           0       -0.435790    1.814085   -0.077821
     30          6           0        2.664705   -0.041270    0.823650
     31          6           0        4.101558    0.102180    0.967945
     32          6           0        4.715433    1.306148    0.690352
     33          7           0        6.094314    1.460841    0.738202
     34          6           0        6.732461    2.762178    0.592869
     35          6           0        7.038512    0.317419    0.662652
     36          6           0        7.637507    0.124055   -0.737267
     37          6           0        8.983015    0.418062   -0.976514
     38          6           0        9.530403    0.267593   -2.252676
     39          6           0        8.729692   -0.176233   -3.305073
     40          6           0        7.383319   -0.473292   -3.074888
     41          6           0        6.841226   -0.327270   -1.798901
     42          6           0        6.317301   -0.878643    1.181184
     43          8           0        7.020666   -1.990121    1.568831
     44          6           0        6.069913   -2.891332    1.984103
     45          6           0        6.331956   -4.163694    2.472413
     46          6           0        5.228724   -4.923619    2.860620
     47          6           0        3.923894   -4.409500    2.762547
     48          6           0        3.683365   -3.128977    2.269689
     49          6           0        4.774185   -2.345833    1.861439
     50          6           0        4.971603   -1.011810    1.318530
     51          1           0        4.798294    2.466264   -1.789118
     52          1           0        3.289860    1.540381   -1.706371
     53          1           0        3.242147    3.315170   -1.719174
     54          1           0        4.286274    3.414601    0.501953
     55          1           0        2.541358    2.638116    1.900881
     56          1           0        1.825887    3.169197    0.389643
     57          1           0        0.249530   -0.997547    1.686922
     58          1           0       -2.161005   -1.294530    1.425640
     59          1           0       -3.902546   -1.816326   -0.008205
     60          1           0       -8.538104   -1.602320   -0.284359
     61          1           0       -9.562626   -3.887815   -0.538728
     62          1           0       -8.027746   -5.880042   -0.650901
     63          1           0       -5.566562   -5.488680   -0.499927
     64          1           0       -6.572272    3.327297   -0.184168
     65          1           0       -7.045587    2.908396    2.236770
     66          1           0       -9.372382    2.350691    2.775845
     67          1           0      -10.958997    1.575890    0.939626
     68          1           0      -10.159161    1.699241   -1.409422
     69          1           0       -7.239303    3.270579   -2.495916
     70          1           0       -7.229329    1.494294   -2.593038
     71          1           0       -8.718418    2.402420   -2.950904
     72          1           0       -4.426871    2.459300    0.273906
     73          1           0       -2.376857    2.397333   -0.765408
     74          1           0        0.029099    2.685454   -0.528702
     75          1           0        2.275962   -1.054169    0.770438
     76          1           0        7.740581    2.700663    1.014447
     77          1           0        6.189359    3.527349    1.151926
     78          1           0        6.829101    3.087148   -0.452355
     79          1           0        7.875853    0.551606    1.338127
     80          1           0        9.610904    0.760638   -0.156007
     81          1           0       10.579692    0.494591   -2.422215
     82          1           0        9.151785   -0.294999   -4.299411
     83          1           0        6.756916   -0.825542   -3.890212
     84          1           0        5.797683   -0.571569   -1.620054
     85          1           0        7.347712   -4.538129    2.546567
     86          1           0        5.382077   -5.926688    3.248265
     87          1           0        3.085947   -5.023569    3.080627
     88          1           0        2.669296   -2.746531    2.216072
 ---------------------------------------------------------------------

 SCF Done:  E(RB3LYP) =  -2031.86434664     A.U. after   15 cycles

 Excitation energies and oscillator strengths:

 Excited state symmetry could not be determined.
 Excited State   1:      Triplet-?Sym    1.7316 eV  716.02 nm  f=0.0000  <S**2>=2.000
     171 ->173         0.49019
     171 ->174        -0.35224
     171 ->175         0.23341
     171 ->176        -0.13829
     171 ->181         0.13879
 This state for optimization and/or second-order correction.
 Total Energy, E(TD-HF/TD-DFT) =  -2031.80071263
 Copying the excited state density for this state as the 1-particle RhoCI density.

 Excited state symmetry could not be determined.
 Excited State   2:      Triplet-?Sym    2.1658 eV  572.48 nm  f=0.0000  <S**2>=2.000
     172 ->173         0.14770
     172 ->174        -0.22763
     172 ->175        -0.21702
     172 ->176         0.22193
     172 ->178         0.33474
     172 ->180         0.17483
     172 ->181         0.34830
     172 ->183         0.17992

 Excited state symmetry could not be determined.
 Excited State   3:      Singlet-?Sym    2.3637 eV  524.54 nm  f=0.0025  <S**2>=0.000
     172 ->173         0.68483
     172 ->174         0.12128

 Excited state symmetry could not be determined.
 Excited State   4:      Singlet-?Sym    2.6769 eV  463.15 nm  f=0.5149  <S**2>=0.000
     171 ->173         0.69380

 Alpha  occ. eigenvalues --  -19.20858 -14.37232 -14.34851 -14.32290 -14.31664
 Alpha  occ. eigenvalues --  -10.24974 -10.23915 -10.23823 -10.23037 -10.22730
 Alpha  occ. eigenvalues --  -10.22385 -10.22082 -10.21934 -10.21695 -10.21496
 Alpha  occ. eigenvalues --  -10.21129 -10.20757 -10.20684 -10.20365 -10.20085
 Alpha  occ. eigenvalues --  -10.20022 -10.19681 -10.19616 -10.19603 -10.19565
 Alpha  occ. eigenvalues --  -10.19510 -10.19427 -10.19381 -10.19358 -10.19316
 Alpha  occ. eigenvalues --  -10.19106 -10.18974 -10.18970 -10.18834 -10.18779
 Alpha  occ. eigenvalues --  -10.18763 -10.18751 -10.18622 -10.18593 -10.18505
 Alpha  occ. eigenvalues --  -10.18455 -10.18365 -10.18304 -10.18218 -10.18138
 Alpha  occ. eigenvalues --  -10.18097 -10.18041 -10.17048 -10.16473 -10.14948
 Alpha  occ. eigenvalues --   -1.10393  -0.96240  -0.95058  -0.93884  -0.92272
 Alpha  occ. eigenvalues --   -0.86324  -0.85922  -0.85211  -0.84184  -0.81805
 Alpha  occ. eigenvalues --   -0.80850  -0.79604  -0.79239  -0.78346  -0.78236
 Alpha  occ. eigenvalues --   -0.76779  -0.75687  -0.75365  -0.74934  -0.74380
 Alpha  occ. eigenvalues --   -0.74203  -0.73204  -0.72201  -0.72156  -0.70523
 Alpha  occ. eigenvalues --   -0.69527  -0.68712  -0.66117  -0.64632  -0.64099
 Alpha  occ. eigenvalues --   -0.63074  -0.62366  -0.61842  -0.61472  -0.61010
 Alpha  occ. eigenvalues --   -0.60326  -0.59650  -0.59168  -0.58804  -0.58407
 Alpha  occ. eigenvalues --   -0.57613  -0.56827  -0.54415  -0.53208  -0.52695
 Alpha  occ. eigenvalues --   -0.52273  -0.51152  -0.50894  -0.50155  -0.49545
 Alpha  occ. eigenvalues --   -0.48944  -0.48375  -0.47913  -0.47233  -0.46940
 Alpha  occ. eigenvalues --   -0.46800  -0.46349  -0.46261  -0.46149  -0.45789
 Alpha  occ. eigenvalues --   -0.45428  -0.45082  -0.44776  -0.44561  -0.44459
 Alpha  occ. eigenvalues --   -0.44200  -0.43527  -0.43460  -0.42754  -0.42524
 Alpha  occ. eigenvalues --   -0.42407  -0.42149  -0.42056  -0.41663  -0.41106
 Alpha  occ. eigenvalues --   -0.40926  -0.40827  -0.40454  -0.40286  -0.39937
 Alpha  occ. eigenvalues --   -0.39735  -0.39506  -0.39162  -0.38640  -0.37807
 Alpha  occ. eigenvalues --   -0.37565  -0.37055  -0.36998  -0.36619  -0.36413
 Alpha  occ. eigenvalues --   -0.36156  -0.35822  -0.35724  -0.35300  -0.34906
 Alpha  occ. eigenvalues --   -0.34692  -0.34671  -0.34496  -0.34046  -0.33431
 Alpha  occ. eigenvalues --   -0.33259  -0.32894  -0.32663  -0.31597  -0.31221
 Alpha  occ. eigenvalues --   -0.29773  -0.28462  -0.28271  -0.27074  -0.26464
 Alpha  occ. eigenvalues --   -0.25804  -0.25574  -0.25461  -0.25290  -0.24781
 Alpha  occ. eigenvalues --   -0.24109  -0.23693  -0.23056  -0.22595  -0.21303
 Alpha  occ. eigenvalues --   -0.16066  -0.15808
 Alpha virt. eigenvalues --   -0.05075  -0.03725  -0.02560  -0.01342  -0.00913
 Alpha virt. eigenvalues --   -0.00602  -0.00263   0.00251   0.00859   0.01634
 Alpha virt. eigenvalues --    0.02906   0.04055   0.06205   0.07054   0.08384

 Mulliken charges:
               1
     1  C   -0.450870
     2  C   -0.162230
     3  C   -0.337826
     4  C    0.058324
     5  C    0.126808
     6  C   -0.188625
     7  C   -0.178784
     8  C    0.092767
     9  C    0.130150
    10  C   -0.217875
    11  C    0.260379
    12  C    0.251017
    13  C   -0.156065
    14  C   -0.105041
    15  C   -0.143185
    16  C    0.042215
    17  N   -0.491434
    18  N   -0.548668
    19  C    0.314324
    20  C   -0.050521
    21  C   -0.162219
    22  C   -0.087962
    23  C   -0.205939
    24  C    0.095012
    25  N   -0.392949
    26  C   -0.308732
    27  C   -0.239387
    28  C   -0.177609
    29  C   -0.201704
    30  C   -0.221760
    31  C    0.054517
    32  C    0.283731
    33  N   -0.479498
    34  C   -0.316255
    35  C   -0.146745
    36  C    0.200532
    37  C   -0.194919
    38  C   -0.128434
    39  C   -0.127237
    40  C   -0.131455
    41  C   -0.182045
    42  C    0.247760
    43  O   -0.534975
    44  C    0.309686
    45  C   -0.198057
    46  C   -0.141382
    47  C   -0.144955
    48  C   -0.201695
    49  C    0.078165
    50  C    0.028312
    51  H    0.153437
    52  H    0.167236
    53  H    0.141969
    54  H    0.131602
    55  H    0.153138
    56  H    0.140663
    57  H    0.131389
    58  H    0.139617
    59  H    0.166998
    60  H    0.176933
    61  H    0.141111
    62  H    0.135655
    63  H    0.136879
    64  H    0.123444
    65  H    0.122411
    66  H    0.119330
    67  H    0.113430
    68  H    0.131895
    69  H    0.149051
    70  H    0.164756
    71  H    0.155348
    72  H    0.131552
    73  H    0.128295
    74  H    0.125796
    75  H    0.134721
    76  H    0.159212
    77  H    0.170417
    78  H    0.166111
    79  H    0.152970
    80  H    0.125942
    81  H    0.132366
    82  H    0.133063
    83  H    0.135349
    84  H    0.151516
    85  H    0.143035
    86  H    0.129856
    87  H    0.127944
    88  H    0.138903
 Sum of Mulliken charges =  -0.00000

 Dipole moment (field-independent basis, Debye):
    X=              3.6214    Y=              1.8935    Z=             -2.1498  Tot=              4.6175
 Quadrupole moment (field-independent basis, Debye-Ang):
   XX=           -256.7520   YY=           -265.9940   ZZ=           -283.4569
   XY=             25.1676   XZ=              8.0509   YZ=             -4.4877

 Normal termination of Gaussian 16 at Sat Nov  5 10:22:48 2022.
