 Gaussian 16, Revision B.01,
 Gaussian 16:  ES64L-G16RevB.01 20-Dec-2017

 -----------------------------
 #p b3lyp/6-31g(d) opt SCF=XQC
 -----------------------------

 ------------------------------
 Gaussian input prepared by ASE
 ------------------------------
 Symbolic Z-matrix:
 Charge =  0 Multiplicity = 1

 SCF Done:  E(RB3LYP) =  -2031.85122124     A.U. after   16 cycles
 SCF Done:  E(RB3LYP) =  -2031.86300497     A.U. after   13 cycles
 SCF Done:  E(RB3LYP) =  -2031.86383285     A.U. after   11 cycles
 SCF Done:  E(RB3LYP) =  -2031.86408432     A.U. after   12 cycles
 SCF Done:  E(RB3LYP) =  -2031.86418082     A.U. after   11 cycles
 SCF Done:  E(RB3LYP) =  -2031.86426403     A.U. after   12 cycles
 SCF Done:  E(RB3LYP) =  -2031.86431735     A.U. after   11 cycles
 SCF Done:  E(RB3LYP) =  -2031.86434021     A.U. after   11 cycles
 SCF Done:  E(RB3LYP) =  -2031.86435307     A.U. after   10 cycles
 SCF Done:  E(RB3LYP) =  -2031.86435552     A.U. after    9 cycles
 SCF Done:  E(RB3LYP) =  -2031.86435637     A.U. after    8 cycles
 SCF Done:  E(RB3LYP) =  -2031.86435701     A.U. after    9 cycles
 SCF Done:  E(RB3LYP) =  -2031.86435724     A.U. after    7 cycles
 SCF Done:  E(RB3LYP) =  -2031.86435749     A.U. after    7 cycles
 SCF Done:  E(RB3LYP) =  -2031.86435762     A.U. after    7 cycles
 SCF Done:  E(RB3LYP) =  -2031.86435767     A.U. after    7 cycles
 SCF Done:  E(RB3LYP) =  -2031.86435768     A.U. after    6 cycles
 Optimization completed.
    -- Stationary point found.

                         Standard orientation:
 ---------------------------------------------------------------------
 Center     Atomic      Atomic             Coordinates (Angstroms)
 Number     Number       Type             X           Y           Z
 ---------------------------------------------------------------------
      1          6           0        3.674324   -3.063124    0.911198
      2          6           0        3.758631   -2.712324   -0.591374
      3          6           0        2.372262   -2.440804   -1.204926
      4          6           0        1.782566   -1.111355   -0.775228
      5          6           0        0.328380   -0.938217   -0.621572
      6          6           0       -0.296288    0.301450   -0.877805
      7          6           0       -1.662588    0.479826   -0.711103
      8          6           0       -2.491792   -0.577542   -0.295470
      9          6           0       -3.951177   -0.388739   -0.128601
     10          6           0       -4.485626    0.831946    0.304098
     11          6           0       -5.870387    0.965340    0.455077
     12          6           0       -6.465573    2.252267    0.916405
     13          6           0       -7.858067    2.402673    1.004157
     14          6           0       -8.372803    3.620905    1.436211
     15          6           0       -7.490968    4.650030    1.767663
     16          6           0       -6.122271    4.405213    1.645305
     17          7           0       -5.611584    3.243002    1.231554
     18          7           0       -6.728738   -0.035920    0.200319
     19          6           0       -6.231618   -1.204947   -0.215172
     20          6           0       -7.250801   -2.308054   -0.563580
     21          6           0       -7.805858   -2.102110   -1.961018
     22          6           0       -9.066522   -1.681733   -2.174673
     23          6           0       -9.994328   -1.501515   -1.079350
     24          6           0       -9.587912   -1.882039    0.156454
     25          7           0       -8.342874   -2.400260    0.412261
     26          6           0       -7.962009   -2.788550    1.754346
     27          6           0       -4.863727   -1.424685   -0.387413
     28          6           0       -1.880899   -1.818315   -0.053435
     29          6           0       -0.510444   -1.994126   -0.212217
     30          6           0        2.665981   -0.092959   -0.617125
     31          6           0        4.099525   -0.250735   -0.778377
     32          6           0        4.667652   -1.507926   -0.790240
     33          7           0        6.041192   -1.697426   -0.861041
     34          6           0        6.632633   -3.018549   -1.024337
     35          6           0        7.021768   -0.640359   -0.506487
     36          6           0        7.602178   -0.807799    0.904557
     37          6           0        8.932637   -1.199596    1.079047
     38          6           0        9.462216   -1.377326    2.359212
     39          6           0        8.658453   -1.167480    3.479743
     40          6           0        7.327073   -0.774846    3.314773
     41          6           0        6.802931   -0.593035    2.035886
     42          6           0        6.350359    0.670435   -0.731466
     43          8           0        7.097357    1.815567   -0.836541
     44          6           0        6.184854    2.824061   -1.033624
     45          6           0        6.498021    4.165535   -1.202116
     46          6           0        5.427929    5.036071   -1.407986
     47          6           0        4.105050    4.561757   -1.447185
     48          6           0        3.813027    3.210489   -1.276025
     49          6           0        4.869585    2.313105   -1.056341
     50          6           0        5.012516    0.881884   -0.845344
     51          1           0        4.667856   -3.226895    1.341813
     52          1           0        3.193046   -2.253048    1.468461
     53          1           0        3.085558   -3.976924    1.057348
     54          1           0        4.164701   -3.583393   -1.113845
     55          1           0        2.471736   -2.432696   -2.303141
     56          1           0        1.712344   -3.281388   -0.968662
     57          1           0        0.299844    1.129461   -1.249469
     58          1           0       -2.103588    1.444250   -0.946866
     59          1           0       -3.851602    1.673640    0.554125
     60          1           0       -8.495875    1.570812    0.729103
     61          1           0       -9.447409    3.766264    1.511669
     62          1           0       -7.848724    5.616721    2.109519
     63          1           0       -5.399790    5.182219    1.891999
     64          1           0       -6.695189   -3.262310   -0.525533
     65          1           0       -7.111480   -2.262313   -2.781005
     66          1           0       -9.408388   -1.507127   -3.192730
     67          1           0      -11.000178   -1.133611   -1.239257
     68          1           0      -10.246414   -1.841663    1.019832
     69          1           0       -7.400535   -3.732736    1.726913
     70          1           0       -7.332645   -2.032173    2.244790
     71          1           0       -8.857451   -2.943934    2.362273
     72          1           0       -4.514125   -2.389808   -0.743926
     73          1           0       -2.481801   -2.652382    0.298805
     74          1           0       -0.083081   -2.964248    0.022140
     75          1           0        2.310586    0.891791   -0.327511
     76          1           0        7.649516   -2.895638   -1.409903
     77          1           0        6.074075   -3.608214   -1.754611
     78          1           0        6.699892   -3.586200   -0.085889
     79          1           0        7.862537   -0.737759   -1.210668
     80          1           0        9.563019   -1.359983    0.206277
     81          1           0       10.500145   -1.676598    2.479287
     82          1           0        9.066724   -1.304318    4.477523
     83          1           0        6.698592   -0.603891    4.184830
     84          1           0        5.771489   -0.274968    1.910949
     85          1           0        7.526923    4.509221   -1.175620
     86          1           0        5.621672    6.096223   -1.543908
     87          1           0        3.293921    5.264279   -1.617310
     88          1           0        2.785904    2.863852   -1.324360
 ---------------------------------------------------------------------

 The electronic state is 1-A.
 Alpha  occ. eigenvalues --  -19.20858 -14.37232 -14.34851 -14.32290 -14.31664
 Alpha  occ. eigenvalues --  -10.24973 -10.23915 -10.23823 -10.23037 -10.22730
 Alpha  occ. eigenvalues --  -10.22385 -10.22082 -10.21934 -10.21695 -10.21496
 Alpha  occ. eigenvalues --  -10.21129 -10.20757 -10.20684 -10.20365 -10.20084
 Alpha  occ. eigenvalues --  -10.20022 -10.19681 -10.19616 -10.19603 -10.19565
 Alpha  occ. eigenvalues --  -10.19510 -10.19427 -10.19381 -10.19358 -10.19316
 Alpha  occ. eigenvalues --  -10.19106 -10.18974 -10.18970 -10.18835 -10.18779
 Alpha  occ. eigenvalues --  -10.18763 -10.18751 -10.18622 -10.18593 -10.18505
 Alpha  occ. eigenvalues --  -10.18455 -10.18365 -10.18304 -10.18218 -10.18138
 Alpha  occ. eigenvalues --  -10.18097 -10.18042 -10.17048 -10.16473 -10.14947
 Alpha  occ. eigenvalues --   -1.10393  -0.96240  -0.95058  -0.93884  -0.92272
 Alpha  occ. eigenvalues --   -0.86324  -0.85922  -0.85211  -0.84184  -0.81805
 Alpha  occ. eigenvalues --   -0.80850  -0.79604  -0.79239  -0.78346  -0.78236
 Alpha  occ. eigenvalues --   -0.76779  -0.75687  -0.75365  -0.74934  -0.74380
 Alpha  occ. eigenvalues --   -0.74203  -0.73204  -0.72201  -0.72156  -0.70523
 Alpha  occ. eigenvalues --   -0.69527  -0.68712  -0.66117  -0.64632  -0.64099
 Alpha  occ. eigenvalues --   -0.63074  -0.62366  -0.61842  -0.61472  -0.61010
 Alpha  occ. eigenvalues --   -0.60326  -0.59650  -0.59168  -0.58804  -0.58407
 Alpha  occ. eigenvalues --   -0.57613  -0.56827  -0.54415  -0.53208  -0.52695
 Alpha  occ. eigenvalues --   -0.52273  -0.51152  -0.50894  -0.50155  -0.49545
 Alpha  occ. eigenvalues --   -0.48944  -0.48375  -0.47913  -0.47233  -0.46940
 Alpha  occ. eigenvalues --   -0.46800  -0.46349  -0.46261  -0.46149  -0.45789
 Alpha  occ. eigenvalues --   -0.45429  -0.45082  -0.44776  -0.44561  -0.44459
 Alpha  occ. eigenvalues --   -0.44200  -0.43527  -0.43460  -0.42754  -0.42524
 Alpha  occ. eigenvalues --   -0.42407  -0.42149  -0.42056  -0.41663  -0.41106
 Alpha  occ. eigenvalues --   -0.40926  -0.40827  -0.40454  -0.40286  -0.39937
 Alpha  occ. eigenvalues --   -0.39735  -0.39506  -0.39162  -0.38640  -0.37807
 Alpha  occ. eigenvalues --   -0.37565  -0.37055  -0.36998  -0.36619  -0.36413
 Alpha  occ. eigenvalues --   -0.36156  -0.35822  -0.35724  -0.35300  -0.34906
 Alpha  occ. eigenvalues --   -0.34692  -0.34672  -0.34496  -0.34046  -0.33431
 Alpha  occ. eigenvalues --   -0.33259  -0.32894  -0.32663  -0.31597  -0.31221
 Alpha  occ. eigenvalues --   -0.29773  -0.28462  -0.28271  -0.27074  -0.26464
 Alpha  occ. eigenvalues --   -0.25804  -0.25574  -0.25461  -0.25290  -0.24781
 Alpha  occ. eigenvalues --   -0.24109  -0.23693  -0.23056  -0.22595  -0.21303
 Alpha  occ. eigenvalues --   -0.16066  -0.15808
 Alpha virt. eigenvalues --   -0.05075  -0.03725  -0.02560  -0.01342  -0.00913
 Alpha virt. eigenvalues --   -0.00602  -0.00263   0.00251   0.00859   0.01634
 Alpha virt. eigenvalues --    0.02906   0.04055   0.06205   0.07054   0.08384

 Mulliken charges:
               1
     1  C   -0.450869
     2  C   -0.162236
     3  C   -0.337800
     4  C    0.058295
     5  C    0.126824
     6  C   -0.188631
     7  C   -0.178789
     8  C    0.092776
     9  C    0.130159
    10  C   -0.217885
    11  C    0.260399
    12  C    0.251021
    13  C   -0.156064
    14  C   -0.105037
    15  C   -0.143196
    16  C    0.042227
    17  N   -0.491445
    18  N   -0.548689
    19  C    0.314348
    20  C   -0.050559
    21  C   -0.162202
    22  C   -0.087970
    23  C   -0.205931
    24  C    0.094996
    25  N   -0.392922
    26  C   -0.308729
    27  C   -0.239405
    28  C   -0.177613
    29  C   -0.201709
    30  C   -0.221734
    31  C    0.054479
    32  C    0.283726
    33  N   -0.479489
    34  C   -0.316264
    35  C   -0.146704
    36  C    0.200496
    37  C   -0.194899
    38  C   -0.128432
    39  C   -0.127251
    40  C   -0.131443
    41  C   -0.182046
    42  C    0.247735
    43  O   -0.534974
    44  C    0.309691
    45  C   -0.198061
    46  C   -0.141378
    47  C   -0.144956
    48  C   -0.201694
    49  C    0.078144
    50  C    0.028336
    51  H    0.153435
    52  H    0.167238
    53  H    0.141971
    54  H    0.131601
    55  H    0.153137
    56  H    0.140661
    57  H    0.131388
    58  H    0.139618
    59  H    0.166999
    60  H    0.176936
    61  H    0.141112
    62  H    0.135655
    63  H    0.136879
    64  H    0.123447
    65  H    0.122411
    66  H    0.119329
    67  H    0.113429
    68  H    0.131897
    69  H    0.149050
    70  H    0.164754
    71  H    0.155348
    72  H    0.131552
    73  H    0.128296
    74  H    0.125796
    75  H    0.134723
    76  H    0.159213
    77  H    0.170418
    78  H    0.166112
    79  H    0.152967
    80  H    0.125943
    81  H    0.132366
    82  H    0.133065
    83  H    0.135347
    84  H    0.151519
    85  H    0.143035
    86  H    0.129856
    87  H    0.127944
    88  H    0.138905
 Sum of Mulliken charges =  -0.00000

 Dipole moment (field-independent basis, Debye):
    X=              3.5174    Y=             -2.4825    Z=              1.6693  Tot=              4.6175
 Quadrupole moment (field-independent basis, Debye-Ang):
   XX=           -258.2605   YY=           -262.0939   ZZ=           -284.2953
   XY=            -23.5508   XZ=            -13.0575   YZ=             -0.3945

 Normal termination of Gaussian 16 at Sat Nov  5 00:36:09 2022.
