 Gaussian 16, Revision B.01,
 Gaussian 16:  ES64L-G16RevB.01 20-Dec-2017

 -------------------------------------------------------------------
 #p b3lyp/6-31g(d) 6D 10F nosymm GFInput td=(50-50,nstate=2) SCF=XQC
 -------------------------------------------------------------------

 ------------------------------
 Gaussian input prepared by ASE
 ------------------------------
 Symbolic Z-matrix:
 Charge =  0 Multiplicity = 1

                          Input orientation:
 ---------------------------------------------------------------------
 Center     Atomic      Atomic             Coordinates (Angstroms)
 Number     Number       Type             X           Y           Z
 ---------------------------------------------------------------------
      1          7           0        8.650218    3.278824    0.646281
      2          6           0        7.432191    2.625871    0.433239
      3          6           0        7.383891    1.384372   -0.222596
      4          6           0        6.177977    0.710644   -0.379448
      5          6           0        4.967587    1.237646    0.103929
      6          6           0        3.685337    0.517120   -0.069594
      7          6           0        2.678941    0.563326    0.911700
      8          6           0        1.475283   -0.115809    0.756706
      9          6           0        1.222154   -0.866156   -0.402609
     10          7           0       -0.009045   -1.555189   -0.569314
     11          6           0       -0.022513   -2.866658   -1.115069
     12          6           0       -1.014251   -3.247849   -2.034239
     13          6           0       -1.028278   -4.538256   -2.559891
     14          6           0       -0.049247   -5.465525   -2.196555
     15          6           0        0.943123   -5.087066   -1.289705
     16          6           0        0.955548   -3.804724   -0.744678
     17          6           0       -1.227283   -0.930241   -0.187824
     18          6           0       -2.226424   -1.650639    0.485715
     19          6           0       -3.420378   -1.035859    0.847832
     20          6           0       -3.663005    0.322955    0.579217
     21          6           0       -4.931597    0.976107    0.978811
     22          6           0       -5.592725    0.630096    2.170131
     23          6           0       -6.784642    1.237514    2.548527
     24          6           0       -7.371895    2.228484    1.744251
     25          7           0       -8.538497    2.884403    2.149353
     26          6           0       -6.720292    2.583663    0.551445
     27          6           0       -5.529110    1.968738    0.182799
     28          6           0       -2.648677    1.035106   -0.085175
     29          6           0       -1.460650    0.424407   -0.472793
     30          6           0        2.215361   -0.915912   -1.393777
     31          6           0        3.420269   -0.242847   -1.222890
     32          6           0        5.029068    2.480576    0.757941
     33          6           0        6.229424    3.162551    0.921986
     34          1           0        9.375632    3.054078   -0.023708
     35          1           0        8.576827    4.279202    0.785772
     36          1           0        8.304078    0.939752   -0.596031
     37          1           0        6.180223   -0.259941   -0.868126
     38          1           0        2.857608    1.109230    1.834059
     39          1           0        0.726379   -0.077706    1.541541
     40          1           0       -1.770008   -2.527825   -2.331340
     41          1           0       -1.803652   -4.814109   -3.270079
     42          1           0       -0.059588   -6.468426   -2.613841
     43          1           0        1.708101   -5.798937   -0.990180
     44          1           0        1.721274   -3.521507   -0.029639
     45          1           0       -2.066866   -2.700046    0.712823
     46          1           0       -4.186250   -1.627819    1.341413
     47          1           0       -5.152798   -0.114572    2.828026
     48          1           0       -7.261388    0.955780    3.485125
     49          1           0       -9.077156    3.296011    1.397007
     50          1           0       -9.130073    2.351453    2.775147
     51          1           0       -7.157954    3.343716   -0.092561
     52          1           0       -5.066822    2.246352   -0.760670
     53          1           0       -2.786944    2.092569   -0.293039
     54          1           0       -0.698608    1.000037   -0.988716
     55          1           0        2.032127   -1.476366   -2.305181
     56          1           0        4.156328   -0.275134   -2.021610
     57          1           0        4.112910    2.938561    1.120888
     58          1           0        6.238759    4.125972    1.427651
 ---------------------------------------------------------------------

 SCF Done:  E(RB3LYP) =  -1322.51950303     A.U. after   15 cycles

 Excitation energies and oscillator strengths:

 Excited state symmetry could not be determined.
 Excited State   1:      Triplet-?Sym    2.7567 eV  449.75 nm  f=0.0000  <S**2>=2.000
     112 ->115        -0.19712
     112 ->121         0.10752
     113 ->114         0.62393
 This state for optimization and/or second-order correction.
 Total Energy, E(TD-HF/TD-DFT) =  -1322.41819501
 Copying the excited state density for this state as the 1-particle RhoCI density.

 Excited state symmetry could not be determined.
 Excited State   2:      Triplet-?Sym    2.8953 eV  428.22 nm  f=0.0000  <S**2>=2.000
     104 ->114        -0.10215
     111 ->121         0.12335
     112 ->114        -0.28848
     113 ->115         0.57748

 Excited state symmetry could not be determined.
 Excited State   3:      Singlet-?Sym    3.5299 eV  351.24 nm  f=0.8961  <S**2>=0.000
     113 ->114         0.70113

 Excited state symmetry could not be determined.
 Excited State   4:      Singlet-?Sym    3.7219 eV  333.12 nm  f=0.0219  <S**2>=0.000
     113 ->115        -0.15919
     113 ->116         0.67418

 Alpha  occ. eigenvalues --  -14.35785 -14.34093 -14.34056 -10.22460 -10.22420
 Alpha  occ. eigenvalues --  -10.22335 -10.22087 -10.22060 -10.18743 -10.18687
 Alpha  occ. eigenvalues --  -10.18493 -10.18489 -10.18288 -10.18253 -10.18242
 Alpha  occ. eigenvalues --  -10.18216 -10.18208 -10.18170 -10.18166 -10.18150
 Alpha  occ. eigenvalues --  -10.18130 -10.18129 -10.18124 -10.18105 -10.18054
 Alpha  occ. eigenvalues --  -10.18040 -10.18040 -10.18024 -10.18001 -10.17952
 Alpha  occ. eigenvalues --  -10.17944 -10.17908 -10.17905  -0.95669  -0.91619
 Alpha  occ. eigenvalues --   -0.91581  -0.85452  -0.85162  -0.83990  -0.82895
 Alpha  occ. eigenvalues --   -0.81941  -0.76407  -0.75713  -0.74153  -0.74104
 Alpha  occ. eigenvalues --   -0.73852  -0.73534  -0.73385  -0.72683  -0.70642
 Alpha  occ. eigenvalues --   -0.68384  -0.62559  -0.62392  -0.61480  -0.61132
 Alpha  occ. eigenvalues --   -0.59849  -0.59274  -0.59098  -0.58347  -0.57268
 Alpha  occ. eigenvalues --   -0.55841  -0.52776  -0.52732  -0.51836  -0.51296
 Alpha  occ. eigenvalues --   -0.50653  -0.50600  -0.49263  -0.48332  -0.47779
 Alpha  occ. eigenvalues --   -0.45796  -0.44648  -0.44336  -0.43764  -0.43512
 Alpha  occ. eigenvalues --   -0.43435  -0.42777  -0.42704  -0.41912  -0.41615
 Alpha  occ. eigenvalues --   -0.41550  -0.41469  -0.41423  -0.40840  -0.40755
 Alpha  occ. eigenvalues --   -0.39648  -0.38665  -0.37707  -0.37513  -0.36620
 Alpha  occ. eigenvalues --   -0.35934  -0.35881  -0.35499  -0.34703  -0.34467
 Alpha  occ. eigenvalues --   -0.34157  -0.33955  -0.33560  -0.32792  -0.32511
 Alpha  occ. eigenvalues --   -0.31292  -0.30772  -0.29006  -0.25238  -0.25179
 Alpha  occ. eigenvalues --   -0.24963  -0.24368  -0.24330  -0.24020  -0.23936
 Alpha  occ. eigenvalues --   -0.20484  -0.19181  -0.16738
 Alpha virt. eigenvalues --   -0.01974  -0.01274  -0.00721   0.00479   0.00590
 Alpha virt. eigenvalues --    0.01350   0.01417   0.01590   0.04086   0.05849
 Alpha virt. eigenvalues --    0.08071   0.08145   0.10031   0.10831   0.10990

 Mulliken charges:
               1
     1  N   -0.788046
     2  C    0.313586
     3  C   -0.178168
     4  C   -0.184397
     5  C    0.087452
     6  C    0.099612
     7  C   -0.192191
     8  C   -0.169770
     9  C    0.282049
    10  N   -0.656198
    11  C    0.280750
    12  C   -0.164723
    13  C   -0.140045
    14  C   -0.129564
    15  C   -0.140209
    16  C   -0.164568
    17  C    0.281800
    18  C   -0.169565
    19  C   -0.191552
    20  C    0.099130
    21  C    0.086589
    22  C   -0.183998
    23  C   -0.178139
    24  C    0.313511
    25  N   -0.788029
    26  C   -0.177896
    27  C   -0.183858
    28  C   -0.191526
    29  C   -0.169550
    30  C   -0.169669
    31  C   -0.192240
    32  C   -0.184318
    33  C   -0.177956
    34  H    0.319532
    35  H    0.319517
    36  H    0.116672
    37  H    0.128500
    38  H    0.131098
    39  H    0.143246
    40  H    0.143683
    41  H    0.129160
    42  H    0.125014
    43  H    0.129277
    44  H    0.144234
    45  H    0.142449
    46  H    0.129425
    47  H    0.128952
    48  H    0.116887
    49  H    0.319495
    50  H    0.319619
    51  H    0.116201
    52  H    0.128580
    53  H    0.130547
    54  H    0.142967
    55  H    0.142020
    56  H    0.129325
    57  H    0.128959
    58  H    0.116338
 Sum of Mulliken charges =  -0.00000

 Dipole moment (field-independent basis, Debye):
    X=             -0.7681    Y=              1.4017    Z=             -0.8540  Tot=              1.8122
 Quadrupole moment (field-independent basis, Debye-Ang):
   XX=           -128.3792   YY=           -174.0178   ZZ=           -188.2669
   XY=              8.6621   XZ=            -12.3779   YZ=             -1.7685

 Normal termination of Gaussian 16 at Sat Nov  5 10:05:15 2022.
