 Gaussian 16, Revision B.01,
 Gaussian 16:  ES64L-G16RevB.01 20-Dec-2017

 -----------------------------
 #p b3lyp/6-31g(d) opt SCF=XQC
 -----------------------------

 ------------------------------
 Gaussian input prepared by ASE
 ------------------------------
 Symbolic Z-matrix:
 Charge =  0 Multiplicity = 1

 SCF Done:  E(RB3LYP) =  -1322.51114798     A.U. after   15 cycles
 SCF Done:  E(RB3LYP) =  -1322.51884968     A.U. after   12 cycles
 SCF Done:  E(RB3LYP) =  -1322.51933039     A.U. after   11 cycles
 SCF Done:  E(RB3LYP) =  -1322.51946372     A.U. after   10 cycles
 SCF Done:  E(RB3LYP) =  -1322.51949246     A.U. after   10 cycles
 SCF Done:  E(RB3LYP) =  -1322.51949764     A.U. after    8 cycles
 SCF Done:  E(RB3LYP) =  -1322.51949819     A.U. after    8 cycles
 SCF Done:  E(RB3LYP) =  -1322.51949829     A.U. after    7 cycles
 SCF Done:  E(RB3LYP) =  -1322.51949832     A.U. after    7 cycles
 SCF Done:  E(RB3LYP) =  -1322.51949834     A.U. after    7 cycles
 Optimization completed.
    -- Stationary point found.

                         Standard orientation:
 ---------------------------------------------------------------------
 Center     Atomic      Atomic             Coordinates (Angstroms)
 Number     Number       Type             X           Y           Z
 ---------------------------------------------------------------------
      1          7           0        8.625162   -3.403372   -0.089259
      2          6           0        7.417891   -2.700582   -0.026754
      3          6           0        7.402952   -1.302465    0.110437
      4          6           0        6.202099   -0.601975    0.112202
      5          6           0        4.964185   -1.255187   -0.019379
      6          6           0        3.687846   -0.503956   -0.012868
      7          6           0        2.596477   -0.904530   -0.804297
      8          6           0        1.397578   -0.199778   -0.806504
      9          6           0        1.236007    0.938246   -0.000339
     10          7           0        0.010553    1.657006    0.007060
     11          6           0        0.018592    3.077527    0.013114
     12          6           0       -0.892278    3.793766    0.807496
     13          6           0       -0.886185    5.187179    0.803089
     14          6           0        0.034478    5.892495    0.025109
     15          6           0        0.947053    5.183452   -0.759028
     16          6           0        0.937401    3.790165   -0.775365
     17          6           0       -1.223615    0.952004    0.007159
     18          6           0       -2.296264    1.377280   -0.792513
     19          6           0       -3.504694    0.688682   -0.780715
     20          6           0       -3.691501   -0.462608    0.004800
     21          6           0       -4.976844   -1.199832    0.003654
     22          6           0       -5.752522   -1.322455   -1.162256
     23          6           0       -6.960587   -2.010455   -1.168426
     24          6           0       -7.449156   -2.613010    0.002887
     25          7           0       -8.633416   -3.356388   -0.011836
     26          6           0       -6.682622   -2.498164    1.174536
     27          6           0       -5.476353   -1.806911    1.168952
     28          6           0       -2.604759   -0.883953    0.791501
     29          6           0       -1.399787   -0.189357    0.805279
     30          6           0        2.315078    1.346048    0.800068
     31          6           0        3.513622    0.640856    0.785225
     32          6           0        4.992445   -2.654128   -0.155583
     33          6           0        6.187284   -3.364897   -0.160321
     34          1           0        9.404162   -2.951735    0.374212
     35          1           0        8.561278   -4.380585    0.168757
     36          1           0        8.343643   -0.762933    0.199265
     37          1           0        6.228027    0.481332    0.193576
     38          1           0        2.701277   -1.762370   -1.462937
     39          1           0        0.580485   -0.522041   -1.444298
     40          1           0       -1.601351    3.251709    1.424959
     41          1           0       -1.598624    5.723440    1.424798
     42          1           0        0.040578    6.978767    0.029686
     43          1           0        1.665262    5.716912   -1.376494
     44          1           0        1.639951    3.245394   -1.397842
     45          1           0       -2.181503    2.259361   -1.414650
     46          1           0       -4.325693    1.060063   -1.387868
     47          1           0       -5.391682   -0.889965   -2.091579
     48          1           0       -7.527798   -2.098515   -2.092761
     49          1           0       -9.091169   -3.443485    0.887317
     50          1           0       -9.291803   -3.092362   -0.734633
     51          1           0       -7.042149   -2.950192    2.096699
     52          1           0       -4.922992   -1.712219    2.099402
     53          1           0       -2.699923   -1.781106    1.396986
     54          1           0       -0.580899   -0.537093    1.427161
     55          1           0        2.204400    2.213253    1.443532
     56          1           0        4.319336    0.963202    1.439210
     57          1           0        4.057027   -3.202099   -0.230066
     58          1           0        6.171158   -4.448198   -0.261133
 ---------------------------------------------------------------------

 The electronic state is 1-A.
 Alpha  occ. eigenvalues --  -14.35785 -14.34093 -14.34056 -10.22460 -10.22420
 Alpha  occ. eigenvalues --  -10.22335 -10.22087 -10.22060 -10.18743 -10.18687
 Alpha  occ. eigenvalues --  -10.18493 -10.18489 -10.18288 -10.18253 -10.18242
 Alpha  occ. eigenvalues --  -10.18216 -10.18208 -10.18170 -10.18166 -10.18150
 Alpha  occ. eigenvalues --  -10.18130 -10.18129 -10.18124 -10.18105 -10.18054
 Alpha  occ. eigenvalues --  -10.18040 -10.18040 -10.18024 -10.18001 -10.17952
 Alpha  occ. eigenvalues --  -10.17944 -10.17908 -10.17905  -0.95669  -0.91619
 Alpha  occ. eigenvalues --   -0.91581  -0.85452  -0.85162  -0.83990  -0.82895
 Alpha  occ. eigenvalues --   -0.81941  -0.76407  -0.75713  -0.74153  -0.74104
 Alpha  occ. eigenvalues --   -0.73852  -0.73534  -0.73385  -0.72683  -0.70642
 Alpha  occ. eigenvalues --   -0.68384  -0.62559  -0.62392  -0.61480  -0.61132
 Alpha  occ. eigenvalues --   -0.59849  -0.59274  -0.59098  -0.58347  -0.57268
 Alpha  occ. eigenvalues --   -0.55841  -0.52776  -0.52732  -0.51836  -0.51296
 Alpha  occ. eigenvalues --   -0.50653  -0.50600  -0.49263  -0.48332  -0.47779
 Alpha  occ. eigenvalues --   -0.45796  -0.44648  -0.44336  -0.43764  -0.43512
 Alpha  occ. eigenvalues --   -0.43435  -0.42777  -0.42704  -0.41912  -0.41615
 Alpha  occ. eigenvalues --   -0.41550  -0.41469  -0.41423  -0.40840  -0.40755
 Alpha  occ. eigenvalues --   -0.39648  -0.38665  -0.37707  -0.37513  -0.36620
 Alpha  occ. eigenvalues --   -0.35934  -0.35881  -0.35499  -0.34703  -0.34467
 Alpha  occ. eigenvalues --   -0.34157  -0.33955  -0.33560  -0.32792  -0.32510
 Alpha  occ. eigenvalues --   -0.31292  -0.30772  -0.29006  -0.25238  -0.25179
 Alpha  occ. eigenvalues --   -0.24963  -0.24368  -0.24330  -0.24020  -0.23936
 Alpha  occ. eigenvalues --   -0.20484  -0.19181  -0.16738
 Alpha virt. eigenvalues --   -0.01974  -0.01274  -0.00721   0.00479   0.00590
 Alpha virt. eigenvalues --    0.01350   0.01417   0.01590   0.04086   0.05849
 Alpha virt. eigenvalues --    0.08071   0.08145   0.10031   0.10831   0.10990

 Mulliken charges:
               1
     1  N   -0.788046
     2  C    0.313577
     3  C   -0.178165
     4  C   -0.184384
     5  C    0.087428
     6  C    0.099620
     7  C   -0.192194
     8  C   -0.169774
     9  C    0.282051
    10  N   -0.656207
    11  C    0.280805
    12  C   -0.164749
    13  C   -0.140044
    14  C   -0.129555
    15  C   -0.140207
    16  C   -0.164596
    17  C    0.281807
    18  C   -0.169574
    19  C   -0.191557
    20  C    0.099138
    21  C    0.086591
    22  C   -0.183995
    23  C   -0.178141
    24  C    0.313517
    25  N   -0.788032
    26  C   -0.177896
    27  C   -0.183860
    28  C   -0.191529
    29  C   -0.169549
    30  C   -0.169672
    31  C   -0.192236
    32  C   -0.184317
    33  C   -0.177948
    34  H    0.319532
    35  H    0.319517
    36  H    0.116672
    37  H    0.128500
    38  H    0.131099
    39  H    0.143246
    40  H    0.143682
    41  H    0.129160
    42  H    0.125013
    43  H    0.129277
    44  H    0.144233
    45  H    0.142451
    46  H    0.129426
    47  H    0.128950
    48  H    0.116888
    49  H    0.319496
    50  H    0.319619
    51  H    0.116200
    52  H    0.128580
    53  H    0.130547
    54  H    0.142965
    55  H    0.142021
    56  H    0.129325
    57  H    0.128958
    58  H    0.116337
 Sum of Mulliken charges =  -0.00000

 Dipole moment (field-independent basis, Debye):
    X=             -0.6549    Y=             -0.9610    Z=              1.3899  Tot=              1.8122
 Quadrupole moment (field-independent basis, Debye-Ang):
   XX=           -126.2521   YY=           -177.2118   ZZ=           -187.0053
   XY=             -4.6230   XZ=              9.0741   YZ=             -6.1408

 1\1\GINC-NODE59\FOpt\RB3LYP\6-31G(d)\C30H25N3\WYKGROUP\04-Nov-2022\0\\
 #p b3lyp/6-31g(d) opt SCF=XQC\\Gaussian input prepared by ASE\\0,1\N,8
 .6502182485,3.2788244478,0.6462813496\C,7.4321910093,2.6258714908,0.43
 32394553\C,7.3838908574,1.3843719203,-0.2225963241\C,6.1779774437,0.71
 06441354,-0.3794475983\C,4.9675870371,1.2376456865,0.1039292712\C,3.68
 53369281,0.5171204122,-0.0695944497\C,2.6789408544,0.5633255366,0.9116
 996031\C,1.4752827825,-0.1158090278,0.7567058804\C,1.2221544931,-0.866
 1557578,-0.402608551\N,-0.0090450787,-1.5551888283,-0.5693135819\C,-0.

 Normal termination of Gaussian 16 at Fri Nov  4 23:33:20 2022.
