 Gaussian 16, Revision B.01,
 Gaussian 16:  ES64L-G16RevB.01 20-Dec-2017

 -------------------------------------------------------------------
 #p b3lyp/6-31g(d) 6D 10F nosymm GFInput td=(50-50,nstate=2) SCF=XQC
 -------------------------------------------------------------------

 ------------------------------
 Gaussian input prepared by ASE
 ------------------------------
 Symbolic Z-matrix:
 Charge =  0 Multiplicity = 1

                          Input orientation:
 ---------------------------------------------------------------------
 Center     Atomic      Atomic             Coordinates (Angstroms)
 Number     Number       Type             X           Y           Z
 ---------------------------------------------------------------------
      1          6           0        4.459152    2.608259   -0.578338
      2          6           0        3.134287    2.501658   -1.064609
      3          6           0        2.261298    1.573502   -0.540261
      4          6           0        2.680565    0.703824    0.503189
      5          6           0        1.843853   -0.294284    1.112606
      6          6           0        0.444662   -0.542628    0.732739
      7          7           0       -0.299523    0.054713   -0.187535
      8          6           0       -1.524393   -0.565738   -0.123209
      9          6           0       -1.518328   -1.567000    0.865399
     10          6           0       -2.646489   -2.368134    1.150792
     11          6           0       -3.782771   -2.134599    0.413767
     12          6           0       -3.845268   -1.127704   -0.605571
     13          6           0       -5.030421   -0.907058   -1.351715
     14          6           0       -5.084537    0.063397   -2.331431
     15          6           0       -3.949644    0.857942   -2.607333
     16          6           0       -2.777924    0.671686   -1.901046
     17          6           0       -2.699877   -0.316052   -0.893632
     18          7           0       -0.252644   -1.529005    1.392804
     19          7           0        2.269414   -1.093538    2.089520
     20          6           0        3.539360   -0.972281    2.536849
     21          6           0        4.434131   -0.057318    2.035213
     22          6           0        4.022534    0.812431    0.995116
     23          6           0        4.894394    1.780856    0.430613
     24          1           0        5.132153    3.347024   -1.005446
     25          1           0        2.802342    3.160955   -1.861934
     26          1           0        1.246767    1.487829   -0.908646
     27          1           0       -2.618298   -3.135422    1.918889
     28          1           0       -4.674521   -2.727751    0.599869
     29          1           0       -5.903747   -1.519480   -1.138415
     30          1           0       -6.001590    0.218498   -2.893393
     31          1           0       -4.001321    1.619872   -3.380634
     32          1           0       -1.899415    1.276243   -2.104288
     33          1           0        0.166378   -2.084286    2.126570
     34          1           0        3.823703   -1.654189    3.335196
     35          1           0        5.445690    0.003173    2.427069
     36          1           0        5.910028    1.854602    0.811236
 ---------------------------------------------------------------------

 SCF Done:  E(RB3LYP) =  -934.264841265     A.U. after   15 cycles

 Excitation energies and oscillator strengths:

 Excited state symmetry could not be determined.
 Excited State   1:      Triplet-?Sym    2.2296 eV  556.09 nm  f=0.0000  <S**2>=2.000
      75 -> 78         0.25566
      77 -> 78         0.62279
 This state for optimization and/or second-order correction.
 Total Energy, E(TD-HF/TD-DFT) =  -934.182905483
 Copying the excited state density for this state as the 1-particle RhoCI density.

 Excited state symmetry could not be determined.
 Excited State   2:      Triplet-?Sym    2.7710 eV  447.43 nm  f=0.0000  <S**2>=2.000
      75 -> 78        -0.32348
      75 -> 81         0.12626
      76 -> 78        -0.29759
      76 -> 79        -0.11477
      77 -> 79         0.46438

 Excited state symmetry could not be determined.
 Excited State   3:      Singlet-?Sym    3.1354 eV  395.44 nm  f=0.4996  <S**2>=0.000
      77 -> 78         0.70310

 Excited state symmetry could not be determined.
 Excited State   4:      Singlet-?Sym    3.7442 eV  331.14 nm  f=0.0078  <S**2>=0.000
      76 -> 78         0.69144

 Alpha  occ. eigenvalues --  -14.38402 -14.33686 -14.31892 -10.25334 -10.24512
 Alpha  occ. eigenvalues --  -10.22418 -10.22393 -10.21256 -10.20947 -10.20612
 Alpha  occ. eigenvalues --  -10.20163 -10.20003 -10.19881 -10.19704 -10.19607
 Alpha  occ. eigenvalues --  -10.19296 -10.19247 -10.19161 -10.19037 -10.18538
 Alpha  occ. eigenvalues --  -10.18437 -10.18340 -10.18115  -1.01847  -0.94745
 Alpha  occ. eigenvalues --   -0.87961  -0.86112  -0.85976  -0.81462  -0.79537
 Alpha  occ. eigenvalues --   -0.77421  -0.75720  -0.74334  -0.73219  -0.71147
 Alpha  occ. eigenvalues --   -0.66137  -0.63538  -0.62662  -0.62038  -0.61748
 Alpha  occ. eigenvalues --   -0.58724  -0.58159  -0.54871  -0.53346  -0.51730
 Alpha  occ. eigenvalues --   -0.51198  -0.49478  -0.48928  -0.47103  -0.46345
 Alpha  occ. eigenvalues --   -0.44974  -0.44938  -0.43856  -0.42642  -0.42614
 Alpha  occ. eigenvalues --   -0.42084  -0.41307  -0.40992  -0.40858  -0.39472
 Alpha  occ. eigenvalues --   -0.38201  -0.37222  -0.36816  -0.35385  -0.34830
 Alpha  occ. eigenvalues --   -0.33901  -0.33326  -0.32120  -0.29953  -0.29463
 Alpha  occ. eigenvalues --   -0.27394  -0.26659  -0.26588  -0.25809  -0.23199
 Alpha  occ. eigenvalues --   -0.22390  -0.19553
 Alpha virt. eigenvalues --   -0.06826  -0.02657  -0.02352  -0.00314   0.01256
 Alpha virt. eigenvalues --    0.04701   0.07108   0.09459   0.10206   0.10750
 Alpha virt. eigenvalues --    0.10825   0.11519   0.11559   0.11949   0.14747

 Mulliken charges:
               1
     1  C   -0.120840
     2  C   -0.144457
     3  C   -0.171209
     4  C    0.077589
     5  C    0.224162
     6  C    0.527245
     7  N   -0.622144
     8  C    0.150616
     9  C    0.381461
    10  C   -0.167457
    11  C   -0.210225
    12  C    0.141483
    13  C   -0.211508
    14  C   -0.127631
    15  C   -0.144061
    16  C   -0.170318
    17  C    0.087529
    18  N   -0.755537
    19  N   -0.561513
    20  C    0.033988
    21  C   -0.203060
    22  C    0.158839
    23  C   -0.194894
    24  H    0.136846
    25  H    0.137619
    26  H    0.195771
    27  H    0.133988
    28  H    0.130172
    29  H    0.126812
    30  H    0.126280
    31  H    0.127905
    32  H    0.147432
    33  H    0.348105
    34  H    0.139600
    35  H    0.136803
    36  H    0.134611
 Sum of Mulliken charges =  -0.00000

 Dipole moment (field-independent basis, Debye):
    X=              1.5907    Y=             -0.3231    Z=              1.0280  Tot=              1.9213
 Quadrupole moment (field-independent basis, Debye-Ang):
   XX=           -109.2871   YY=           -122.1468   ZZ=           -124.1821
   XY=              7.9722   XZ=              4.2631   YZ=            -10.5073

 Normal termination of Gaussian 16 at Sat Nov  5 09:59:34 2022.
