 Gaussian 16, Revision B.01,
 Gaussian 16:  ES64L-G16RevB.01 20-Dec-2017

 -----------------------------
 #p b3lyp/6-31g(d) opt SCF=XQC
 -----------------------------

 ------------------------------
 Gaussian input prepared by ASE
 ------------------------------
 Symbolic Z-matrix:
 Charge =  0 Multiplicity = 1

 SCF Done:  E(RB3LYP) =  -934.260758494     A.U. after   15 cycles
 SCF Done:  E(RB3LYP) =  -934.264183891     A.U. after   12 cycles
 SCF Done:  E(RB3LYP) =  -934.264724939     A.U. after   11 cycles
 SCF Done:  E(RB3LYP) =  -934.264838938     A.U. after   11 cycles
 SCF Done:  E(RB3LYP) =  -934.264842095     A.U. after    8 cycles
 SCF Done:  E(RB3LYP) =  -934.264842681     A.U. after    7 cycles
 Optimization completed.
    -- Stationary point found.

                         Standard orientation:
 ---------------------------------------------------------------------
 Center     Atomic      Atomic             Coordinates (Angstroms)
 Number     Number       Type             X           Y           Z
 ---------------------------------------------------------------------
      1          6           0        4.598693    2.474996   -0.000005
      2          6           0        3.203363    2.711947   -0.000008
      3          6           0        2.308380    1.664316   -0.000006
      4          6           0        2.775679    0.321727   -0.000001
      5          6           0        1.920978   -0.834639    0.000001
      6          6           0        0.451237   -0.774890   -0.000001
      7          7           0       -0.351245    0.280361    0.000002
      8          6           0       -1.626397   -0.232859    0.000000
      9          6           0       -1.591478   -1.639517   -0.000004
     10          6           0       -2.759409   -2.434469   -0.000008
     11          6           0       -3.965379   -1.775290   -0.000006
     12          6           0       -4.060021   -0.344265   -0.000001
     13          6           0       -5.317206    0.311088    0.000000
     14          6           0       -5.401965    1.688539    0.000005
     15          6           0       -4.226740    2.472283    0.000008
     16          6           0       -2.984712    1.869102    0.000006
     17          6           0       -2.874204    0.460420    0.000002
     18          7           0       -0.256661   -1.955458   -0.000006
     19          7           0        2.392914   -2.080249    0.000006
     20          6           0        3.729860   -2.280612    0.000008
     21          6           0        4.648209   -1.257848    0.000007
     22          6           0        4.189004    0.082603    0.000002
     23          6           0        5.081648    1.187065   -0.000000
     24          1           0        5.287987    3.315234   -0.000007
     25          1           0        2.834223    3.733867   -0.000013
     26          1           0        1.240006    1.840090   -0.000008
     27          1           0       -2.707801   -3.519289   -0.000011
     28          1           0       -4.889707   -2.347392   -0.000008
     29          1           0       -6.221539   -0.293426   -0.000002
     30          1           0       -6.374310    2.173708    0.000006
     31          1           0       -4.302985    3.556437    0.000011
     32          1           0       -2.074685    2.461070    0.000008
     33          1           0        0.201425   -2.856838   -0.000001
     34          1           0        4.049401   -3.320372    0.000012
     35          1           0        5.714164   -1.468089    0.000009
     36          1           0        6.151527    0.994233    0.000002
 ---------------------------------------------------------------------

 The electronic state is 1-A.
 Alpha  occ. eigenvalues --  -14.38402 -14.33686 -14.31892 -10.25334 -10.24512
 Alpha  occ. eigenvalues --  -10.22418 -10.22393 -10.21256 -10.20947 -10.20612
 Alpha  occ. eigenvalues --  -10.20163 -10.20003 -10.19881 -10.19704 -10.19607
 Alpha  occ. eigenvalues --  -10.19296 -10.19247 -10.19161 -10.19037 -10.18538
 Alpha  occ. eigenvalues --  -10.18437 -10.18340 -10.18115  -1.01847  -0.94745
 Alpha  occ. eigenvalues --   -0.87961  -0.86112  -0.85976  -0.81462  -0.79537
 Alpha  occ. eigenvalues --   -0.77421  -0.75720  -0.74334  -0.73219  -0.71147
 Alpha  occ. eigenvalues --   -0.66137  -0.63538  -0.62662  -0.62038  -0.61748
 Alpha  occ. eigenvalues --   -0.58724  -0.58159  -0.54871  -0.53346  -0.51730
 Alpha  occ. eigenvalues --   -0.51198  -0.49478  -0.48928  -0.47103  -0.46345
 Alpha  occ. eigenvalues --   -0.44974  -0.44938  -0.43856  -0.42642  -0.42614
 Alpha  occ. eigenvalues --   -0.42084  -0.41307  -0.40992  -0.40858  -0.39472
 Alpha  occ. eigenvalues --   -0.38201  -0.37222  -0.36816  -0.35385  -0.34830
 Alpha  occ. eigenvalues --   -0.33901  -0.33326  -0.32120  -0.29953  -0.29463
 Alpha  occ. eigenvalues --   -0.27394  -0.26659  -0.26588  -0.25809  -0.23199
 Alpha  occ. eigenvalues --   -0.22390  -0.19553
 Alpha virt. eigenvalues --   -0.06826  -0.02657  -0.02352  -0.00314   0.01256
 Alpha virt. eigenvalues --    0.04701   0.07108   0.09459   0.10206   0.10750
 Alpha virt. eigenvalues --    0.10825   0.11519   0.11559   0.11949   0.14747

 Mulliken charges:
               1
     1  C   -0.120836
     2  C   -0.144457
     3  C   -0.171225
     4  C    0.077588
     5  C    0.224193
     6  C    0.527229
     7  N   -0.622127
     8  C    0.150599
     9  C    0.381479
    10  C   -0.167461
    11  C   -0.210221
    12  C    0.141467
    13  C   -0.211505
    14  C   -0.127630
    15  C   -0.144058
    16  C   -0.170325
    17  C    0.087544
    18  N   -0.755542
    19  N   -0.561516
    20  C    0.033992
    21  C   -0.203071
    22  C    0.158834
    23  C   -0.194889
    24  H    0.136845
    25  H    0.137619
    26  H    0.195769
    27  H    0.133988
    28  H    0.130172
    29  H    0.126813
    30  H    0.126279
    31  H    0.127905
    32  H    0.147432
    33  H    0.348105
    34  H    0.139599
    35  H    0.136804
    36  H    0.134611
 Sum of Mulliken charges =  -0.00000

 Dipole moment (field-independent basis, Debye):
    X=              1.6881    Y=             -0.9174    Z=             -0.0000  Tot=              1.9213
 Quadrupole moment (field-independent basis, Debye-Ang):
   XX=           -106.7729   YY=           -112.7389   ZZ=           -136.4307
   XY=              3.1706   XZ=              0.0000   YZ=             -0.0000

 1\1\GINC-NODE07\FOpt\RB3LYP\6-31G(d)\C20H13N3\WYKGROUP\04-Nov-2022\0\\
 #p b3lyp/6-31g(d) opt SCF=XQC\\Gaussian input prepared by ASE\\0,1\C,4
 .4591520363,2.6082585754,-0.5783384454\C,3.1342872532,2.5016584162,-1.
 064608573\C,2.2612977968,1.5735022942,-0.5402607795\C,2.6805646141,0.7
 038244277,0.5031894522\C,1.8438527415,-0.2942842368,1.1126064825\C,0.4
 44662344,-0.5426283058,0.7327394523\N,-0.2995227635,0.0547130396,-0.18
 75350753\C,-1.5243931938,-0.5657383155,-0.1232086182\C,-1.5183284076,-
 1.5669997322,0.8653987027\C,-2.6464893129,-2.3681337867,1.1507916843\C

 Normal termination of Gaussian 16 at Fri Nov  4 23:21:00 2022.
