 Gaussian 16, Revision B.01,
 Gaussian 16:  ES64L-G16RevB.01 20-Dec-2017

 -----------------------------
 #p b3lyp/6-31g(d) opt SCF=XQC
 -----------------------------

 ------------------------------
 Gaussian input prepared by ASE
 ------------------------------
 Symbolic Z-matrix:
 Charge =  0 Multiplicity = 1

 SCF Done:  E(RB3LYP) =  -1767.63455533     A.U. after   16 cycles
 SCF Done:  E(RB3LYP) =  -1767.64243286     A.U. after   12 cycles
 SCF Done:  E(RB3LYP) =  -1767.64258133     A.U. after   11 cycles
 SCF Done:  E(RB3LYP) =  -1767.64259293     A.U. after    9 cycles
 Optimization completed.
    -- Stationary point found.

                         Standard orientation:
 ---------------------------------------------------------------------
 Center     Atomic      Atomic             Coordinates (Angstroms)
 Number     Number       Type             X           Y           Z
 ---------------------------------------------------------------------
      1          6           0       -9.334659   -1.442358   -0.017854
      2          6           0       -9.467590   -0.041288   -0.005699
      3          6           0       -8.346430    0.768596    0.002414
      4          6           0       -7.040417    0.223541   -0.001177
      5          6           0       -6.913600   -1.196834   -0.013502
      6          6           0       -8.074190   -2.005230   -0.021637
      7          6           0       -5.607912   -1.788050   -0.017500
      8          6           0       -4.483074   -1.024162   -0.009785
      9          6           0       -4.554044    0.410829    0.002718
     10          6           0       -3.367134    1.204729    0.010701
     11          6           0       -2.004966    0.575085    0.006398
     12          6           0       -1.357268    0.302161   -1.218443
     13          6           0       -1.979590    0.582392   -2.478390
     14          6           0       -1.347024    0.313478   -3.662568
     15          6           0       -0.042997   -0.254825   -3.666659
     16          6           0        0.590530   -0.538953   -2.486502
     17          6           0       -0.031616   -0.277091   -1.222345
     18          6           0        0.614191   -0.569496   -0.001271
     19          6           0        1.988406   -1.169448   -0.005261
     20          6           0        2.145452   -2.572100   -0.012924
     21          6           0        3.405696   -3.168366   -0.016815
     22          6           0        4.501540   -2.318434   -0.012807
     23          8           0        5.812368   -2.726111   -0.015717
     24          6           0        6.562236   -1.576085   -0.009889
     25          6           0        7.966260   -1.569542   -0.010628
     26          6           0        8.583342   -0.340154   -0.004321
     27          6           0        7.839284    0.878771    0.002691
     28          6           0        8.500858    2.134079    0.009115
     29          6           0        7.790720    3.314593    0.015912
     30          6           0        6.378394    3.285895    0.016561
     31          6           0        5.701109    2.084153    0.010433
     32          6           0        6.401988    0.852178    0.003354
     33          6           0        5.769972   -0.429350   -0.003244
     34          6           0        4.398424   -0.911942   -0.005139
     35          6           0        3.116828   -0.341585   -0.001363
     36          6           0       -0.033918   -0.298731    1.223569
     37          6           0        0.586155   -0.582235    2.484070
     38          6           0       -0.049609   -0.319043    3.667875
     39          6           0       -1.353906    0.248641    3.671390
     40          6           0       -1.984389    0.538142    2.490961
     41          6           0       -1.359643    0.280335    1.227435
     42          6           0       -3.470898    2.588425    0.022663
     43          6           0       -4.728282    3.214911    0.026990
     44          6           0       -5.884019    2.458431    0.019365
     45          6           0       -5.835033    1.045550    0.007098
     46          1           0      -10.218463   -2.074358   -0.024197
     47          1           0      -10.456408    0.409368   -0.002648
     48          1           0       -8.485852    1.844080    0.011707
     49          1           0       -7.954177   -3.086116   -0.030998
     50          1           0       -5.533464   -2.872926   -0.026951
     51          1           0       -3.504914   -1.492793   -0.013026
     52          1           0       -2.973124    1.016909   -2.479701
     53          1           0       -1.841216    0.534257   -4.604896
     54          1           0        0.450523   -0.463302   -4.612169
     55          1           0        1.584762   -0.971611   -2.494272
     56          1           0        1.258451   -3.198713   -0.015858
     57          1           0        3.531418   -4.246030   -0.022741
     58          1           0        8.524156   -2.499823   -0.015969
     59          1           0        9.668581   -0.280549   -0.004600
     60          1           0        9.588384    2.147611    0.008574
     61          1           0        8.312806    4.267319    0.020774
     62          1           0        5.820667    4.218507    0.021932
     63          1           0        4.616821    2.081070    0.011041
     64          1           0        2.978322    0.734055    0.004572
     65          1           0        1.580673   -1.014311    2.486081
     66          1           0        0.442387   -0.543647    4.610481
     67          1           0       -1.849891    0.452677    4.616545
     68          1           0       -2.978047    0.972314    2.498064
     69          1           0       -2.565446    3.188909    0.028709
     70          1           0       -4.790171    4.299716    0.036384
     71          1           0       -6.840783    2.968604    0.022953
 ---------------------------------------------------------------------

 The electronic state is 1-A.
 Alpha  occ. eigenvalues --  -19.21247 -10.25033 -10.24885 -10.20664 -10.20326
 Alpha  occ. eigenvalues --  -10.20151 -10.20134 -10.20078 -10.20065 -10.19998
 Alpha  occ. eigenvalues --  -10.19993 -10.19991 -10.19948 -10.19876 -10.19868
 Alpha  occ. eigenvalues --  -10.19862 -10.19835 -10.19806 -10.19788 -10.19770
 Alpha  occ. eigenvalues --  -10.19748 -10.19736 -10.19642 -10.19639 -10.19355
 Alpha  occ. eigenvalues --  -10.19347 -10.19194 -10.19125 -10.19111 -10.19041
 Alpha  occ. eigenvalues --  -10.19041 -10.18996 -10.18964 -10.18962 -10.18906
 Alpha  occ. eigenvalues --  -10.18820 -10.18710 -10.18710 -10.18665 -10.18665
 Alpha  occ. eigenvalues --  -10.18609 -10.18445 -10.18445 -10.18430 -10.18430
 Alpha  occ. eigenvalues --   -1.10967  -0.88686  -0.87786  -0.87620  -0.86114
 Alpha  occ. eigenvalues --   -0.84698  -0.84344  -0.82598  -0.80584  -0.80457
 Alpha  occ. eigenvalues --   -0.80072  -0.79032  -0.76870  -0.75567  -0.75280
 Alpha  occ. eigenvalues --   -0.74829  -0.74559  -0.73561  -0.73378  -0.72329
 Alpha  occ. eigenvalues --   -0.71790  -0.71619  -0.69250  -0.65213  -0.64203
 Alpha  occ. eigenvalues --   -0.63205  -0.62821  -0.62342  -0.61308  -0.61292
 Alpha  occ. eigenvalues --   -0.60801  -0.60217  -0.58961  -0.58477  -0.58008
 Alpha  occ. eigenvalues --   -0.55675  -0.54120  -0.53582  -0.53122  -0.52600
 Alpha  occ. eigenvalues --   -0.52129  -0.52064  -0.51216  -0.49672  -0.49397
 Alpha  occ. eigenvalues --   -0.47988  -0.47670  -0.47467  -0.46232  -0.46212
 Alpha  occ. eigenvalues --   -0.46041  -0.45719  -0.45347  -0.44433  -0.44360
 Alpha  occ. eigenvalues --   -0.44191  -0.43490  -0.43098  -0.42616  -0.42520
 Alpha  occ. eigenvalues --   -0.42231  -0.42081  -0.41935  -0.41596  -0.40810
 Alpha  occ. eigenvalues --   -0.40588  -0.40295  -0.39880  -0.39452  -0.39024
 Alpha  occ. eigenvalues --   -0.38734  -0.38551  -0.38143  -0.37560  -0.37231
 Alpha  occ. eigenvalues --   -0.36338  -0.36027  -0.35626  -0.35606  -0.35552
 Alpha  occ. eigenvalues --   -0.35513  -0.34578  -0.33959  -0.33445  -0.33125
 Alpha  occ. eigenvalues --   -0.32930  -0.32631  -0.32130  -0.31182  -0.31004
 Alpha  occ. eigenvalues --   -0.29997  -0.29644  -0.28669  -0.28024  -0.26017
 Alpha  occ. eigenvalues --   -0.25775  -0.25212  -0.24938  -0.23689  -0.22697
 Alpha  occ. eigenvalues --   -0.22230  -0.21034  -0.20655  -0.18915
 Alpha virt. eigenvalues --   -0.06069  -0.04975  -0.03861  -0.03239  -0.01324
 Alpha virt. eigenvalues --   -0.00923  -0.00170   0.00730   0.00759   0.01328
 Alpha virt. eigenvalues --    0.03586   0.04397   0.04799   0.06764   0.08253

 Mulliken charges:
               1
     1  C   -0.127973
     2  C   -0.138720
     3  C   -0.187642
     4  C    0.054676
     5  C    0.148826
     6  C   -0.206749
     7  C   -0.194783
     8  C   -0.192492
     9  C    0.122665
    10  C   -0.064897
    11  C   -0.104426
    12  C    0.110719
    13  C   -0.194421
    14  C   -0.134837
    15  C   -0.134232
    16  C   -0.198750
    17  C    0.105315
    18  C   -0.084769
    19  C    0.003425
    20  C   -0.163255
    21  C   -0.203311
    22  C    0.312538
    23  O   -0.547172
    24  C    0.311611
    25  C   -0.198525
    26  C   -0.199155
    27  C    0.144994
    28  C   -0.208195
    29  C   -0.127218
    30  C   -0.145997
    31  C   -0.175848
    32  C    0.079895
    33  C   -0.029751
    34  C    0.103765
    35  C   -0.235750
    36  C    0.105315
    37  C   -0.198752
    38  C   -0.134225
    39  C   -0.134841
    40  C   -0.194414
    41  C    0.110719
    42  C   -0.155295
    43  C   -0.141966
    44  C   -0.182598
    45  C    0.051333
    46  H    0.130242
    47  H    0.129370
    48  H    0.133077
    49  H    0.130383
    50  H    0.130683
    51  H    0.146830
    52  H    0.147227
    53  H    0.129898
    54  H    0.129610
    55  H    0.145486
    56  H    0.141364
    57  H    0.149280
    58  H    0.149992
    59  H    0.135893
    60  H    0.131210
    61  H    0.130864
    62  H    0.133007
    63  H    0.142908
    64  H    0.152585
    65  H    0.145487
    66  H    0.129604
    67  H    0.129900
    68  H    0.147228
    69  H    0.137836
    70  H    0.131563
    71  H    0.133637
 Sum of Mulliken charges =  -0.00000

 Dipole moment (field-independent basis, Debye):
    X=              0.1608    Y=              0.6415    Z=              0.0032  Tot=              0.6613
 Quadrupole moment (field-independent basis, Debye-Ang):
   XX=           -219.7467   YY=           -236.0512   ZZ=           -252.5791
   XY=              0.5933   XZ=             -0.0116   YZ=              0.0919

 1\1\GINC-NODE75\FOpt\RB3LYP\6-31G(d)\C44H26O1\WYKGROUP\04-Nov-2022\0\\
 #p b3lyp/6-31g(d) opt SCF=XQC\\Gaussian input prepared by ASE\\0,1\C,9
 .1658326622,0.5327997178,1.484342\C,9.3021928927,0.1836920059,0.127748
 8346\C,8.1831816573,-0.0380239192,-0.6543212592\C,6.8760090826,0.07693
 71137,-0.1243667\C,6.7457156754,0.4309823812,1.2509066001\C,7.90415438
 66,0.6529805352,2.0314666317\C,5.4387547761,0.5575263042,1.8255484844\
 C,4.315953017,0.3472812999,1.0880133851\C,4.3904436085,-0.0113573485,-
 0.3013108959\C,3.2056521635,-0.23011073,-1.0678044668\C,1.8421235309,-

 Normal termination of Gaussian 16 at Fri Nov  4 23:31:14 2022.
