 Gaussian 16, Revision B.01,
 Gaussian 16:  ES64L-G16RevB.01 20-Dec-2017

 -------------------------------------------------------------------
 #p b3lyp/6-31g(d) 6D 10F nosymm GFInput td=(50-50,nstate=2) SCF=XQC
 -------------------------------------------------------------------

 ------------------------------
 Gaussian input prepared by ASE
 ------------------------------
 Symbolic Z-matrix:
 Charge =  0 Multiplicity = 1

                          Input orientation:
 ---------------------------------------------------------------------
 Center     Atomic      Atomic             Coordinates (Angstroms)
 Number     Number       Type             X           Y           Z
 ---------------------------------------------------------------------
      1          6           0        9.165833    0.532800    1.484342
      2          6           0        9.302193    0.183692    0.127749
      3          6           0        8.183182   -0.038024   -0.654321
      4          6           0        6.876009    0.076937   -0.124367
      5          6           0        6.745716    0.430982    1.250907
      6          6           0        7.904154    0.652981    2.031467
      7          6           0        5.438755    0.557526    1.825548
      8          6           0        4.315953    0.347281    1.088013
      9          6           0        4.390444   -0.011357   -0.301311
     10          6           0        3.205652   -0.230111   -1.067804
     11          6           0        1.842124   -0.094851   -0.455866
     12          6           0        1.174707    1.149269   -0.486802
     13          6           0        1.777888    2.313438   -1.064872
     14          6           0        1.126247    3.517378   -1.089872
     15          6           0       -0.179001    3.638487   -0.537485
     16          6           0       -0.794643    2.552490    0.025053
     17          6           0       -0.152186    1.272507    0.076286
     18          6           0       -0.779485    0.148627    0.656786
     19          6           0       -2.154985    0.276201    1.240011
     20          6           0       -2.315389    0.620955    2.599264
     21          6           0       -3.576922    0.749334    3.178762
     22          6           0       -4.670592    0.522297    2.356804
     23          8           0       -5.982248    0.603242    2.753646
     24          6           0       -6.729259    0.307188    1.640441
     25          6           0       -8.133104    0.284216    1.636071
     26          6           0       -8.747153   -0.029438    0.445781
     27          6           0       -8.000246   -0.319810   -0.736277
     28          6           0       -8.658721   -0.640556   -1.951619
     29          6           0       -7.945822   -0.921949   -3.096410
     30          6           0       -6.533729   -0.893392   -3.070580
     31          6           0       -5.859417   -0.585661   -1.907162
     32          6           0       -6.563183   -0.291382   -0.712524
     33          6           0       -5.934326    0.035419    0.528258
     34          6           0       -4.564101    0.175759    0.993909
     35          6           0       -3.281281    0.054105    0.439487
     36          6           0       -0.111663   -1.094962    0.689816
     37          6           0       -0.712594   -2.258839    1.271192
     38          6           0       -0.057774   -3.460981    1.301648
     39          6           0        1.247733   -3.581378    0.749722
     40          6           0        1.860340   -2.496465    0.181909
     41          6           0        1.215302   -1.218118    0.126899
     42          6           0        3.312805   -0.575282   -2.407543
     43          6           0        4.571555   -0.711450   -3.016250
     44          6           0        5.725270   -0.502599   -2.285928
     45          6           0        5.672816   -0.149200   -0.918032
     46          1           0       10.047958    0.705970    2.094621
     47          1           0       10.291982    0.087129   -0.310263
     48          1           0        8.325230   -0.305381   -1.695731
     49          1           0        7.781498    0.922017    3.078071
     50          1           0        5.361647    0.828334    2.875932
     51          1           0        3.336775    0.448551    1.543402
     52          1           0        2.772286    2.225089   -1.488290
     53          1           0        1.606146    4.385814   -1.533119
     54          1           0       -0.687738    4.598447   -0.563516
     55          1           0       -1.789878    2.649186    0.444468
     56          1           0       -1.430001    0.789563    3.205137
     57          1           0       -3.705225    1.014168    4.223081
     58          1           0       -8.693176    0.505974    2.538204
     59          1           0       -9.832122   -0.060692    0.389553
     60          1           0       -9.746088   -0.660432   -1.963207
     61          1           0       -8.465553   -1.165684   -4.018776
     62          1           0       -5.973821   -1.115746   -3.974966
     63          1           0       -4.775263   -0.568433   -1.905690
     64          1           0       -3.140200   -0.210046   -0.602886
     65          1           0       -1.707959   -2.171778    1.692412
     66          1           0       -0.535482   -4.328726    1.748670
     67          1           0        1.758920   -4.539879    0.779972
     68          1           0        2.854994   -2.592891   -0.239135
     69          1           0        2.408956   -0.740870   -2.987283
     70          1           0        4.636104   -0.982383   -4.066560
     71          1           0        6.683157   -0.614606   -2.781504
 ---------------------------------------------------------------------

 SCF Done:  E(RB3LYP) =  -1767.64259009     A.U. after   16 cycles

 Excitation energies and oscillator strengths:

 Excited state symmetry could not be determined.
 Excited State   1:      Triplet-?Sym    1.7334 eV  715.28 nm  f=0.0000  <S**2>=2.000
     149 ->150         0.70009
     149 <-150         0.13951
 This state for optimization and/or second-order correction.
 Total Energy, E(TD-HF/TD-DFT) =  -1767.57889018
 Copying the excited state density for this state as the 1-particle RhoCI density.

 Excited state symmetry could not be determined.
 Excited State   2:      Triplet-?Sym    2.5865 eV  479.34 nm  f=0.0000  <S**2>=2.000
     148 ->151         0.65932

 Excited state symmetry could not be determined.
 Excited State   3:      Singlet-?Sym    3.1476 eV  393.90 nm  f=0.2537  <S**2>=0.000
     149 ->150         0.69825

 Excited state symmetry could not be determined.
 Excited State   4:      Singlet-?Sym    3.3556 eV  369.48 nm  f=0.0014  <S**2>=0.000
     149 ->151         0.70050

 Alpha  occ. eigenvalues --  -19.21247 -10.25033 -10.24885 -10.20664 -10.20326
 Alpha  occ. eigenvalues --  -10.20151 -10.20134 -10.20078 -10.20065 -10.19998
 Alpha  occ. eigenvalues --  -10.19993 -10.19991 -10.19948 -10.19876 -10.19868
 Alpha  occ. eigenvalues --  -10.19862 -10.19835 -10.19805 -10.19788 -10.19770
 Alpha  occ. eigenvalues --  -10.19749 -10.19736 -10.19642 -10.19639 -10.19355
 Alpha  occ. eigenvalues --  -10.19347 -10.19194 -10.19125 -10.19111 -10.19041
 Alpha  occ. eigenvalues --  -10.19041 -10.18996 -10.18964 -10.18962 -10.18906
 Alpha  occ. eigenvalues --  -10.18820 -10.18710 -10.18710 -10.18665 -10.18665
 Alpha  occ. eigenvalues --  -10.18609 -10.18445 -10.18445 -10.18430 -10.18430
 Alpha  occ. eigenvalues --   -1.10967  -0.88686  -0.87786  -0.87620  -0.86114
 Alpha  occ. eigenvalues --   -0.84698  -0.84344  -0.82598  -0.80584  -0.80457
 Alpha  occ. eigenvalues --   -0.80072  -0.79032  -0.76870  -0.75567  -0.75280
 Alpha  occ. eigenvalues --   -0.74829  -0.74559  -0.73561  -0.73378  -0.72328
 Alpha  occ. eigenvalues --   -0.71790  -0.71619  -0.69250  -0.65213  -0.64203
 Alpha  occ. eigenvalues --   -0.63205  -0.62821  -0.62342  -0.61308  -0.61292
 Alpha  occ. eigenvalues --   -0.60801  -0.60217  -0.58961  -0.58477  -0.58008
 Alpha  occ. eigenvalues --   -0.55675  -0.54120  -0.53582  -0.53122  -0.52600
 Alpha  occ. eigenvalues --   -0.52129  -0.52064  -0.51216  -0.49672  -0.49397
 Alpha  occ. eigenvalues --   -0.47988  -0.47670  -0.47467  -0.46232  -0.46212
 Alpha  occ. eigenvalues --   -0.46041  -0.45719  -0.45347  -0.44433  -0.44360
 Alpha  occ. eigenvalues --   -0.44191  -0.43490  -0.43098  -0.42616  -0.42520
 Alpha  occ. eigenvalues --   -0.42231  -0.42081  -0.41935  -0.41596  -0.40810
 Alpha  occ. eigenvalues --   -0.40588  -0.40295  -0.39880  -0.39452  -0.39024
 Alpha  occ. eigenvalues --   -0.38734  -0.38551  -0.38143  -0.37560  -0.37231
 Alpha  occ. eigenvalues --   -0.36338  -0.36027  -0.35626  -0.35606  -0.35552
 Alpha  occ. eigenvalues --   -0.35513  -0.34578  -0.33959  -0.33445  -0.33125
 Alpha  occ. eigenvalues --   -0.32930  -0.32631  -0.32130  -0.31182  -0.31004
 Alpha  occ. eigenvalues --   -0.29997  -0.29644  -0.28669  -0.28024  -0.26017
 Alpha  occ. eigenvalues --   -0.25775  -0.25212  -0.24938  -0.23689  -0.22697
 Alpha  occ. eigenvalues --   -0.22230  -0.21034  -0.20655  -0.18915
 Alpha virt. eigenvalues --   -0.06069  -0.04975  -0.03861  -0.03239  -0.01324
 Alpha virt. eigenvalues --   -0.00924  -0.00170   0.00730   0.00759   0.01328
 Alpha virt. eigenvalues --    0.03586   0.04397   0.04799   0.06764   0.08253

 Mulliken charges:
               1
     1  C   -0.127961
     2  C   -0.138724
     3  C   -0.187657
     4  C    0.054714
     5  C    0.148794
     6  C   -0.206747
     7  C   -0.194789
     8  C   -0.192486
     9  C    0.122691
    10  C   -0.064915
    11  C   -0.104426
    12  C    0.110719
    13  C   -0.194419
    14  C   -0.134842
    15  C   -0.134225
    16  C   -0.198751
    17  C    0.105311
    18  C   -0.084764
    19  C    0.003410
    20  C   -0.163228
    21  C   -0.203316
    22  C    0.312544
    23  O   -0.547171
    24  C    0.311599
    25  C   -0.198529
    26  C   -0.199157
    27  C    0.144991
    28  C   -0.208190
    29  C   -0.127217
    30  C   -0.146002
    31  C   -0.175847
    32  C    0.079896
    33  C   -0.029740
    34  C    0.103777
    35  C   -0.235764
    36  C    0.105307
    37  C   -0.198750
    38  C   -0.134231
    39  C   -0.134834
    40  C   -0.194417
    41  C    0.110716
    42  C   -0.155279
    43  C   -0.141978
    44  C   -0.182576
    45  C    0.051305
    46  H    0.130240
    47  H    0.129371
    48  H    0.133076
    49  H    0.130383
    50  H    0.130683
    51  H    0.146826
    52  H    0.147227
    53  H    0.129899
    54  H    0.129609
    55  H    0.145486
    56  H    0.141362
    57  H    0.149279
    58  H    0.149993
    59  H    0.135893
    60  H    0.131211
    61  H    0.130863
    62  H    0.133007
    63  H    0.142909
    64  H    0.152585
    65  H    0.145485
    66  H    0.129605
    67  H    0.129900
    68  H    0.147230
    69  H    0.137834
    70  H    0.131564
    71  H    0.133636
 Sum of Mulliken charges =  -0.00000

 Dipole moment (field-independent basis, Debye):
    X=             -0.1592    Y=             -0.1610    Z=             -0.6214  Tot=              0.6613
 Quadrupole moment (field-independent basis, Debye-Ang):
   XX=           -219.7050   YY=           -251.5597   ZZ=           -237.1949
   XY=              0.6628   XZ=              0.5748   YZ=              3.9453

 Normal termination of Gaussian 16 at Sat Nov  5 10:41:37 2022.
