 Gaussian 16, Revision B.01,
 Gaussian 16:  ES64L-G16RevB.01 20-Dec-2017

 -----------------------------
 #p b3lyp/6-31g(d) opt SCF=XQC
 -----------------------------

 ------------------------------
 Gaussian input prepared by ASE
 ------------------------------
 Symbolic Z-matrix:
 Charge =  0 Multiplicity = 1

 SCF Done:  E(RB3LYP) =  -2201.53282380     A.U. after   16 cycles
 SCF Done:  E(RB3LYP) =  -2201.54183203     A.U. after   12 cycles
 SCF Done:  E(RB3LYP) =  -2201.54226532     A.U. after   11 cycles
 SCF Done:  E(RB3LYP) =  -2201.54232023     A.U. after   11 cycles
 SCF Done:  E(RB3LYP) =  -2201.54232701     A.U. after    8 cycles
 SCF Done:  E(RB3LYP) =  -2201.54232788     A.U. after    8 cycles
 SCF Done:  E(RB3LYP) =  -2201.54232811     A.U. after    7 cycles
 SCF Done:  E(RB3LYP) =  -2201.54232817     A.U. after    7 cycles
 SCF Done:  E(RB3LYP) =  -2201.54232821     A.U. after    6 cycles
 SCF Done:  E(RB3LYP) =  -2201.54232822     A.U. after    6 cycles
 SCF Done:  E(RB3LYP) =  -2201.54232823     A.U. after    6 cycles
 SCF Done:  E(RB3LYP) =  -2201.54232824     A.U. after    7 cycles
 SCF Done:  E(RB3LYP) =  -2201.54232824     A.U. after    7 cycles
 SCF Done:  E(RB3LYP) =  -2201.54232825     A.U. after    7 cycles
 SCF Done:  E(RB3LYP) =  -2201.54232825     A.U. after    7 cycles
 SCF Done:  E(RB3LYP) =  -2201.54232825     A.U. after    6 cycles
 Optimization completed.
    -- Stationary point found.

                         Standard orientation:
 ---------------------------------------------------------------------
 Center     Atomic      Atomic             Coordinates (Angstroms)
 Number     Number       Type             X           Y           Z
 ---------------------------------------------------------------------
      1          6           0       -4.750167    4.514775    2.244606
      2          6           0       -3.482731    3.979451    1.558283
      3          6           0       -2.334914    3.896787    2.590428
      4          6           0       -3.074068    4.935973    0.415011
      5          6           0       -3.716051    2.582106    0.971679
      6          7           0       -2.669293    2.028667    0.332901
      7          6           0       -2.754096    0.805162   -0.222664
      8          6           0       -1.555258    0.267881   -0.910243
      9          6           0       -1.569776   -0.961230   -1.591224
     10          6           0       -0.414072   -1.421302   -2.219284
     11          6           0        0.761117   -0.674697   -2.180267
     12          6           0        0.802283    0.557418   -1.504859
     13          6           0        2.050726    1.363448   -1.455342
     14          6           0        2.008169    2.764250   -1.543245
     15          6           0        3.184016    3.511117   -1.508464
     16          6           0        4.419418    2.877955   -1.385159
     17          6           0        4.492863    1.479123   -1.290267
     18          6           0        5.816386    0.807209   -1.177854
     19          6           0        6.849249    1.142929   -2.063765
     20          6           0        8.111373    0.541322   -1.990812
     21          6           0        8.381154   -0.415152   -1.020313
     22          6           0        7.378835   -0.774550   -0.108118
     23          6           0        6.106511   -0.162679   -0.199747
     24         16           0        5.009067   -0.723172    1.075180
     25          6           0        6.255339   -1.791932    1.724515
     26          6           0        6.117734   -2.637396    2.828171
     27          6           0        7.206146   -3.418583    3.207139
     28          6           0        8.414264   -3.358172    2.494624
     29          6           0        8.545472   -2.515552    1.396647
     30          6           0        7.462115   -1.718650    0.995473
     31          6           0        3.301773    0.740180   -1.329122
     32          6           0       -0.364534    1.010283   -0.877997
     33          6           0       -3.986200    0.157097   -0.088792
     34          8           0       -4.378355   -1.085644   -0.534247
     35          6           0       -5.688791   -1.232129   -0.131322
     36          6           0       -6.471159   -2.379898   -0.390167
     37          6           0       -6.012833   -3.521394   -1.091768
     38          6           0       -6.856434   -4.592891   -1.292978
     39          6           0       -8.182050   -4.560252   -0.801625
     40          6           0       -8.647181   -3.457836   -0.115394
     41          6           0       -7.814566   -2.333440    0.114900
     42          6           0       -8.282590   -1.181667    0.826409
     43          6           0       -7.479397   -0.091338    1.052032
     44          6           0       -6.150445   -0.119416    0.559981
     45          6           0       -5.034084    0.798030    0.592307
     46          7           0       -4.921256    2.016868    1.131816
     47          1           0       -5.586210    4.588505    1.542499
     48          1           0       -5.067885    3.864109    3.064791
     49          1           0       -4.551700    5.513279    2.652033
     50          1           0       -2.125775    4.891730    3.001357
     51          1           0       -1.420152    3.511800    2.130787
     52          1           0       -2.601952    3.237200    3.424733
     53          1           0       -2.866190    5.935084    0.816327
     54          1           0       -3.877125    5.030861   -0.325709
     55          1           0       -2.178500    4.573589   -0.097588
     56          1           0       -2.475489   -1.552569   -1.634711
     57          1           0       -0.433649   -2.367781   -2.752719
     58          1           0        1.646588   -1.035497   -2.695756
     59          1           0        1.052186    3.265662   -1.662617
     60          1           0        3.137224    4.594493   -1.580211
     61          1           0        5.332294    3.465150   -1.341913
     62          1           0        6.648647    1.877267   -2.838751
     63          1           0        8.881679    0.824810   -2.702390
     64          1           0        9.362449   -0.877989   -0.962369
     65          1           0        5.183027   -2.684209    3.379445
     66          1           0        7.116909   -4.081078    4.063644
     67          1           0        9.253254   -3.974998    2.803995
     68          1           0        9.483710   -2.474371    0.849718
     69          1           0        3.348179   -0.342009   -1.256582
     70          1           0       -0.362584    1.945009   -0.330090
     71          1           0       -4.993455   -3.538672   -1.464714
     72          1           0       -6.503147   -5.467885   -1.831226
     73          1           0       -8.836635   -5.411474   -0.967112
     74          1           0       -9.666909   -3.436765    0.261182
     75          1           0       -9.306219   -1.188880    1.191456
     76          1           0       -7.838251    0.778765    1.592076
 ---------------------------------------------------------------------

 The electronic state is 1-A.
 Alpha  occ. eigenvalues --  -88.89877 -19.22794 -14.33110 -14.32987 -10.26138
 Alpha  occ. eigenvalues --  -10.25729 -10.25220 -10.25077 -10.23758 -10.22469
 Alpha  occ. eigenvalues --  -10.22182 -10.21440 -10.21265 -10.20739 -10.20490
 Alpha  occ. eigenvalues --  -10.20455 -10.20433 -10.20315 -10.20307 -10.20241
 Alpha  occ. eigenvalues --  -10.20189 -10.20178 -10.20138 -10.20127 -10.20099
 Alpha  occ. eigenvalues --  -10.20098 -10.19947 -10.19747 -10.19570 -10.19552
 Alpha  occ. eigenvalues --  -10.19475 -10.19435 -10.19405 -10.19375 -10.19350
 Alpha  occ. eigenvalues --  -10.19316 -10.19231 -10.19198 -10.19142 -10.19131
 Alpha  occ. eigenvalues --  -10.19112 -10.19063 -10.18940 -10.16539 -10.16492
 Alpha  occ. eigenvalues --  -10.15944  -7.95930  -5.92387  -5.92029  -5.91524
 Alpha  occ. eigenvalues --   -1.12165  -0.98107  -0.89686  -0.89646  -0.88206
 Alpha  occ. eigenvalues --   -0.87030  -0.85651  -0.84440  -0.83638  -0.82056
 Alpha  occ. eigenvalues --   -0.80862  -0.79259  -0.78633  -0.78002  -0.77479
 Alpha  occ. eigenvalues --   -0.76138  -0.75756  -0.74311  -0.73756  -0.73205
 Alpha  occ. eigenvalues --   -0.72489  -0.71699  -0.70006  -0.67987  -0.67451
 Alpha  occ. eigenvalues --   -0.66707  -0.65291  -0.64047  -0.63667  -0.62941
 Alpha  occ. eigenvalues --   -0.62069  -0.61213  -0.60718  -0.59454  -0.58954
 Alpha  occ. eigenvalues --   -0.58823  -0.57924  -0.56615  -0.55129  -0.54790
 Alpha  occ. eigenvalues --   -0.54282  -0.52367  -0.50998  -0.50453  -0.49967
 Alpha  occ. eigenvalues --   -0.49779  -0.49364  -0.49077  -0.48130  -0.47929
 Alpha  occ. eigenvalues --   -0.47561  -0.46352  -0.46079  -0.45406  -0.45061
 Alpha  occ. eigenvalues --   -0.44524  -0.44089  -0.43845  -0.43459  -0.43321
 Alpha  occ. eigenvalues --   -0.43275  -0.42955  -0.42597  -0.42389  -0.42090
 Alpha  occ. eigenvalues --   -0.41839  -0.41714  -0.41595  -0.40845  -0.40599
 Alpha  occ. eigenvalues --   -0.40016  -0.39104  -0.38909  -0.38890  -0.37998
 Alpha  occ. eigenvalues --   -0.37231  -0.37179  -0.36856  -0.36718  -0.36631
 Alpha  occ. eigenvalues --   -0.35775  -0.35640  -0.35604  -0.35279  -0.35104
 Alpha  occ. eigenvalues --   -0.34777  -0.34589  -0.34291  -0.33879  -0.33595
 Alpha  occ. eigenvalues --   -0.33484  -0.32540  -0.32218  -0.31786  -0.31606
 Alpha  occ. eigenvalues --   -0.31095  -0.29244  -0.28942  -0.28708  -0.27791
 Alpha  occ. eigenvalues --   -0.27074  -0.26350  -0.24762  -0.24486  -0.24395
 Alpha  occ. eigenvalues --   -0.23439  -0.22531  -0.22162  -0.22062  -0.20944
 Alpha virt. eigenvalues --   -0.06791  -0.04121  -0.03854  -0.03266  -0.02257
 Alpha virt. eigenvalues --   -0.01650  -0.00169   0.00111   0.01007   0.01814
 Alpha virt. eigenvalues --    0.02715   0.03162   0.03736   0.04401   0.08505

 Mulliken charges:
               1
     1  C   -0.428602
     2  C    0.027191
     3  C   -0.446836
     4  C   -0.445284
     5  C    0.450722
     6  N   -0.556396
     7  C    0.221918
     8  C    0.116871
     9  C   -0.192368
    10  C   -0.143812
    11  C   -0.162583
    12  C    0.089912
    13  C    0.088986
    14  C   -0.170347
    15  C   -0.137428
    16  C   -0.166004
    17  C    0.065284
    18  C    0.048443
    19  C   -0.156003
    20  C   -0.148535
    21  C   -0.167029
    22  C    0.110873
    23  C   -0.217445
    24  S    0.225231
    25  C   -0.138272
    26  C   -0.186515
    27  C   -0.113787
    28  C   -0.148184
    29  C   -0.164519
    30  C    0.099169
    31  C   -0.226609
    32  C   -0.224196
    33  C    0.313651
    34  O   -0.568932
    35  C    0.193108
    36  C    0.070775
    37  C   -0.160587
    38  C   -0.146888
    39  C   -0.121657
    40  C   -0.211722
    41  C    0.152498
    42  C   -0.206553
    43  C   -0.181286
    44  C    0.149441
    45  C    0.208472
    46  N   -0.559950
    47  H    0.146695
    48  H    0.147723
    49  H    0.129055
    50  H    0.138307
    51  H    0.161940
    52  H    0.142248
    53  H    0.137890
    54  H    0.141435
    55  H    0.158580
    56  H    0.162575
    57  H    0.133374
    58  H    0.138282
    59  H    0.139963
    60  H    0.134331
    61  H    0.135916
    62  H    0.135070
    63  H    0.132516
    64  H    0.133382
    65  H    0.143428
    66  H    0.132843
    67  H    0.131575
    68  H    0.132996
    69  H    0.153112
    70  H    0.168807
    71  H    0.150466
    72  H    0.137334
    73  H    0.136193
    74  H    0.136904
    75  H    0.136001
    76  H    0.156843
 Sum of Mulliken charges =  -0.00000

 Dipole moment (field-independent basis, Debye):
    X=             -0.1699    Y=             -2.3978    Z=             -1.0623  Tot=              2.6281
 Quadrupole moment (field-independent basis, Debye-Ang):
   XX=           -227.6853   YY=           -250.9642   ZZ=           -266.1976
   XY=             11.8995   XZ=             -3.2276   YZ=             -2.5904

 Normal termination of Gaussian 16 at Fri Nov  4 23:57:41 2022.
