 Gaussian 16, Revision B.01,
 Gaussian 16:  ES64L-G16RevB.01 20-Dec-2017

 -------------------------------------------------------------------
 #p b3lyp/6-31g(d) 6D 10F nosymm GFInput td=(50-50,nstate=2) SCF=XQC
 -------------------------------------------------------------------

 ------------------------------
 Gaussian input prepared by ASE
 ------------------------------
 Symbolic Z-matrix:
 Charge =  0 Multiplicity = 1

                          Input orientation:
 ---------------------------------------------------------------------
 Center     Atomic      Atomic             Coordinates (Angstroms)
 Number     Number       Type             X           Y           Z
 ---------------------------------------------------------------------
      1          6           0       -4.856184    4.325990    1.330807
      2          6           0       -3.548684    3.752278    0.760452
      3          6           0       -2.410717    3.945303    1.788760
      4          6           0       -3.188150    4.494998   -0.546221
      5          6           0       -3.684697    2.255852    0.454966
      6          7           0       -2.596828    1.659166   -0.065169
      7          6           0       -2.596169    0.348619   -0.373836
      8          6           0       -1.356980   -0.231729   -0.945023
      9          6           0       -1.284283   -1.567358   -1.375683
     10          6           0       -0.093818   -2.063453   -1.903376
     11          6           0        1.030516   -1.248239   -2.009720
     12          6           0        0.984286    0.090997   -1.585119
     13          6           0        2.177779    0.971200   -1.692666
     14          6           0        2.046583    2.322940   -2.049558
     15          6           0        3.171608    3.137637   -2.160109
     16          6           0        4.443452    2.622162   -1.917178
     17          6           0        4.605258    1.275715   -1.553819
     18          6           0        5.967652    0.725952   -1.314115
     19          6           0        6.987690    0.951246   -2.248523
     20          6           0        8.284796    0.458701   -2.061100
     21          6           0        8.603382   -0.272995   -0.924167
     22          6           0        7.615017   -0.514408    0.040595
     23          6           0        6.307305   -0.016081   -0.167131
     24         16           0        5.232448   -0.390645    1.192412
     25          6           0        6.536594   -1.230454    2.035623
     26          6           0        6.439906   -1.854384    3.281882
     27          6           0        7.571418   -2.475081    3.804306
     28          6           0        8.781854   -2.474456    3.093165
     29          6           0        8.872270   -1.852634    1.853029
     30          6           0        7.745069   -1.220501    1.305780
     31          6           0        3.464563    0.466996   -1.448791
     32          6           0       -0.216792    0.579079   -1.057204
     33          6           0       -3.785742   -0.340497   -0.116882
     34          8           0       -4.091901   -1.668710   -0.313702
     35          6           0       -5.395108   -1.819984    0.110346
     36          6           0       -6.099034   -3.044706    0.078393
     37          6           0       -5.559865   -4.267662   -0.389575
     38          6           0       -6.330492   -5.410593   -0.379697
     39          6           0       -7.661419   -5.370433    0.096508
     40          6           0       -8.204685   -4.189146    0.556947
     41          6           0       -7.448769   -2.989533    0.565387
     42          6           0       -7.998396   -1.755237    1.041094
     43          6           0       -7.269598   -0.591799    1.051542
     44          6           0       -5.935626   -0.627411    0.573771
     45          6           0       -4.880865    0.349937    0.427872
     46          7           0       -4.853062    1.654648    0.721679
     47          1           0       -5.686531    4.208212    0.627947
     48          1           0       -5.141601    3.826359    2.261356
     49          1           0       -4.727172    5.395103    1.537565
     50          1           0       -2.270871    5.012301    1.999639
     51          1           0       -1.467568    3.539467    1.411878
     52          1           0       -2.645164    3.442970    2.734870
     53          1           0       -3.049711    5.564141   -0.345577
     54          1           0       -3.986462    4.392643   -1.291064
     55          1           0       -2.264950    4.099827   -0.979422
     56          1           0       -2.149615   -2.213828   -1.303809
     57          1           0       -0.046106   -3.094249   -2.243877
     58          1           0        1.943574   -1.643075   -2.446061
     59          1           0        1.061960    2.728424   -2.263261
     60          1           0        3.056340    4.181437   -2.439816
     61          1           0        5.316201    3.264995   -1.988489
     62          1           0        6.749972    1.507673   -3.150728
     63          1           0        9.044039    0.649330   -2.814286
     64          1           0        9.611545   -0.650905   -0.778196
     65          1           0        5.503410   -1.854939    3.832107
     66          1           0        7.514306   -2.964374    4.772704
     67          1           0        9.654794   -2.963938    3.515625
     68          1           0        9.812597   -1.856525    1.308155
     69          1           0        3.579361   -0.575515   -1.168535
     70          1           0       -0.281518    1.600010   -0.700227
     71          1           0       -4.536965   -4.289943   -0.752475
     72          1           0       -5.915236   -6.347987   -0.738849
     73          1           0       -8.257997   -6.278473    0.098815
     74          1           0       -9.228222   -4.162475    0.922676
     75          1           0       -9.023871   -1.758735    1.400977
     76          1           0       -7.690118    0.340790    1.413404
 ---------------------------------------------------------------------

 SCF Done:  E(RB3LYP) =  -2201.54233385     A.U. after   15 cycles

 Excitation energies and oscillator strengths:

 Excited state symmetry could not be determined.
 Excited State   1:      Triplet-?Sym    2.7244 eV  455.08 nm  f=0.0000  <S**2>=2.000
     153 ->161         0.12277
     153 ->162         0.10780
     156 ->161         0.10959
     159 ->161         0.44851
     159 ->162        -0.46144
 This state for optimization and/or second-order correction.
 Total Energy, E(TD-HF/TD-DFT) =  -2201.44221223
 Copying the excited state density for this state as the 1-particle RhoCI density.

 Excited state symmetry could not be determined.
 Excited State   2:      Triplet-?Sym    2.9407 eV  421.61 nm  f=0.0000  <S**2>=2.000
     153 ->161         0.21477
     156 ->161        -0.28793
     156 ->165         0.11868
     157 ->161         0.39454
     157 ->163        -0.10451
     157 ->164        -0.23580
     158 ->163        -0.10430
     159 ->161         0.10771
     159 ->162         0.12335

 Excited state symmetry could not be determined.
 Excited State   3:      Singlet-?Sym    3.5404 eV  350.20 nm  f=0.0003  <S**2>=0.000
     160 ->161         0.70197

 Excited state symmetry could not be determined.
 Excited State   4:      Singlet-?Sym    3.6581 eV  338.93 nm  f=0.0553  <S**2>=0.000
     156 ->162         0.10063
     159 ->161         0.67539

 Alpha  occ. eigenvalues --  -88.89877 -19.22794 -14.33110 -14.32987 -10.26138
 Alpha  occ. eigenvalues --  -10.25729 -10.25221 -10.25077 -10.23758 -10.22469
 Alpha  occ. eigenvalues --  -10.22182 -10.21440 -10.21265 -10.20739 -10.20490
 Alpha  occ. eigenvalues --  -10.20455 -10.20433 -10.20315 -10.20307 -10.20241
 Alpha  occ. eigenvalues --  -10.20189 -10.20178 -10.20138 -10.20127 -10.20099
 Alpha  occ. eigenvalues --  -10.20098 -10.19947 -10.19747 -10.19570 -10.19552
 Alpha  occ. eigenvalues --  -10.19475 -10.19435 -10.19405 -10.19375 -10.19350
 Alpha  occ. eigenvalues --  -10.19316 -10.19231 -10.19198 -10.19142 -10.19131
 Alpha  occ. eigenvalues --  -10.19112 -10.19063 -10.18940 -10.16538 -10.16492
 Alpha  occ. eigenvalues --  -10.15944  -7.95930  -5.92387  -5.92029  -5.91524
 Alpha  occ. eigenvalues --   -1.12165  -0.98107  -0.89686  -0.89646  -0.88206
 Alpha  occ. eigenvalues --   -0.87030  -0.85652  -0.84440  -0.83638  -0.82056
 Alpha  occ. eigenvalues --   -0.80862  -0.79259  -0.78633  -0.78002  -0.77479
 Alpha  occ. eigenvalues --   -0.76138  -0.75756  -0.74311  -0.73756  -0.73205
 Alpha  occ. eigenvalues --   -0.72489  -0.71699  -0.70006  -0.67987  -0.67451
 Alpha  occ. eigenvalues --   -0.66707  -0.65291  -0.64047  -0.63667  -0.62941
 Alpha  occ. eigenvalues --   -0.62069  -0.61213  -0.60718  -0.59454  -0.58954
 Alpha  occ. eigenvalues --   -0.58823  -0.57924  -0.56615  -0.55129  -0.54790
 Alpha  occ. eigenvalues --   -0.54282  -0.52368  -0.50998  -0.50453  -0.49967
 Alpha  occ. eigenvalues --   -0.49779  -0.49364  -0.49077  -0.48130  -0.47929
 Alpha  occ. eigenvalues --   -0.47561  -0.46352  -0.46079  -0.45406  -0.45061
 Alpha  occ. eigenvalues --   -0.44524  -0.44089  -0.43845  -0.43459  -0.43321
 Alpha  occ. eigenvalues --   -0.43275  -0.42955  -0.42597  -0.42389  -0.42090
 Alpha  occ. eigenvalues --   -0.41839  -0.41714  -0.41595  -0.40845  -0.40599
 Alpha  occ. eigenvalues --   -0.40016  -0.39104  -0.38909  -0.38890  -0.37998
 Alpha  occ. eigenvalues --   -0.37231  -0.37179  -0.36856  -0.36718  -0.36631
 Alpha  occ. eigenvalues --   -0.35775  -0.35640  -0.35604  -0.35279  -0.35104
 Alpha  occ. eigenvalues --   -0.34777  -0.34589  -0.34291  -0.33879  -0.33595
 Alpha  occ. eigenvalues --   -0.33484  -0.32540  -0.32218  -0.31786  -0.31606
 Alpha  occ. eigenvalues --   -0.31095  -0.29244  -0.28942  -0.28708  -0.27791
 Alpha  occ. eigenvalues --   -0.27074  -0.26350  -0.24762  -0.24486  -0.24395
 Alpha  occ. eigenvalues --   -0.23439  -0.22531  -0.22162  -0.22062  -0.20944
 Alpha virt. eigenvalues --   -0.06791  -0.04121  -0.03854  -0.03266  -0.02257
 Alpha virt. eigenvalues --   -0.01650  -0.00169   0.00111   0.01007   0.01814
 Alpha virt. eigenvalues --    0.02715   0.03162   0.03736   0.04401   0.08505

 Mulliken charges:
               1
     1  C   -0.428620
     2  C    0.027206
     3  C   -0.446844
     4  C   -0.445255
     5  C    0.450727
     6  N   -0.556384
     7  C    0.221910
     8  C    0.116838
     9  C   -0.192351
    10  C   -0.143816
    11  C   -0.162589
    12  C    0.089914
    13  C    0.088986
    14  C   -0.170350
    15  C   -0.137430
    16  C   -0.166003
    17  C    0.065272
    18  C    0.048416
    19  C   -0.155988
    20  C   -0.148545
    21  C   -0.167041
    22  C    0.110885
    23  C   -0.217411
    24  S    0.225221
    25  C   -0.138280
    26  C   -0.186520
    27  C   -0.113780
    28  C   -0.148190
    29  C   -0.164516
    30  C    0.099174
    31  C   -0.226599
    32  C   -0.224187
    33  C    0.313630
    34  O   -0.568925
    35  C    0.193124
    36  C    0.070765
    37  C   -0.160578
    38  C   -0.146884
    39  C   -0.121660
    40  C   -0.211720
    41  C    0.152493
    42  C   -0.206549
    43  C   -0.181284
    44  C    0.149442
    45  C    0.208490
    46  N   -0.559972
    47  H    0.146696
    48  H    0.147727
    49  H    0.129056
    50  H    0.138307
    51  H    0.161941
    52  H    0.142249
    53  H    0.137885
    54  H    0.141432
    55  H    0.158562
    56  H    0.162581
    57  H    0.133375
    58  H    0.138283
    59  H    0.139969
    60  H    0.134331
    61  H    0.135917
    62  H    0.135071
    63  H    0.132517
    64  H    0.133384
    65  H    0.143428
    66  H    0.132842
    67  H    0.131576
    68  H    0.132996
    69  H    0.153112
    70  H    0.168809
    71  H    0.150461
    72  H    0.137333
    73  H    0.136193
    74  H    0.136905
    75  H    0.136001
    76  H    0.156838
 Sum of Mulliken charges =  -0.00000

 Dipole moment (field-independent basis, Debye):
    X=             -0.0028    Y=             -2.5635    Z=             -0.5790  Tot=              2.6281
 Quadrupole moment (field-independent basis, Debye-Ang):
   XX=           -229.2350   YY=           -249.8569   ZZ=           -264.6425
   XY=             12.0581   XZ=             -5.2372   YZ=             -5.5073

 Normal termination of Gaussian 16 at Sat Nov  5 10:18:38 2022.
