 Gaussian 16, Revision B.01,
 Gaussian 16:  ES64L-G16RevB.01 20-Dec-2017

 -----------------------------
 #p b3lyp/6-31g(d) opt SCF=XQC
 -----------------------------

 ------------------------------
 Gaussian input prepared by ASE
 ------------------------------
 Symbolic Z-matrix:
 Charge =  0 Multiplicity = 1

 SCF Done:  E(RB3LYP) =  -5210.47877571     A.U. after   16 cycles
 SCF Done:  E(RB3LYP) =  -5210.50993658     A.U. after   14 cycles
 SCF Done:  E(RB3LYP) =  -5210.45660015     A.U. after   16 cycles
 SCF Done:  E(RB3LYP) =  -5210.52589647     A.U. after   13 cycles
 SCF Done:  E(RB3LYP) =  -5210.52358975     A.U. after   16 cycles
 SCF Done:  E(RB3LYP) =  -5210.52968877     A.U. after   13 cycles
 SCF Done:  E(RB3LYP) =  -5210.53029901     A.U. after   12 cycles
 SCF Done:  E(RB3LYP) =  -5210.53068151     A.U. after   11 cycles
 SCF Done:  E(RB3LYP) =  -5210.53077679     A.U. after   12 cycles
 SCF Done:  E(RB3LYP) =  -5210.53083589     A.U. after   11 cycles
 SCF Done:  E(RB3LYP) =  -5210.53086366     A.U. after   10 cycles
 SCF Done:  E(RB3LYP) =  -5210.53087590     A.U. after   10 cycles
 SCF Done:  E(RB3LYP) =  -5210.53087996     A.U. after    9 cycles
 SCF Done:  E(RB3LYP) =  -5210.53088122     A.U. after    9 cycles
 SCF Done:  E(RB3LYP) =  -5210.53088165     A.U. after    9 cycles
 SCF Done:  E(RB3LYP) =  -5210.53088179     A.U. after    6 cycles
 SCF Done:  E(RB3LYP) =  -5210.53088184     A.U. after    6 cycles
 SCF Done:  E(RB3LYP) =  -5210.53088186     A.U. after    6 cycles
 SCF Done:  E(RB3LYP) =  -5210.53088187     A.U. after    5 cycles
 Optimization completed.
    -- Stationary point found.

                         Standard orientation:
 ---------------------------------------------------------------------
 Center     Atomic      Atomic             Coordinates (Angstroms)
 Number     Number       Type             X           Y           Z
 ---------------------------------------------------------------------
      1          6           0       -9.173057   -0.679130    3.140094
      2          6           0       -9.922874   -1.512602    2.314422
      3          6           0       -9.768365   -1.430633    0.920909
      4          6           0      -10.608619   -2.283729    0.035290
      5          6           0      -11.997267   -2.326663    0.219884
      6          6           0      -12.826213   -3.120984   -0.581595
      7          6           0      -12.287111   -3.906271   -1.592705
      8          6           0      -10.901293   -3.900924   -1.805288
      9          6           0      -10.079218   -3.085980   -0.992056
     10         16           0       -8.363070   -3.265020   -1.395635
     11          6           0       -8.748047   -4.428161   -2.666646
     12          6           0       -7.828561   -5.066016   -3.502994
     13          6           0       -8.305820   -5.958245   -4.459398
     14          6           0       -9.681563   -6.209759   -4.580894
     15          6           0      -10.592545   -5.571763   -3.746654
     16          6           0      -10.135238   -4.668324   -2.774958
     17          6           0       -8.862270   -0.507718    0.382510
     18          6           0       -8.096138    0.330744    1.213794
     19          7           0       -7.214827    1.293821    0.668450
     20          6           0       -6.835676    2.435111    1.458277
     21          6           0       -5.542649    2.570284    1.907478
     22          6           0       -4.512130    1.525895    1.610509
     23          6           0       -4.564886    0.258527    2.256475
     24          6           0       -3.616419   -0.705954    2.004679
     25          6           0       -2.553494   -0.467355    1.092965
     26          6           0       -1.558248   -1.439133    0.812652
     27          6           0       -0.524388   -1.186688   -0.072083
     28          6           0        0.479665   -2.236909   -0.388989
     29          6           0        0.044115   -3.507515   -0.794103
     30          6           0        0.936257   -4.530068   -1.144557
     31          6           0        2.314611   -4.326673   -1.105925
     32          6           0        2.738676   -3.072529   -0.692048
     33          8           0        4.059073   -2.714023   -0.567175
     34          6           0        4.062233   -1.425607   -0.090385
     35          6           0        5.218392   -0.691960    0.197585
     36          7           0        6.518239   -1.225250   -0.011558
     37          6           0        7.529259   -0.452587   -0.626902
     38          6           0        8.888114   -0.726612   -0.393305
     39          6           0        9.883490    0.012952   -1.028551
     40          6           0        9.573989    1.062900   -1.902742
     41          6           0       10.646944    1.806432   -2.624219
     42          6           0       11.441744    1.088894   -3.525884
     43          6           0       12.430380    1.704931   -4.301143
     44          6           0       12.647145    3.073724   -4.200082
     45          6           0       11.876357    3.798038   -3.290190
     46         16           0       12.039859    5.532957   -3.014942
     47          6           0       10.808608    5.476076   -1.755438
     48          6           0       10.390486    6.570433   -0.995461
     49          6           0        9.438618    6.367906   -0.001528
     50          6           0        8.923251    5.084861    0.230149
     51          6           0        9.338017    3.999224   -0.533690
     52          6           0       10.285893    4.174288   -1.559298
     53          6           0       10.885145    3.197483   -2.473408
     54          6           0        8.214659    1.324360   -2.141212
     55          6           0        7.211263    0.583737   -1.527423
     56          6           0        6.845800   -2.524666    0.511050
     57          6           0        6.875760   -2.749719    1.867543
     58          6           0        6.587153   -1.651909    2.847615
     59          6           0        7.547937   -0.689749    3.098612
     60          6           0        7.329856    0.343873    4.039650
     61          6           0        6.148272    0.404467    4.739892
     62          6           0        5.130548   -0.562035    4.523676
     63          6           0        3.903329   -0.520092    5.239121
     64          6           0        2.921520   -1.457950    5.017936
     65          6           0        3.124528   -2.481763    4.062193
     66          6           0        4.302783   -2.552792    3.353189
     67          6           0        5.342872   -1.605207    3.561682
     68          6           0        7.246039   -4.061393    2.372228
     69          6           0        7.327737   -4.304379    3.766227
     70          6           0        7.708091   -5.535981    4.261780
     71          6           0        8.027351   -6.577025    3.374165
     72          6           0        7.964859   -6.363686    2.010097
     73          6           0        7.579141   -5.114395    1.469988
     74          6           0        7.516582   -4.871234    0.035975
     75          6           0        7.800194   -5.877993   -0.917661
     76          6           0        7.712930   -5.635145   -2.274955
     77          6           0        7.324661   -4.365933   -2.737246
     78          6           0        7.043717   -3.361831   -1.832437
     79          6           0        7.142406   -3.581803   -0.437993
     80          6           0        5.005893    0.597926    0.705206
     81          6           0        3.717113    1.111145    0.891848
     82          6           0        2.580365    0.361518    0.596932
     83          6           0        2.754448   -0.934425    0.093354
     84          6           0        1.874842   -2.021992   -0.324761
     85          6           0       -0.476096    0.081811   -0.721949
     86          6           0       -1.427066    1.043085   -0.473969
     87          6           0       -2.489350    0.804358    0.439791
     88          6           0       -3.481783    1.777486    0.722506
     89          6           0       -5.171341    3.725854    2.705935
     90          6           0       -3.856239    3.869350    3.215326
     91          6           0       -3.499272    4.950136    3.997670
     92          6           0       -4.453150    5.934014    4.305697
     93          6           0       -5.746024    5.811822    3.832784
     94          6           0       -6.145341    4.716384    3.031822
     95          6           0       -7.506657    4.570325    2.536823
     96          6           0       -8.516077    5.527339    2.799350
     97          6           0       -9.795272    5.387449    2.296727
     98          6           0      -10.116553    4.279497    1.493754
     99          6           0       -9.155713    3.326336    1.222331
    100          6           0       -7.844346    3.437634    1.742664
    101          6           0       -6.637698    1.123676   -0.618363
    102          6           0       -6.072131   -0.090933   -1.035392
    103          6           0       -5.505350   -0.246622   -2.306745
    104          6           0       -5.453799    0.808865   -3.214545
    105          6           0       -5.998406    2.036202   -2.823874
    106          6           0       -6.583975    2.166562   -1.550148
    107          8           0       -7.085101    3.432585   -1.349777
    108          6           0       -6.822477    4.134148   -2.504143
    109          6           0       -7.163243    5.461286   -2.724202
    110          6           0       -6.811785    5.999184   -3.963684
    111          6           0       -6.147371    5.228191   -4.932607
    112          6           0       -5.815484    3.896407   -4.688928
    113          6           0       -6.157695    3.336142   -3.452765
    114          6           0       -8.265248    0.232435    2.606402
    115          1           0       -9.286395   -0.742648    4.219198
    116          1           0      -10.612944   -2.235257    2.738824
    117          1           0      -12.434524   -1.707071    0.997583
    118          1           0      -13.898970   -3.118212   -0.410312
    119          1           0      -12.931300   -4.525645   -2.210743
    120          1           0       -6.763990   -4.871278   -3.409742
    121          1           0       -7.604254   -6.463429   -5.117523
    122          1           0      -10.036927   -6.908336   -5.333100
    123          1           0      -11.656208   -5.770966   -3.846928
    124          1           0       -8.774468   -0.414023   -0.693927
    125          1           0       -5.369452    0.056000    2.956427
    126          1           0       -3.669834   -1.667976    2.509140
    127          1           0       -1.607395   -2.398648    1.321983
    128          1           0       -1.024432   -3.688428   -0.864377
    129          1           0        0.545285   -5.492567   -1.461981
    130          1           0        3.027930   -5.097663   -1.376288
    131          1           0        9.168200   -1.528595    0.280429
    132          1           0       10.925348   -0.221586   -0.826600
    133          1           0       11.257494    0.024502   -3.639922
    134          1           0       13.019157    1.112326   -4.995865
    135          1           0       13.400257    3.568021   -4.806744
    136          1           0       10.807549    7.557625   -1.172956
    137          1           0        9.102111    7.207293    0.600807
    138          1           0        8.190682    4.932831    1.018039
    139          1           0        8.931536    3.016679   -0.332558
    140          1           0        7.937851    2.114451   -2.834232
    141          1           0        6.173322    0.802403   -1.752275
    142          1           0        8.491715   -0.727671    2.563077
    143          1           0        8.108543    1.082498    4.209818
    144          1           0        5.976725    1.191148    5.471027
    145          1           0        3.754141    0.273659    5.967657
    146          1           0        1.987551   -1.413317    5.571630
    147          1           0        2.342359   -3.214600    3.884052
    148          1           0        4.446301   -3.337888    2.617944
    149          1           0        7.090218   -3.501507    4.453965
    150          1           0        7.762373   -5.695540    5.335138
    151          1           0        8.328438   -7.548749    3.756138
    152          1           0        8.224727   -7.180718    1.346715
    153          1           0        8.088612   -6.869140   -0.586699
    154          1           0        7.937709   -6.429241   -2.981923
    155          1           0        7.240479   -4.174160   -3.803394
    156          1           0        6.731174   -2.388572   -2.188871
    157          1           0        5.869816    1.199186    0.966249
    158          1           0        3.606492    2.113777    1.294843
    159          1           0        1.590621    0.771284    0.758441
    160          1           0        0.318869    0.275585   -1.436102
    161          1           0       -1.382535    2.000787   -0.987156
    162          1           0       -3.427884    2.739005    0.217660
    163          1           0       -3.119586    3.108277    2.987529
    164          1           0       -2.483900    5.034498    4.375258
    165          1           0       -4.180248    6.788326    4.919269
    166          1           0       -6.465198    6.580485    4.091523
    167          1           0       -8.290481    6.398106    3.404234
    168          1           0      -10.548061    6.139561    2.517049
    169          1           0      -11.116634    4.173364    1.082586
    170          1           0       -9.400780    2.481003    0.592078
    171          1           0       -6.070437   -0.923948   -0.341490
    172          1           0       -5.083245   -1.210289   -2.576008
    173          1           0       -5.006488    0.681150   -4.195737
    174          1           0       -7.676421    6.041821   -1.964967
    175          1           0       -7.057887    7.034661   -4.181365
    176          1           0       -5.889402    5.678926   -5.886709
    177          1           0       -5.302415    3.306890   -5.443737
    178          1           0       -7.697201    0.878676    3.265967
 ---------------------------------------------------------------------

 The electronic state is 1-A.
 Alpha  occ. eigenvalues --  -88.89787 -88.89519 -19.20814 -19.20603 -14.36628
 Alpha  occ. eigenvalues --  -14.36606 -10.24735 -10.24551 -10.24465 -10.24454
 Alpha  occ. eigenvalues --  -10.23251 -10.23233 -10.23233 -10.23171 -10.23074
 Alpha  occ. eigenvalues --  -10.23033 -10.22307 -10.22127 -10.22019 -10.21904
 Alpha  occ. eigenvalues --  -10.20675 -10.20500 -10.20424 -10.20401 -10.20283
 Alpha  occ. eigenvalues --  -10.20197 -10.20173 -10.20151 -10.20146 -10.20144
 Alpha  occ. eigenvalues --  -10.20106 -10.20097 -10.20096 -10.20094 -10.20078
 Alpha  occ. eigenvalues --  -10.20062 -10.20035 -10.20025 -10.19949 -10.19947
 Alpha  occ. eigenvalues --  -10.19934 -10.19924 -10.19896 -10.19850 -10.19820
 Alpha  occ. eigenvalues --  -10.19740 -10.19693 -10.19657 -10.19626 -10.19600
 Alpha  occ. eigenvalues --  -10.19553 -10.19515 -10.19510 -10.19485 -10.19409
 Alpha  occ. eigenvalues --  -10.19403 -10.19391 -10.19342 -10.19334 -10.19328
 Alpha  occ. eigenvalues --  -10.19316 -10.19248 -10.19242 -10.19236 -10.19164
 Alpha  occ. eigenvalues --  -10.19144 -10.19134 -10.19098 -10.19080 -10.19071
 Alpha  occ. eigenvalues --  -10.19055 -10.19032 -10.19031 -10.19030 -10.19005
 Alpha  occ. eigenvalues --  -10.18997 -10.18992 -10.18984 -10.18961 -10.18949
 Alpha  occ. eigenvalues --  -10.18946 -10.18936 -10.18935 -10.18925 -10.18915
 Alpha  occ. eigenvalues --  -10.18909 -10.18885 -10.18883 -10.18873 -10.18870
 Alpha  occ. eigenvalues --  -10.18842 -10.18841 -10.18834 -10.18802 -10.18801
 Alpha  occ. eigenvalues --  -10.18775 -10.18738 -10.18725 -10.18725 -10.18714
 Alpha  occ. eigenvalues --  -10.18692 -10.18676 -10.18662 -10.18626 -10.18543
 Alpha  occ. eigenvalues --  -10.18520 -10.18514 -10.18502 -10.18495 -10.18464
 Alpha  occ. eigenvalues --  -10.18449 -10.18440 -10.18426 -10.18181  -7.95838
 Alpha  occ. eigenvalues --   -7.95647  -5.92296  -5.92095  -5.91940  -5.91749
 Alpha  occ. eigenvalues --   -5.91433  -5.91238  -1.10590  -1.10248  -0.96456
 Alpha  occ. eigenvalues --   -0.96443  -0.89544  -0.89182  -0.88246  -0.88185
 Alpha  occ. eigenvalues --   -0.87652  -0.86919  -0.86288  -0.86064  -0.85798
 Alpha  occ. eigenvalues --   -0.85775  -0.85036  -0.85006  -0.84522  -0.84465
 Alpha  occ. eigenvalues --   -0.84057  -0.84023  -0.82966  -0.82172  -0.80832
 Alpha  occ. eigenvalues --   -0.80766  -0.80507  -0.80405  -0.78726  -0.78530
 Alpha  occ. eigenvalues --   -0.77968  -0.77925  -0.77917  -0.77719  -0.77514
 Alpha  occ. eigenvalues --   -0.76645  -0.76408  -0.76109  -0.75769  -0.75664
 Alpha  occ. eigenvalues --   -0.75290  -0.74992  -0.74537  -0.74315  -0.74088
 Alpha  occ. eigenvalues --   -0.73655  -0.73383  -0.73192  -0.72965  -0.72752
 Alpha  occ. eigenvalues --   -0.72630  -0.72384  -0.72265  -0.72168  -0.71861
 Alpha  occ. eigenvalues --   -0.71820  -0.71292  -0.71189  -0.70073  -0.70040
 Alpha  occ. eigenvalues --   -0.69650  -0.69186  -0.65459  -0.64639  -0.64166
 Alpha  occ. eigenvalues --   -0.64103  -0.63731  -0.63193  -0.63142  -0.62956
 Alpha  occ. eigenvalues --   -0.62685  -0.62287  -0.62050  -0.61646  -0.61546
 Alpha  occ. eigenvalues --   -0.61439  -0.61291  -0.61088  -0.60840  -0.60323
 Alpha  occ. eigenvalues --   -0.60122  -0.59896  -0.59459  -0.59189  -0.58901
 Alpha  occ. eigenvalues --   -0.58687  -0.58656  -0.58482  -0.58271  -0.58150
 Alpha  occ. eigenvalues --   -0.57878  -0.57455  -0.57367  -0.57093  -0.56368
 Alpha  occ. eigenvalues --   -0.56145  -0.53900  -0.53785  -0.53624  -0.53544
 Alpha  occ. eigenvalues --   -0.53099  -0.52930  -0.52783  -0.52561  -0.51821
 Alpha  occ. eigenvalues --   -0.51592  -0.51226  -0.50903  -0.50720  -0.50537
 Alpha  occ. eigenvalues --   -0.50230  -0.49992  -0.49706  -0.49540  -0.49304
 Alpha  occ. eigenvalues --   -0.49089  -0.48978  -0.48813  -0.48673  -0.48350
 Alpha  occ. eigenvalues --   -0.48106  -0.47913  -0.47853  -0.47477  -0.47394
 Alpha  occ. eigenvalues --   -0.47082  -0.46691  -0.46359  -0.46054  -0.45806
 Alpha  occ. eigenvalues --   -0.45696  -0.45629  -0.45554  -0.45302  -0.45207
 Alpha  occ. eigenvalues --   -0.44843  -0.44707  -0.44592  -0.44506  -0.44330
 Alpha  occ. eigenvalues --   -0.44125  -0.44027  -0.43906  -0.43760  -0.43737
 Alpha  occ. eigenvalues --   -0.43603  -0.43415  -0.43293  -0.43279  -0.43144
 Alpha  occ. eigenvalues --   -0.42851  -0.42801  -0.42756  -0.42510  -0.42449
 Alpha  occ. eigenvalues --   -0.42299  -0.42236  -0.42072  -0.41974  -0.41935
 Alpha  occ. eigenvalues --   -0.41849  -0.41774  -0.41738  -0.41686  -0.41657
 Alpha  occ. eigenvalues --   -0.41482  -0.41418  -0.41286  -0.40632  -0.40549
 Alpha  occ. eigenvalues --   -0.40476  -0.40256  -0.40138  -0.40075  -0.39871
 Alpha  occ. eigenvalues --   -0.39556  -0.39294  -0.38968  -0.38871  -0.38722
 Alpha  occ. eigenvalues --   -0.38355  -0.37980  -0.37772  -0.37444  -0.37375
 Alpha  occ. eigenvalues --   -0.37203  -0.37149  -0.37074  -0.36982  -0.36874
 Alpha  occ. eigenvalues --   -0.36795  -0.36596  -0.36428  -0.36409  -0.36313
 Alpha  occ. eigenvalues --   -0.36045  -0.35997  -0.35900  -0.35830  -0.35767
 Alpha  occ. eigenvalues --   -0.35662  -0.35607  -0.35563  -0.35477  -0.35428
 Alpha  occ. eigenvalues --   -0.35126  -0.35074  -0.34841  -0.34789  -0.34573
 Alpha  occ. eigenvalues --   -0.34296  -0.34074  -0.33858  -0.33854  -0.33690
 Alpha  occ. eigenvalues --   -0.33588  -0.33579  -0.33485  -0.33357  -0.33184
 Alpha  occ. eigenvalues --   -0.33075  -0.32654  -0.32493  -0.32236  -0.32174
 Alpha  occ. eigenvalues --   -0.32087  -0.31898  -0.31192  -0.31086  -0.31002
 Alpha  occ. eigenvalues --   -0.30624  -0.30230  -0.30072  -0.28732  -0.28542
 Alpha  occ. eigenvalues --   -0.28199  -0.28079  -0.28057  -0.27879  -0.27778
 Alpha  occ. eigenvalues --   -0.27664  -0.26459  -0.26151  -0.26059  -0.25878
 Alpha  occ. eigenvalues --   -0.25612  -0.25250  -0.24802  -0.24332  -0.24114
 Alpha  occ. eigenvalues --   -0.23952  -0.22927  -0.22885  -0.22355  -0.22185
 Alpha  occ. eigenvalues --   -0.22185  -0.22110  -0.21925  -0.21853  -0.21659
 Alpha  occ. eigenvalues --   -0.21480  -0.21031  -0.20849  -0.20810  -0.20683
 Alpha  occ. eigenvalues --   -0.18820  -0.18608
 Alpha virt. eigenvalues --   -0.05051  -0.04475  -0.04170  -0.03744  -0.03635
 Alpha virt. eigenvalues --   -0.03520  -0.03428  -0.03189  -0.03008  -0.02852
 Alpha virt. eigenvalues --   -0.01661  -0.01317  -0.00836  -0.00512  -0.00265

 Mulliken charges:
               1
     1  C   -0.141108
     2  C   -0.172001
     3  C    0.061201
     4  C    0.045381
     5  C   -0.154256
     6  C   -0.148633
     7  C   -0.167051
     8  C    0.112780
     9  C   -0.218023
    10  S    0.224311
    11  C   -0.140097
    12  C   -0.186530
    13  C   -0.113685
    14  C   -0.148318
    15  C   -0.164293
    16  C    0.098817
    17  C   -0.233716
    18  C    0.324431
    19  N   -0.682542
    20  C    0.135157
    21  C   -0.011561
    22  C    0.034001
    23  C   -0.152937
    24  C   -0.203637
    25  C    0.146000
    26  C   -0.251335
    27  C    0.080263
    28  C    0.017836
    29  C   -0.184251
    30  C   -0.141190
    31  C   -0.203363
    32  C    0.330009
    33  O   -0.557365
    34  C    0.275041
    35  C    0.217008
    36  N   -0.679816
    37  C    0.325357
    38  C   -0.191162
    39  C   -0.173954
    40  C    0.043368
    41  C    0.035643
    42  C   -0.182963
    43  C   -0.116744
    44  C   -0.180152
    45  C   -0.148897
    46  S    0.204184
    47  C   -0.142059
    48  C   -0.184324
    49  C   -0.114008
    50  C   -0.150372
    51  C   -0.173799
    52  C    0.104539
    53  C    0.063609
    54  C   -0.173668
    55  C   -0.181879
    56  C    0.143459
    57  C   -0.031197
    58  C   -0.024924
    59  C   -0.163904
    60  C   -0.145163
    61  C   -0.185694
    62  C    0.131333
    63  C   -0.194846
    64  C   -0.130797
    65  C   -0.132660
    66  C   -0.193637
    67  C    0.118564
    68  C    0.091334
    69  C   -0.207597
    70  C   -0.129257
    71  C   -0.134120
    72  C   -0.199183
    73  C    0.077472
    74  C    0.043915
    75  C   -0.196439
    76  C   -0.135324
    77  C   -0.135785
    78  C   -0.187122
    79  C    0.153201
    80  C   -0.162651
    81  C   -0.153330
    82  C   -0.195100
    83  C    0.100228
    84  C    0.010731
    85  C   -0.178474
    86  C   -0.196423
    87  C    0.149597
    88  C   -0.230862
    89  C    0.090354
    90  C   -0.214373
    91  C   -0.128586
    92  C   -0.134203
    93  C   -0.198931
    94  C    0.077582
    95  C    0.043741
    96  C   -0.196625
    97  C   -0.135089
    98  C   -0.136009
    99  C   -0.187610
   100  C    0.157674
   101  C    0.219991
   102  C   -0.159696
   103  C   -0.147174
   104  C   -0.192148
   105  C    0.098033
   106  C    0.273942
   107  O   -0.555116
   108  C    0.330643
   109  C   -0.203108
   110  C   -0.137710
   111  C   -0.144484
   112  C   -0.192481
   113  C    0.067761
   114  C   -0.185312
   115  H    0.131755
   116  H    0.130373
   117  H    0.135608
   118  H    0.131767
   119  H    0.132654
   120  H    0.138973
   121  H    0.131631
   122  H    0.131196
   123  H    0.133028
   124  H    0.165012
   125  H    0.139984
   126  H    0.134104
   127  H    0.134733
   128  H    0.131648
   129  H    0.134488
   130  H    0.153615
   131  H    0.146459
   132  H    0.136155
   133  H    0.135404
   134  H    0.132362
   135  H    0.140191
   136  H    0.139354
   137  H    0.130005
   138  H    0.127748
   139  H    0.158845
   140  H    0.140721
   141  H    0.147302
   142  H    0.138960
   143  H    0.132501
   144  H    0.128308
   145  H    0.127643
   146  H    0.129347
   147  H    0.132388
   148  H    0.149689
   149  H    0.152027
   150  H    0.131394
   151  H    0.129592
   152  H    0.133735
   153  H    0.133411
   154  H    0.128824
   155  H    0.130808
   156  H    0.149929
   157  H    0.146280
   158  H    0.130814
   159  H    0.151252
   160  H    0.144234
   161  H    0.136977
   162  H    0.142125
   163  H    0.148916
   164  H    0.129938
   165  H    0.129449
   166  H    0.134046
   167  H    0.133128
   168  H    0.128680
   169  H    0.131124
   170  H    0.151408
   171  H    0.154180
   172  H    0.131028
   173  H    0.131947
   174  H    0.152449
   175  H    0.132879
   176  H    0.129650
   177  H    0.135232
   178  H    0.144939
 Sum of Mulliken charges =  -0.00000

 Dipole moment (field-independent basis, Debye):
    X=             -2.1803    Y=             -1.0043    Z=              0.4065  Tot=              2.4347
 Quadrupole moment (field-independent basis, Debye-Ang):
   XX=           -647.0297   YY=           -606.9081   ZZ=           -623.3514
   XY=            -19.9683   XZ=              1.9150   YZ=             21.0897

 Normal termination of Gaussian 16 at Sat Nov  5 04:52:31 2022.
