 Gaussian 16, Revision B.01,
 Gaussian 16:  ES64L-G16RevB.01 20-Dec-2017

 -------------------------------------------------------------------
 #p b3lyp/6-31g(d) 6D 10F nosymm GFInput td=(50-50,nstate=2) SCF=XQC
 -------------------------------------------------------------------

 ------------------------------
 Gaussian input prepared by ASE
 ------------------------------
 Symbolic Z-matrix:
 Charge =  0 Multiplicity = 1

                          Input orientation:
 ---------------------------------------------------------------------
 Center     Atomic      Atomic             Coordinates (Angstroms)
 Number     Number       Type             X           Y           Z
 ---------------------------------------------------------------------
      1          6           0        8.392799   -4.676651   -0.786107
      2          6           0        9.169817   -4.496833    0.355184
      3          6           0        9.249557   -3.225859    0.947414
      4          6           0       10.122750   -3.020817    2.136369
      5          6           0       11.451147   -3.466965    2.112396
      6          6           0       12.306194   -3.304961    3.209261
      7          6           0       11.853373   -2.694973    4.372240
      8          6           0       10.528138   -2.242747    4.442659
      9          6           0        9.680196   -2.406593    3.322197
     10         16           0        8.041315   -1.812074    3.639545
     11          6           0        8.495651   -1.331552    5.276387
     12          6           0        7.657710   -0.730568    6.218972
     13          6           0        8.181787   -0.412951    7.469180
     14          6           0        9.523736   -0.689706    7.774578
     15          6           0       10.353684   -1.287172    6.832716
     16          6           0        9.847960   -1.616592    5.565731
     17          6           0        8.546656   -2.156294    0.377666
     18          6           0        7.753276   -2.335495   -0.771005
     19          7           0        7.080162   -1.245952   -1.372205
     20          6           0        6.705979   -1.322375   -2.759386
     21          6           0        5.380248   -1.398715   -3.117967
     22          6           0        4.303125   -1.431775   -2.078919
     23          6           0        4.114171   -2.591035   -1.274747
     24          6           0        3.119022   -2.641564   -0.325884
     25          6           0        2.247533   -1.538940   -0.119273
     26          6           0        1.210244   -1.559270    0.848745
     27          6           0        0.364470   -0.479058    1.030846
     28          6           0       -0.684136   -0.502712    2.085067
     29          6           0       -0.330067   -0.829601    3.402655
     30          6           0       -1.260507   -0.832878    4.450806
     31          6           0       -2.597016   -0.506539    4.227265
     32          6           0       -2.943001   -0.197105    2.920151
     33          8           0       -4.219568    0.116035    2.520289
     34          6           0       -4.158888    0.306296    1.161071
     35          6           0       -5.259611    0.622153    0.357011
     36          7           0       -6.559522    0.803524    0.900220
     37          6           0       -7.369405    1.889554    0.497171
     38          6           0       -8.769739    1.821030    0.599714
     39          6           0       -9.564690    2.905788    0.235548
     40          6           0       -9.007469    4.091025   -0.261554
     41          6           0       -9.864343    5.266983   -0.589412
     42          6           0      -10.578167    5.863219    0.456783
     43          6           0      -11.357566    7.009911    0.268202
     44          6           0      -11.437770    7.603088   -0.985793
     45          6           0      -10.748083    7.007523   -2.042337
     46         16           0      -10.764079    7.610953   -3.700062
     47          6           0       -9.763217    6.260545   -4.229441
     48          6           0       -9.355454    6.034840   -5.545798
     49          6           0       -8.602141    4.899402   -5.825569
     50          6           0       -8.272757    4.001626   -4.800393
     51          6           0       -8.675664    4.234090   -3.489776
     52          6           0       -9.422986    5.383290   -3.170659
     53          6           0       -9.971104    5.831714   -1.887174
     54          6           0       -7.607255    4.157800   -0.350726
     55          6           0       -6.801125    3.089531    0.024797
     56          6           0       -7.105428   -0.191137    1.784262
     57          6           0       -7.375793   -1.461490    1.331797
     58          6           0       -7.129867   -1.850717   -0.095454
     59          6           0       -8.008177   -1.433829   -1.078629
     60          6           0       -7.832189   -1.805765   -2.432209
     61          6           0       -6.778031   -2.608989   -2.797906
     62          6           0       -5.849876   -3.068867   -1.826476
     63          6           0       -4.755394   -3.902687   -2.182203
     64          6           0       -3.858574   -4.338009   -1.234226
     65          6           0       -4.016361   -3.951696    0.118073
     66          6           0       -5.066986   -3.146417    0.497189
     67          6           0       -6.017907   -2.684403   -0.454370
     68          6           0       -7.962082   -2.438194    2.234358
     69          6           0       -8.291146   -3.739356    1.778680
     70          6           0       -8.877170   -4.668873    2.615137
     71          6           0       -9.161767   -4.327087    3.947709
     72          6           0       -8.859544   -3.061909    4.414710
     73          6           0       -8.259225   -2.086702    3.584160
     74          6           0       -7.942533   -0.747237    4.058474
     75          6           0       -8.177892   -0.339301    5.393245
     76          6           0       -7.849241    0.929041    5.831578
     77          6           0       -7.256677    1.845872    4.946337
     78          6           0       -7.016431    1.479363    3.637222
     79          6           0       -7.359738    0.191819    3.160805
     80          6           0       -4.992091    0.745058   -1.014108
     81          6           0       -3.701625    0.575871   -1.529141
     82          6           0       -2.620575    0.262282   -0.708101
     83          6           0       -2.851705    0.125681    0.667138
     84          6           0       -2.039985   -0.189863    1.838834
     85          6           0        0.558550    0.683237    0.227633
     86          6           0        1.556416    0.735084   -0.716539
     87          6           0        2.426935   -0.369243   -0.924028
     88          6           0        3.461227   -0.349816   -1.894437
     89          6           0        5.013935   -1.477432   -4.521663
     90          6           0        3.657839   -1.597610   -4.916790
     91          6           0        3.300050   -1.700070   -6.246856
     92          6           0        4.293638   -1.690072   -7.239560
     93          6           0        5.624414   -1.587174   -6.881024
     94          6           0        6.025138   -1.483613   -5.528369
     95          6           0        7.424003   -1.385934   -5.136994
     96          6           0        8.476435   -1.359862   -6.083267
     97          6           0        9.796610   -1.236945   -5.695236
     98          6           0       10.119729   -1.122499   -4.332136
     99          6           0        9.116801   -1.148425   -3.384052
    100          6           0        7.759128   -1.293793   -3.756084
    101          6           0        6.700827   -0.103568   -0.617898
    102          6           0        6.080593   -0.201731    0.636984
    103          6           0        5.710513    0.932065    1.371400
    104          6           0        5.919440    2.218257    0.878581
    105          6           0        6.524698    2.349141   -0.375257
    106          6           0        6.910084    1.197868   -1.088215
    107          8           0        7.507256    1.519446   -2.285739
    108          6           0        7.510013    2.893879   -2.353921
    109          6           0        8.023589    3.637747   -3.406890
    110          6           0        7.935001    5.026347   -3.292377
    111          6           0        7.354042    5.630656   -2.164555
    112          6           0        6.844903    4.862523   -1.118644
    113          6           0        6.922519    3.468126   -1.212114
    114          6           0        7.686232   -3.616117   -1.348180
    115          1           0        8.324853   -5.659672   -1.244801
    116          1           0        9.700698   -5.333029    0.799577
    117          1           0       11.823308   -3.933207    1.204642
    118          1           0       13.331730   -3.657606    3.145466
    119          1           0       12.516851   -2.574203    5.224170
    120          1           0        6.619424   -0.515698    5.982916
    121          1           0        7.543623    0.054226    8.214182
    122          1           0        9.916640   -0.434588    8.754706
    123          1           0       11.391716   -1.497888    7.076035
    124          1           0        8.642508   -1.166398    0.809086
    125          1           0        4.769880   -3.444379   -1.416607
    126          1           0        2.986455   -3.536287    0.278034
    127          1           0        1.072985   -2.456207    1.448049
    128          1           0        0.709954   -1.058619    3.615652
    129          1           0       -0.930724   -1.083119    5.455118
    130          1           0       -3.337469   -0.495911    5.019706
    131          1           0       -9.239178    0.918919    0.975703
    132          1           0      -10.644650    2.822120    0.324681
    133          1           0      -10.494745    5.429549    1.449181
    134          1           0      -11.888712    7.446219    1.109628
    135          1           0      -12.026206    8.502171   -1.143704
    136          1           0       -9.629155    6.728889   -6.335341
    137          1           0       -8.276978    4.706480   -6.844228
    138          1           0       -7.696244    3.109759   -5.030062
    139          1           0       -8.415615    3.523836   -2.715832
    140          1           0       -7.139246    5.071641   -0.707106
    141          1           0       -5.723075    3.186316   -0.039516
    142          1           0       -8.852832   -0.807899   -0.807112
    143          1           0       -8.543195   -1.458395   -3.176979
    144          1           0       -6.641007   -2.906015   -3.835140
    145          1           0       -4.639126   -4.189875   -3.224828
    146          1           0       -3.025714   -4.974601   -1.520517
    147          1           0       -3.300037   -4.290151    0.861647
    148          1           0       -5.175681   -2.850487    1.535537
    149          1           0       -8.080705   -4.004034    0.749281
    150          1           0       -9.119092   -5.659555    2.240269
    151          1           0       -9.623668   -5.052494    4.611964
    152          1           0       -9.097339   -2.820574    5.444447
    153          1           0       -8.621328   -1.032168    6.099214
    154          1           0       -8.043158    1.211968    6.862726
    155          1           0       -6.983070    2.839619    5.290054
    156          1           0       -6.547200    2.181238    2.959614
    157          1           0       -5.816150    0.966242   -1.683454
    158          1           0       -3.548554    0.674616   -2.599996
    159          1           0       -1.630741    0.123955   -1.126050
    160          1           0       -0.086423    1.542913    0.384160
    161          1           0        1.698623    1.633618   -1.312317
    162          1           0        3.593325    0.545098   -2.497739
    163          1           0        2.888774   -1.614620   -4.153882
    164          1           0        2.252664   -1.791633   -6.521211
    165          1           0        4.020683   -1.768668   -8.288423
    166          1           0        6.372215   -1.589977   -7.665744
    167          1           0        8.253070   -1.432364   -7.141503
    168          1           0       10.581729   -1.220764   -6.446390
    169          1           0       11.155107   -1.009169   -4.022889
    170          1           0        9.366082   -1.045891   -2.335619
    171          1           0        5.877720   -1.189211    1.035911
    172          1           0        5.234700    0.795885    2.338037
    173          1           0        5.623303    3.091658    1.451826
    174          1           0        8.468950    3.154633   -4.270062
    175          1           0        8.323647    5.650235   -4.092304
    176          1           0        7.302165    6.714249   -2.108364
    177          1           0        6.397967    5.337604   -0.249706
    178          1           0        7.093751   -3.774827   -2.242109
 ---------------------------------------------------------------------

 SCF Done:  E(RB3LYP) =  -5210.53088224     A.U. after   16 cycles

 Excitation energies and oscillator strengths:

 Excited state symmetry could not be determined.
 Excited State   1:      Triplet-?Sym    2.5788 eV  480.79 nm  f=0.0000  <S**2>=2.000
     374 -> 390        0.10494
     380 -> 390       -0.21805
     382 -> 388        0.13055
     383 -> 388        0.13536
     385 -> 388       -0.33689
     386 -> 388        0.21903
     386 -> 389       -0.10125
     386 -> 390        0.25859
 This state for optimization and/or second-order correction.
 Total Energy, E(TD-HF/TD-DFT) =  -5210.43611462
 Copying the excited state density for this state as the 1-particle RhoCI density.

 Excited state symmetry could not be determined.
 Excited State   2:      Triplet-?Sym    2.6078 eV  475.44 nm  f=0.0000  <S**2>=2.000
     375 -> 395        0.10341
     381 -> 389       -0.31188
     381 -> 392       -0.15799
     382 -> 389        0.16276
     384 -> 389        0.13018
     387 -> 388        0.12201
     387 -> 389        0.38066

 Excited state symmetry could not be determined.
 Excited State   3:      Singlet-?Sym    3.1983 eV  387.66 nm  f=0.0916  <S**2>=0.000
     386 -> 388        0.58190
     386 -> 389       -0.14413
     386 -> 390        0.21323
     387 -> 388       -0.13981
     387 -> 389       -0.24548

 Excited state symmetry could not be determined.
 Excited State   4:      Singlet-?Sym    3.2038 eV  386.99 nm  f=0.0873  <S**2>=0.000
     386 -> 388        0.25891
     387 -> 388        0.28862
     387 -> 389        0.56188

 Alpha  occ. eigenvalues --  -88.89786 -88.89519 -19.20814 -19.20603 -14.36628
 Alpha  occ. eigenvalues --  -14.36606 -10.24735 -10.24551 -10.24465 -10.24454
 Alpha  occ. eigenvalues --  -10.23251 -10.23233 -10.23233 -10.23171 -10.23074
 Alpha  occ. eigenvalues --  -10.23033 -10.22307 -10.22126 -10.22019 -10.21904
 Alpha  occ. eigenvalues --  -10.20676 -10.20500 -10.20424 -10.20402 -10.20283
 Alpha  occ. eigenvalues --  -10.20197 -10.20173 -10.20151 -10.20146 -10.20144
 Alpha  occ. eigenvalues --  -10.20107 -10.20097 -10.20096 -10.20094 -10.20078
 Alpha  occ. eigenvalues --  -10.20062 -10.20035 -10.20024 -10.19949 -10.19947
 Alpha  occ. eigenvalues --  -10.19934 -10.19924 -10.19896 -10.19850 -10.19820
 Alpha  occ. eigenvalues --  -10.19739 -10.19693 -10.19657 -10.19626 -10.19600
 Alpha  occ. eigenvalues --  -10.19553 -10.19515 -10.19510 -10.19485 -10.19409
 Alpha  occ. eigenvalues --  -10.19403 -10.19391 -10.19341 -10.19334 -10.19328
 Alpha  occ. eigenvalues --  -10.19316 -10.19248 -10.19242 -10.19236 -10.19164
 Alpha  occ. eigenvalues --  -10.19144 -10.19134 -10.19097 -10.19080 -10.19071
 Alpha  occ. eigenvalues --  -10.19055 -10.19032 -10.19031 -10.19030 -10.19005
 Alpha  occ. eigenvalues --  -10.18997 -10.18992 -10.18984 -10.18961 -10.18949
 Alpha  occ. eigenvalues --  -10.18946 -10.18936 -10.18935 -10.18925 -10.18915
 Alpha  occ. eigenvalues --  -10.18909 -10.18885 -10.18883 -10.18873 -10.18870
 Alpha  occ. eigenvalues --  -10.18842 -10.18841 -10.18834 -10.18801 -10.18801
 Alpha  occ. eigenvalues --  -10.18775 -10.18738 -10.18725 -10.18725 -10.18714
 Alpha  occ. eigenvalues --  -10.18692 -10.18676 -10.18662 -10.18626 -10.18543
 Alpha  occ. eigenvalues --  -10.18520 -10.18514 -10.18502 -10.18495 -10.18464
 Alpha  occ. eigenvalues --  -10.18449 -10.18440 -10.18426 -10.18181  -7.95838
 Alpha  occ. eigenvalues --   -7.95647  -5.92295  -5.92095  -5.91939  -5.91749
 Alpha  occ. eigenvalues --   -5.91432  -5.91238  -1.10590  -1.10248  -0.96456
 Alpha  occ. eigenvalues --   -0.96443  -0.89544  -0.89182  -0.88246  -0.88185
 Alpha  occ. eigenvalues --   -0.87652  -0.86919  -0.86288  -0.86064  -0.85798
 Alpha  occ. eigenvalues --   -0.85775  -0.85036  -0.85006  -0.84522  -0.84465
 Alpha  occ. eigenvalues --   -0.84057  -0.84023  -0.82966  -0.82172  -0.80832
 Alpha  occ. eigenvalues --   -0.80766  -0.80507  -0.80405  -0.78726  -0.78530
 Alpha  occ. eigenvalues --   -0.77968  -0.77925  -0.77917  -0.77719  -0.77514
 Alpha  occ. eigenvalues --   -0.76645  -0.76408  -0.76109  -0.75769  -0.75664
 Alpha  occ. eigenvalues --   -0.75290  -0.74992  -0.74537  -0.74315  -0.74088
 Alpha  occ. eigenvalues --   -0.73655  -0.73383  -0.73192  -0.72965  -0.72752
 Alpha  occ. eigenvalues --   -0.72630  -0.72384  -0.72265  -0.72168  -0.71861
 Alpha  occ. eigenvalues --   -0.71820  -0.71292  -0.71189  -0.70073  -0.70040
 Alpha  occ. eigenvalues --   -0.69650  -0.69186  -0.65459  -0.64639  -0.64166
 Alpha  occ. eigenvalues --   -0.64103  -0.63731  -0.63193  -0.63142  -0.62956
 Alpha  occ. eigenvalues --   -0.62685  -0.62287  -0.62050  -0.61646  -0.61546
 Alpha  occ. eigenvalues --   -0.61439  -0.61291  -0.61088  -0.60840  -0.60323
 Alpha  occ. eigenvalues --   -0.60122  -0.59896  -0.59459  -0.59189  -0.58901
 Alpha  occ. eigenvalues --   -0.58687  -0.58656  -0.58482  -0.58271  -0.58150
 Alpha  occ. eigenvalues --   -0.57878  -0.57455  -0.57367  -0.57093  -0.56368
 Alpha  occ. eigenvalues --   -0.56145  -0.53900  -0.53785  -0.53624  -0.53544
 Alpha  occ. eigenvalues --   -0.53099  -0.52930  -0.52783  -0.52561  -0.51821
 Alpha  occ. eigenvalues --   -0.51592  -0.51226  -0.50903  -0.50720  -0.50537
 Alpha  occ. eigenvalues --   -0.50230  -0.49992  -0.49706  -0.49540  -0.49304
 Alpha  occ. eigenvalues --   -0.49089  -0.48978  -0.48813  -0.48673  -0.48350
 Alpha  occ. eigenvalues --   -0.48106  -0.47913  -0.47853  -0.47477  -0.47394
 Alpha  occ. eigenvalues --   -0.47082  -0.46691  -0.46359  -0.46054  -0.45806
 Alpha  occ. eigenvalues --   -0.45696  -0.45629  -0.45554  -0.45302  -0.45207
 Alpha  occ. eigenvalues --   -0.44843  -0.44707  -0.44592  -0.44506  -0.44330
 Alpha  occ. eigenvalues --   -0.44125  -0.44027  -0.43906  -0.43760  -0.43737
 Alpha  occ. eigenvalues --   -0.43603  -0.43415  -0.43293  -0.43279  -0.43144
 Alpha  occ. eigenvalues --   -0.42851  -0.42801  -0.42756  -0.42510  -0.42449
 Alpha  occ. eigenvalues --   -0.42299  -0.42236  -0.42072  -0.41974  -0.41935
 Alpha  occ. eigenvalues --   -0.41849  -0.41774  -0.41738  -0.41686  -0.41657
 Alpha  occ. eigenvalues --   -0.41482  -0.41418  -0.41286  -0.40632  -0.40549
 Alpha  occ. eigenvalues --   -0.40476  -0.40256  -0.40138  -0.40075  -0.39871
 Alpha  occ. eigenvalues --   -0.39556  -0.39294  -0.38968  -0.38871  -0.38722
 Alpha  occ. eigenvalues --   -0.38355  -0.37980  -0.37772  -0.37444  -0.37375
 Alpha  occ. eigenvalues --   -0.37203  -0.37149  -0.37074  -0.36982  -0.36874
 Alpha  occ. eigenvalues --   -0.36795  -0.36596  -0.36428  -0.36409  -0.36313
 Alpha  occ. eigenvalues --   -0.36045  -0.35997  -0.35900  -0.35830  -0.35767
 Alpha  occ. eigenvalues --   -0.35662  -0.35607  -0.35563  -0.35477  -0.35428
 Alpha  occ. eigenvalues --   -0.35126  -0.35074  -0.34841  -0.34789  -0.34573
 Alpha  occ. eigenvalues --   -0.34296  -0.34074  -0.33858  -0.33854  -0.33690
 Alpha  occ. eigenvalues --   -0.33588  -0.33579  -0.33485  -0.33357  -0.33184
 Alpha  occ. eigenvalues --   -0.33075  -0.32654  -0.32493  -0.32236  -0.32174
 Alpha  occ. eigenvalues --   -0.32087  -0.31898  -0.31192  -0.31086  -0.31001
 Alpha  occ. eigenvalues --   -0.30624  -0.30230  -0.30072  -0.28732  -0.28542
 Alpha  occ. eigenvalues --   -0.28199  -0.28079  -0.28057  -0.27879  -0.27778
 Alpha  occ. eigenvalues --   -0.27664  -0.26459  -0.26151  -0.26059  -0.25878
 Alpha  occ. eigenvalues --   -0.25612  -0.25250  -0.24802  -0.24332  -0.24114
 Alpha  occ. eigenvalues --   -0.23952  -0.22927  -0.22885  -0.22356  -0.22185
 Alpha  occ. eigenvalues --   -0.22185  -0.22110  -0.21925  -0.21853  -0.21659
 Alpha  occ. eigenvalues --   -0.21480  -0.21031  -0.20849  -0.20810  -0.20683
 Alpha  occ. eigenvalues --   -0.18820  -0.18608
 Alpha virt. eigenvalues --   -0.05051  -0.04475  -0.04170  -0.03744  -0.03635
 Alpha virt. eigenvalues --   -0.03520  -0.03428  -0.03189  -0.03008  -0.02852
 Alpha virt. eigenvalues --   -0.01660  -0.01317  -0.00836  -0.00512  -0.00265

 Mulliken charges:
               1
     1  C   -0.141108
     2  C   -0.171999
     3  C    0.061194
     4  C    0.045389
     5  C   -0.154259
     6  C   -0.148633
     7  C   -0.167050
     8  C    0.112782
     9  C   -0.218040
    10  S    0.224360
    11  C   -0.140112
    12  C   -0.186533
    13  C   -0.113681
    14  C   -0.148321
    15  C   -0.164301
    16  C    0.098821
    17  C   -0.233725
    18  C    0.324408
    19  N   -0.682523
    20  C    0.135163
    21  C   -0.011551
    22  C    0.033998
    23  C   -0.152932
    24  C   -0.203636
    25  C    0.145992
    26  C   -0.251349
    27  C    0.080246
    28  C    0.017840
    29  C   -0.184245
    30  C   -0.141188
    31  C   -0.203360
    32  C    0.329998
    33  O   -0.557358
    34  C    0.274992
    35  C    0.217060
    36  N   -0.679853
    37  C    0.325374
    38  C   -0.191183
    39  C   -0.173933
    40  C    0.043340
    41  C    0.035661
    42  C   -0.182963
    43  C   -0.116747
    44  C   -0.180150
    45  C   -0.148901
    46  S    0.204179
    47  C   -0.142049
    48  C   -0.184329
    49  C   -0.114009
    50  C   -0.150365
    51  C   -0.173817
    52  C    0.104544
    53  C    0.063613
    54  C   -0.173674
    55  C   -0.181865
    56  C    0.143439
    57  C   -0.031172
    58  C   -0.024913
    59  C   -0.163907
    60  C   -0.145155
    61  C   -0.185704
    62  C    0.131337
    63  C   -0.194855
    64  C   -0.130793
    65  C   -0.132652
    66  C   -0.193652
    67  C    0.118561
    68  C    0.091344
    69  C   -0.207603
    70  C   -0.129255
    71  C   -0.134121
    72  C   -0.199184
    73  C    0.077471
    74  C    0.043941
    75  C   -0.196447
    76  C   -0.135322
    77  C   -0.135781
    78  C   -0.187121
    79  C    0.153175
    80  C   -0.162631
    81  C   -0.153336
    82  C   -0.195099
    83  C    0.100225
    84  C    0.010741
    85  C   -0.178457
    86  C   -0.196426
    87  C    0.149624
    88  C   -0.230873
    89  C    0.090353
    90  C   -0.214368
    91  C   -0.128596
    92  C   -0.134203
    93  C   -0.198921
    94  C    0.077571
    95  C    0.043719
    96  C   -0.196624
    97  C   -0.135082
    98  C   -0.136012
    99  C   -0.187612
   100  C    0.157683
   101  C    0.220023
   102  C   -0.159712
   103  C   -0.147164
   104  C   -0.192169
   105  C    0.098053
   106  C    0.273921
   107  O   -0.555116
   108  C    0.330646
   109  C   -0.203104
   110  C   -0.137710
   111  C   -0.144482
   112  C   -0.192483
   113  C    0.067753
   114  C   -0.185305
   115  H    0.131755
   116  H    0.130373
   117  H    0.135607
   118  H    0.131767
   119  H    0.132653
   120  H    0.138972
   121  H    0.131630
   122  H    0.131196
   123  H    0.133028
   124  H    0.165014
   125  H    0.139984
   126  H    0.134104
   127  H    0.134734
   128  H    0.131647
   129  H    0.134488
   130  H    0.153611
   131  H    0.146459
   132  H    0.136154
   133  H    0.135402
   134  H    0.132362
   135  H    0.140190
   136  H    0.139355
   137  H    0.130005
   138  H    0.127745
   139  H    0.158852
   140  H    0.140721
   141  H    0.147304
   142  H    0.138959
   143  H    0.132501
   144  H    0.128309
   145  H    0.127644
   146  H    0.129348
   147  H    0.132387
   148  H    0.149684
   149  H    0.152028
   150  H    0.131395
   151  H    0.129592
   152  H    0.133734
   153  H    0.133412
   154  H    0.128825
   155  H    0.130809
   156  H    0.149927
   157  H    0.146278
   158  H    0.130812
   159  H    0.151253
   160  H    0.144233
   161  H    0.136977
   162  H    0.142127
   163  H    0.148914
   164  H    0.129939
   165  H    0.129449
   166  H    0.134047
   167  H    0.133129
   168  H    0.128679
   169  H    0.131125
   170  H    0.151409
   171  H    0.154172
   172  H    0.131028
   173  H    0.131947
   174  H    0.152443
   175  H    0.132879
   176  H    0.129651
   177  H    0.135233
   178  H    0.144939
 Sum of Mulliken charges =  -0.00000

 Dipole moment (field-independent basis, Debye):
    X=              1.9653    Y=             -1.2385    Z=              0.7287  Tot=              2.4347
 Quadrupole moment (field-independent basis, Debye-Ang):
   XX=           -641.9620   YY=           -642.1327   ZZ=           -593.6875
   XY=             12.3032   XZ=            -16.5404   YZ=              8.1744

 Normal termination of Gaussian 16 at Sat Nov  5 12:52:02 2022.
