 Gaussian 16, Revision B.01,
 Gaussian 16:  ES64L-G16RevB.01 20-Dec-2017

 -------------------------------------------------------------------
 #p b3lyp/6-31g(d) 6D 10F nosymm GFInput td=(50-50,nstate=2) SCF=XQC
 -------------------------------------------------------------------

 ------------------------------
 Gaussian input prepared by ASE
 ------------------------------
 Symbolic Z-matrix:
 Charge =  0 Multiplicity = 1

                          Input orientation:
 ---------------------------------------------------------------------
 Center     Atomic      Atomic             Coordinates (Angstroms)
 Number     Number       Type             X           Y           Z
 ---------------------------------------------------------------------
      1          6           0        6.895131    4.877943    0.916027
      2          6           0        5.754162    4.165824    0.958029
      3          6           0        5.726061    2.739921    0.685960
      4          6           0        6.859197    2.088157    0.264237
      5          6           0        8.110028    2.811805    0.082514
      6          6           0        9.146457    2.204130   -0.559298
      7          6           0        9.057157    0.836200   -1.014567
      8          6           0        7.940271    0.097112   -0.802971
      9          6           0        6.793321    0.661169   -0.114669
     10          6           0        5.707676   -0.082990    0.226382
     11          6           0        4.595862    0.503755    1.065695
     12          6           0        3.289838   -0.251631    0.927026
     13          7           0        2.813436   -0.876327    1.943146
     14          6           0        1.509557   -1.518578    1.763595
     15          6           0        1.627041   -3.017101    1.476744
     16          6           0        0.484191   -3.821439    1.597887
     17          6           0        0.536996   -5.188554    1.333476
     18          6           0        1.742838   -5.779953    0.948640
     19          6           0        2.887584   -4.992000    0.837054
     20          6           0        2.830460   -3.620908    1.100317
     21          6           0        0.650738   -0.760705    0.719944
     22          6           0        1.497164   -0.524885   -0.514405
     23          6           0        0.957258   -0.716929   -1.886843
     24          6           0        1.797868   -1.338393   -2.827757
     25          6           0        1.346579   -1.640070   -4.106942
     26          6           0        0.038561   -1.313136   -4.472243
     27          6           0       -0.794365   -0.669159   -3.561594
     28          6           0       -0.355019   -0.351899   -2.267192
     29          6           0       -1.240000    0.471667   -1.391057
     30          6           0       -0.840639    1.750921   -0.995645
     31          6           0       -1.673133    2.554786   -0.213611
     32          6           0       -2.919750    2.080540    0.174806
     33          6           0       -3.363226    0.803248   -0.198060
     34          6           0       -2.511763    0.016257   -0.979087
     35          8           0       -2.834317   -1.258217   -1.374342
     36          6           0       -4.053424   -1.793454   -1.031524
     37          6           0       -4.286007   -3.090776   -1.503045
     38          6           0       -5.488170   -3.721594   -1.211923
     39          6           0       -6.457386   -3.057363   -0.450940
     40          6           0       -6.208151   -1.769561    0.009522
     41          6           0       -5.001590   -1.108732   -0.269371
     42          6           0       -4.742159    0.306107    0.251437
     43          6           0       -4.887944    0.373429    1.781855
     44          6           0       -4.151965   -0.300083    2.748802
     45          6           0       -4.455261   -0.090145    4.098275
     46          6           0       -5.483970    0.783736    4.467996
     47          6           0       -6.225946    1.460873    3.497854
     48          6           0       -5.923767    1.252027    2.150212
     49          6           0       -6.521556    1.812679    0.929619
     50          6           0       -7.568803    2.720504    0.755839
     51          6           0       -7.936727    3.084846   -0.541125
     52          6           0       -7.269056    2.550401   -1.648930
     53          6           0       -6.220025    1.641102   -1.476153
     54          6           0       -5.852031    1.277621   -0.186638
     55          7           0        2.754023   -0.259041   -0.382612
     56          6           0        4.412200    1.992785    0.715824
     57          6           0        8.219762    4.224923    0.627280
     58          1           0        6.894558    5.942335    1.138621
     59          1           0        4.812668    4.654140    1.202584
     60          1           0       10.069660    2.752523   -0.735739
     61          1           0        9.913345    0.400323   -1.523217
     62          1           0        7.886199   -0.940738   -1.122767
     63          1           0        5.672285   -1.140306   -0.024688
     64          1           0        4.877195    0.419738    2.128236
     65          1           0        0.992550   -1.422422    2.726679
     66          1           0       -0.458197   -3.372485    1.906600
     67          1           0       -0.360902   -5.793038    1.433477
     68          1           0        1.788663   -6.846449    0.744565
     69          1           0        3.833179   -5.443285    0.547250
     70          1           0        3.729945   -3.018968    1.030860
     71          1           0       -0.263438   -1.306842    0.478065
     72          1           0        0.354208    0.205061    1.148977
     73          1           0        2.806298   -1.593004   -2.520088
     74          1           0        2.007806   -2.133787   -4.813672
     75          1           0       -0.327950   -1.546332   -5.468406
     76          1           0       -1.799224   -0.382603   -3.856575
     77          1           0        0.129380    2.117865   -1.319026
     78          1           0       -1.351694    3.549216    0.081475
     79          1           0       -3.572452    2.703256    0.779553
     80          1           0       -3.511191   -3.574076   -2.089694
     81          1           0       -5.670482   -4.728400   -1.577039
     82          1           0       -7.400754   -3.542709   -0.218718
     83          1           0       -6.959074   -1.253481    0.601038
     84          1           0       -3.353722   -0.980616    2.463523
     85          1           0       -3.887871   -0.610096    4.865323
     86          1           0       -5.707893    0.936539    5.520323
     87          1           0       -7.024337    2.137780    3.791077
     88          1           0       -8.091340    3.138568    1.612463
     89          1           0       -8.749668    3.790138   -0.691530
     90          1           0       -7.567795    2.843831   -2.651588
     91          1           0       -5.703076    1.226669   -2.337849
     92          1           0        3.941376    2.066509   -0.279333
     93          1           0        3.720415    2.458173    1.428439
     94          1           0        8.800921    4.206165    1.567936
     95          1           0        8.815144    4.849965   -0.052815
 ---------------------------------------------------------------------

 SCF Done:  E(RB3LYP) =  -2265.32585872     A.U. after   16 cycles

 Excitation energies and oscillator strengths:

 Excited state symmetry could not be determined.
 Excited State   1:      Triplet-?Sym    0.3581 eV 3462.22 nm  f=0.0000  <S**2>=2.000
     180 ->208         0.11116
     185 ->204         0.13556
     192 ->193         0.69629
     192 ->194        -0.57636
     185 <-204         0.11525
     192 <-193         0.43834
     192 <-194        -0.37560
 This state for optimization and/or second-order correction.
 Total Energy, E(TD-HF/TD-DFT) =  -2265.31269858
 Copying the excited state density for this state as the 1-particle RhoCI density.

 Excited state symmetry could not be determined.
 Excited State   2:      Singlet-?Sym    2.0646 eV  600.54 nm  f=0.0278  <S**2>=0.000
     192 ->193         0.61563
     192 ->194         0.34554

 Excited state symmetry could not be determined.
 Excited State   3:      Triplet-?Sym    2.0790 eV  596.36 nm  f=0.0000  <S**2>=2.000
     192 ->193         0.44343
     192 ->194         0.54464

 Excited state symmetry could not be determined.
 Excited State   4:      Singlet-?Sym    2.4237 eV  511.56 nm  f=0.1228  <S**2>=0.000
     192 ->193        -0.35447
     192 ->194         0.61877

 Alpha  occ. eigenvalues --  -19.20227 -14.32409 -14.31194 -10.26015 -10.25566
 Alpha  occ. eigenvalues --  -10.24740 -10.24416 -10.22815 -10.21916 -10.20870
 Alpha  occ. eigenvalues --  -10.20865 -10.20648 -10.20566 -10.20258 -10.20005
 Alpha  occ. eigenvalues --  -10.19974 -10.19851 -10.19836 -10.19772 -10.19714
 Alpha  occ. eigenvalues --  -10.19659 -10.19656 -10.19606 -10.19579 -10.19574
 Alpha  occ. eigenvalues --  -10.19555 -10.19529 -10.19521 -10.19494 -10.19478
 Alpha  occ. eigenvalues --  -10.19461 -10.19296 -10.19290 -10.19282 -10.19195
 Alpha  occ. eigenvalues --  -10.19194 -10.19150 -10.19107 -10.19074 -10.19015
 Alpha  occ. eigenvalues --  -10.18897 -10.18853 -10.18761 -10.18645 -10.18435
 Alpha  occ. eigenvalues --  -10.18390 -10.18340 -10.18326 -10.18283 -10.18283
 Alpha  occ. eigenvalues --  -10.18228 -10.18152 -10.17926 -10.17829 -10.17643
 Alpha  occ. eigenvalues --  -10.17551 -10.17385  -1.09523  -0.96462  -0.90030
 Alpha  occ. eigenvalues --   -0.88451  -0.87202  -0.86470  -0.85829  -0.85224
 Alpha  occ. eigenvalues --   -0.84824  -0.84405  -0.81564  -0.81502  -0.80795
 Alpha  occ. eigenvalues --   -0.78850  -0.78382  -0.77836  -0.76347  -0.75253
 Alpha  occ. eigenvalues --   -0.75056  -0.74726  -0.74226  -0.74115  -0.73677
 Alpha  occ. eigenvalues --   -0.73590  -0.73087  -0.72591  -0.72187  -0.71879
 Alpha  occ. eigenvalues --   -0.68048  -0.66528  -0.65581  -0.65143  -0.64590
 Alpha  occ. eigenvalues --   -0.64123  -0.63042  -0.61845  -0.61147  -0.60353
 Alpha  occ. eigenvalues --   -0.59705  -0.59534  -0.59260  -0.58879  -0.58717
 Alpha  occ. eigenvalues --   -0.58019  -0.57629  -0.57073  -0.56007  -0.55407
 Alpha  occ. eigenvalues --   -0.52978  -0.52597  -0.51833  -0.51159  -0.50875
 Alpha  occ. eigenvalues --   -0.50348  -0.49858  -0.49162  -0.48799  -0.48360
 Alpha  occ. eigenvalues --   -0.48033  -0.47757  -0.47396  -0.47194  -0.46963
 Alpha  occ. eigenvalues --   -0.46577  -0.46066  -0.45665  -0.45341  -0.44910
 Alpha  occ. eigenvalues --   -0.44640  -0.44493  -0.44131  -0.43995  -0.43639
 Alpha  occ. eigenvalues --   -0.43203  -0.43046  -0.42914  -0.42601  -0.42461
 Alpha  occ. eigenvalues --   -0.42202  -0.41980  -0.41371  -0.41286  -0.40907
 Alpha  occ. eigenvalues --   -0.40731  -0.40649  -0.40504  -0.39653  -0.39559
 Alpha  occ. eigenvalues --   -0.39052  -0.38710  -0.38446  -0.38350  -0.37943
 Alpha  occ. eigenvalues --   -0.37748  -0.36980  -0.36811  -0.36483  -0.36332
 Alpha  occ. eigenvalues --   -0.36237  -0.35943  -0.35731  -0.35447  -0.35272
 Alpha  occ. eigenvalues --   -0.34980  -0.34752  -0.34611  -0.34451  -0.34355
 Alpha  occ. eigenvalues --   -0.34071  -0.33747  -0.33536  -0.33235  -0.33103
 Alpha  occ. eigenvalues --   -0.32082  -0.31787  -0.30383  -0.29347  -0.28711
 Alpha  occ. eigenvalues --   -0.28005  -0.27483  -0.26915  -0.26349  -0.25674
 Alpha  occ. eigenvalues --   -0.25654  -0.25183  -0.24395  -0.24342  -0.24189
 Alpha  occ. eigenvalues --   -0.24002  -0.23900  -0.23607  -0.22557  -0.21799
 Alpha  occ. eigenvalues --   -0.21378  -0.15686
 Alpha virt. eigenvalues --   -0.06516  -0.05775  -0.03661  -0.02554  -0.01880
 Alpha virt. eigenvalues --   -0.01810  -0.00824   0.00232   0.00408   0.00874
 Alpha virt. eigenvalues --    0.01042   0.01102   0.01396   0.02178   0.03885

 Mulliken charges:
               1
     1  C   -0.123098
     2  C   -0.138307
     3  C    0.047518
     4  C    0.029417
     5  C    0.153851
     6  C   -0.228473
     7  C   -0.130243
     8  C   -0.181537
     9  C    0.171511
    10  C   -0.220028
    11  C   -0.165069
    12  C    0.405888
    13  N   -0.429808
    14  C   -0.085477
    15  C    0.165592
    16  C   -0.175308
    17  C   -0.130971
    18  C   -0.127994
    19  C   -0.132395
    20  C   -0.179587
    21  C   -0.354273
    22  C    0.261277
    23  C    0.072552
    24  C   -0.158911
    25  C   -0.129818
    26  C   -0.128074
    27  C   -0.150985
    28  C    0.057537
    29  C   -0.028524
    30  C   -0.179855
    31  C   -0.135742
    32  C   -0.192155
    33  C    0.153824
    34  C    0.253078
    35  O   -0.576968
    36  C    0.282228
    37  C   -0.185905
    38  C   -0.134837
    39  C   -0.133908
    40  C   -0.194485
    41  C    0.149454
    42  C   -0.233450
    43  C    0.115795
    44  C   -0.184866
    45  C   -0.134990
    46  C   -0.134285
    47  C   -0.190892
    48  C    0.070683
    49  C    0.070627
    50  C   -0.191047
    51  C   -0.134255
    52  C   -0.135113
    53  C   -0.183246
    54  C    0.114312
    55  N   -0.477555
    56  C   -0.359705
    57  C   -0.392421
    58  H    0.128431
    59  H    0.118026
    60  H    0.114414
    61  H    0.122853
    62  H    0.122384
    63  H    0.129443
    64  H    0.162709
    65  H    0.155730
    66  H    0.120295
    67  H    0.127173
    68  H    0.126050
    69  H    0.127401
    70  H    0.143495
    71  H    0.169465
    72  H    0.176529
    73  H    0.159346
    74  H    0.135526
    75  H    0.134267
    76  H    0.137253
    77  H    0.147393
    78  H    0.135163
    79  H    0.147231
    80  H    0.148620
    81  H    0.134553
    82  H    0.131831
    83  H    0.145184
    84  H    0.133093
    85  H    0.132998
    86  H    0.132218
    87  H    0.131666
    88  H    0.131576
    89  H    0.131658
    90  H    0.132103
    91  H    0.135350
    92  H    0.172117
    93  H    0.145083
    94  H    0.171194
    95  H    0.159599
 Sum of Mulliken charges =  -0.00000

 Dipole moment (field-independent basis, Debye):
    X=             -3.9533    Y=              1.0113    Z=             -0.8062  Tot=              4.1594
 Quadrupole moment (field-independent basis, Debye-Ang):
   XX=           -303.2675   YY=           -301.3783   ZZ=           -315.1993
   XY=              1.6114   XZ=             -8.8228   YZ=             11.0715

 Normal termination of Gaussian 16 at Sat Nov  5 10:18:04 2022.
