 Gaussian 16, Revision B.01,
 Gaussian 16:  ES64L-G16RevB.01 20-Dec-2017

 -----------------------------
 #p b3lyp/6-31g(d) opt SCF=XQC
 -----------------------------

 ------------------------------
 Gaussian input prepared by ASE
 ------------------------------
 Symbolic Z-matrix:
 Charge =  0 Multiplicity = 1

 SCF Done:  E(RB3LYP) =  -2265.30228237     A.U. after   16 cycles
 SCF Done:  E(RB3LYP) =  -2265.31396971     A.U. after   16 cycles
 SCF Done:  E(RB3LYP) =  -2265.31786640     A.U. after   16 cycles
 SCF Done:  E(RB3LYP) =  -2265.32157990     A.U. after   16 cycles
 SCF Done:  E(RB3LYP) =  -2265.32396992     A.U. after   14 cycles
 SCF Done:  E(RB3LYP) =  -2265.32495510     A.U. after   13 cycles
 SCF Done:  E(RB3LYP) =  -2265.32538031     A.U. after   12 cycles
 SCF Done:  E(RB3LYP) =  -2265.32558446     A.U. after   12 cycles
 SCF Done:  E(RB3LYP) =  -2265.32570680     A.U. after   12 cycles
 SCF Done:  E(RB3LYP) =  -2265.32577315     A.U. after   11 cycles
 SCF Done:  E(RB3LYP) =  -2265.32584128     A.U. after   10 cycles
 SCF Done:  E(RB3LYP) =  -2265.32585123     A.U. after   10 cycles
 SCF Done:  E(RB3LYP) =  -2265.32586104     A.U. after   10 cycles
 SCF Done:  E(RB3LYP) =  -2265.32586378     A.U. after   10 cycles
 SCF Done:  E(RB3LYP) =  -2265.32586506     A.U. after   10 cycles
 SCF Done:  E(RB3LYP) =  -2265.32586620     A.U. after    9 cycles
 SCF Done:  E(RB3LYP) =  -2265.32586638     A.U. after    8 cycles
 SCF Done:  E(RB3LYP) =  -2265.32586642     A.U. after    7 cycles
 SCF Done:  E(RB3LYP) =  -2265.32586644     A.U. after    7 cycles
 SCF Done:  E(RB3LYP) =  -2265.32586644     A.U. after    7 cycles
 Optimization completed.
    -- Stationary point found.

                         Standard orientation:
 ---------------------------------------------------------------------
 Center     Atomic      Atomic             Coordinates (Angstroms)
 Number     Number       Type             X           Y           Z
 ---------------------------------------------------------------------
      1          6           0        7.364441   -4.422090   -0.394778
      2          6           0        6.169460   -3.812116   -0.497928
      3          6           0        6.033522   -2.368243   -0.428899
      4          6           0        7.120192   -1.578580   -0.142151
      5          6           0        8.428774   -2.171564    0.097126
      6          6           0        9.427638   -1.401218    0.611144
      7          6           0        9.239547    0.007047    0.871695
      8          6           0        8.062526    0.621164    0.596123
      9          6           0        6.948969   -0.121200    0.033717
     10          6           0        5.799712    0.481746   -0.371719
     11          6           0        4.719530   -0.301973   -1.081534
     12          6           0        3.360737    0.364041   -1.006406
     13          7           0        2.812725    0.798674   -2.083662
     14          6           0        1.466063    1.359071   -1.952201
     15          6           0        1.469729    2.887782   -1.883748
     16          6           0        0.263679    3.577272   -2.078142
     17          6           0        0.212898    4.968185   -2.011154
     18          6           0        1.376010    5.698522   -1.754865
     19          6           0        2.582418    5.023975   -1.572300
     20          6           0        2.629240    3.628974   -1.637445
     21          6           0        0.694783    0.695510   -0.783457
     22          6           0        1.585394    0.703989    0.442270
     23          6           0        1.063391    1.049112    1.791481
     24          6           0        1.872857    1.861039    2.606159
     25          6           0        1.428252    2.307715    3.844623
     26          6           0        0.159310    1.938059    4.296709
     27          6           0       -0.640003    1.108837    3.514889
     28          6           0       -0.206401    0.643696    2.263974
     29          6           0       -1.042420   -0.361747    1.543405
     30          6           0       -0.551075   -1.650375    1.319014
     31          6           0       -1.334214   -2.618907    0.686984
     32          6           0       -2.623359   -2.301319    0.278234
     33          6           0       -3.159024   -1.021210    0.482098
     34          6           0       -2.355654   -0.068032    1.114865
     35          8           0       -2.770080    1.221692    1.337160
     36          6           0       -4.035649    1.608087    0.963988
     37          6           0       -4.360501    2.938120    1.255457
     38          6           0       -5.615654    3.427526    0.919375
     39          6           0       -6.545738    2.589406    0.293135
     40          6           0       -6.204802    1.271616    0.010699
     41          6           0       -4.943142    0.751179    0.338764
     42          6           0       -4.583256   -0.699837    0.014191
     43          6           0       -4.758163   -0.996627   -1.485571
     44          6           0       -4.100787   -0.414654   -2.562342
     45          6           0       -4.417101   -0.838215   -3.857596
     46          6           0       -5.380733   -1.831669   -4.065119
     47          6           0       -6.043722   -2.417217   -2.984472
     48          6           0       -5.728476   -1.995081   -1.690838
     49          6           0       -6.251374   -2.418845   -0.383729
     50          6           0       -7.218325   -3.369328   -0.048084
     51          6           0       -7.526125   -3.570971    1.299072
     52          6           0       -6.878212   -2.834139    2.297038
     53          6           0       -5.909578   -1.881922    1.962116
     54          6           0       -5.601469   -1.680055    0.622449
     55          7           0        2.856156    0.518286    0.306571
     56          6           0        4.663724   -1.735114   -0.519090
     57          6           0        8.638798   -3.635690   -0.246297
     58          1           0        7.443993   -5.504327   -0.464869
     59          1           0        5.264736   -4.400548   -0.638961
     60          1           0       10.395578   -1.846919    0.831632
     61          1           0       10.069505    0.575093    1.284330
     62          1           0        7.932868    1.686985    0.767991
     63          1           0        5.685539    1.558348   -0.271231
     64          1           0        4.968847   -0.349934   -2.154260
     65          1           0        0.936512    1.086909   -2.873927
     66          1           0       -0.646557    3.018420   -2.288177
     67          1           0       -0.732566    5.482109   -2.164784
     68          1           0        1.340960    6.783620   -1.704935
     69          1           0        3.495231    5.582662   -1.381413
     70          1           0        3.575383    3.113304   -1.514450
     71          1           0       -0.254408    1.199609   -0.590041
     72          1           0        0.466786   -0.341475   -1.061635
     73          1           0        2.850361    2.144823    2.231497
     74          1           0        2.063827    2.946401    4.451722
     75          1           0       -0.201804    2.283050    5.261918
     76          1           0       -1.611681    0.791984    3.881382
     77          1           0        0.452353   -1.892417    1.657698
     78          1           0       -0.941028   -3.618027    0.524336
     79          1           0       -3.237776   -3.052037   -0.210056
     80          1           0       -3.613645    3.557954    1.741347
     81          1           0       -5.869584    4.459464    1.144829
     82          1           0       -7.530001    2.963370    0.027036
     83          1           0       -6.925333    0.620555   -0.476197
     84          1           0       -3.353273    0.358400   -2.403249
     85          1           0       -3.910861   -0.391938   -4.709184
     86          1           0       -5.615724   -2.150244   -5.077132
     87          1           0       -6.791856   -3.187843   -3.151931
     88          1           0       -7.725178   -3.944301   -0.818884
     89          1           0       -8.276335   -4.307148    1.575044
     90          1           0       -7.129479   -3.002720    3.340644
     91          1           0       -5.407886   -1.310229    2.738636
     92          1           0        4.223209   -1.701050    0.491966
     93          1           0        3.995295   -2.349013   -1.134968
     94          1           0        9.194913   -3.707799   -1.199433
     95          1           0        9.297715   -4.109769    0.494487
 ---------------------------------------------------------------------

 The electronic state is 1-A.
 Alpha  occ. eigenvalues --  -19.20228 -14.32409 -14.31194 -10.26015 -10.25567
 Alpha  occ. eigenvalues --  -10.24740 -10.24416 -10.22815 -10.21916 -10.20870
 Alpha  occ. eigenvalues --  -10.20865 -10.20648 -10.20567 -10.20258 -10.20005
 Alpha  occ. eigenvalues --  -10.19974 -10.19851 -10.19836 -10.19772 -10.19713
 Alpha  occ. eigenvalues --  -10.19659 -10.19656 -10.19606 -10.19579 -10.19574
 Alpha  occ. eigenvalues --  -10.19555 -10.19529 -10.19521 -10.19494 -10.19478
 Alpha  occ. eigenvalues --  -10.19461 -10.19296 -10.19290 -10.19282 -10.19195
 Alpha  occ. eigenvalues --  -10.19194 -10.19150 -10.19106 -10.19074 -10.19015
 Alpha  occ. eigenvalues --  -10.18897 -10.18853 -10.18761 -10.18645 -10.18435
 Alpha  occ. eigenvalues --  -10.18390 -10.18340 -10.18326 -10.18283 -10.18283
 Alpha  occ. eigenvalues --  -10.18228 -10.18152 -10.17926 -10.17829 -10.17643
 Alpha  occ. eigenvalues --  -10.17551 -10.17385  -1.09523  -0.96462  -0.90030
 Alpha  occ. eigenvalues --   -0.88451  -0.87201  -0.86470  -0.85829  -0.85224
 Alpha  occ. eigenvalues --   -0.84824  -0.84405  -0.81564  -0.81502  -0.80795
 Alpha  occ. eigenvalues --   -0.78850  -0.78382  -0.77836  -0.76347  -0.75253
 Alpha  occ. eigenvalues --   -0.75056  -0.74726  -0.74226  -0.74115  -0.73677
 Alpha  occ. eigenvalues --   -0.73590  -0.73087  -0.72591  -0.72187  -0.71879
 Alpha  occ. eigenvalues --   -0.68048  -0.66528  -0.65581  -0.65143  -0.64590
 Alpha  occ. eigenvalues --   -0.64123  -0.63042  -0.61845  -0.61147  -0.60353
 Alpha  occ. eigenvalues --   -0.59705  -0.59534  -0.59260  -0.58879  -0.58717
 Alpha  occ. eigenvalues --   -0.58019  -0.57629  -0.57073  -0.56007  -0.55407
 Alpha  occ. eigenvalues --   -0.52978  -0.52597  -0.51833  -0.51159  -0.50875
 Alpha  occ. eigenvalues --   -0.50348  -0.49858  -0.49162  -0.48799  -0.48360
 Alpha  occ. eigenvalues --   -0.48033  -0.47757  -0.47396  -0.47194  -0.46963
 Alpha  occ. eigenvalues --   -0.46577  -0.46066  -0.45665  -0.45341  -0.44910
 Alpha  occ. eigenvalues --   -0.44640  -0.44493  -0.44131  -0.43995  -0.43639
 Alpha  occ. eigenvalues --   -0.43203  -0.43046  -0.42914  -0.42601  -0.42461
 Alpha  occ. eigenvalues --   -0.42202  -0.41980  -0.41371  -0.41286  -0.40907
 Alpha  occ. eigenvalues --   -0.40731  -0.40649  -0.40504  -0.39653  -0.39559
 Alpha  occ. eigenvalues --   -0.39052  -0.38710  -0.38447  -0.38350  -0.37943
 Alpha  occ. eigenvalues --   -0.37748  -0.36980  -0.36811  -0.36483  -0.36332
 Alpha  occ. eigenvalues --   -0.36237  -0.35943  -0.35731  -0.35447  -0.35272
 Alpha  occ. eigenvalues --   -0.34980  -0.34752  -0.34611  -0.34451  -0.34355
 Alpha  occ. eigenvalues --   -0.34071  -0.33747  -0.33536  -0.33235  -0.33103
 Alpha  occ. eigenvalues --   -0.32082  -0.31787  -0.30383  -0.29347  -0.28711
 Alpha  occ. eigenvalues --   -0.28005  -0.27483  -0.26915  -0.26349  -0.25674
 Alpha  occ. eigenvalues --   -0.25654  -0.25183  -0.24395  -0.24342  -0.24189
 Alpha  occ. eigenvalues --   -0.24002  -0.23900  -0.23607  -0.22557  -0.21799
 Alpha  occ. eigenvalues --   -0.21378  -0.15686
 Alpha virt. eigenvalues --   -0.06516  -0.05775  -0.03661  -0.02554  -0.01880
 Alpha virt. eigenvalues --   -0.01810  -0.00824   0.00232   0.00408   0.00874
 Alpha virt. eigenvalues --    0.01042   0.01102   0.01396   0.02178   0.03885

 Mulliken charges:
               1
     1  C   -0.123097
     2  C   -0.138311
     3  C    0.047520
     4  C    0.029398
     5  C    0.153849
     6  C   -0.228470
     7  C   -0.130248
     8  C   -0.181534
     9  C    0.171513
    10  C   -0.220019
    11  C   -0.165068
    12  C    0.405886
    13  N   -0.429802
    14  C   -0.085477
    15  C    0.165594
    16  C   -0.175316
    17  C   -0.130973
    18  C   -0.127993
    19  C   -0.132396
    20  C   -0.179589
    21  C   -0.354265
    22  C    0.261284
    23  C    0.072592
    24  C   -0.158906
    25  C   -0.129827
    26  C   -0.128069
    27  C   -0.150980
    28  C    0.057488
    29  C   -0.028469
    30  C   -0.179884
    31  C   -0.135750
    32  C   -0.192122
    33  C    0.153848
    34  C    0.253029
    35  O   -0.576961
    36  C    0.282176
    37  C   -0.185898
    38  C   -0.134833
    39  C   -0.133916
    40  C   -0.194469
    41  C    0.149507
    42  C   -0.233533
    43  C    0.115816
    44  C   -0.184871
    45  C   -0.134986
    46  C   -0.134289
    47  C   -0.190890
    48  C    0.070688
    49  C    0.070632
    50  C   -0.191049
    51  C   -0.134254
    52  C   -0.135113
    53  C   -0.183244
    54  C    0.114323
    55  N   -0.477561
    56  C   -0.359708
    57  C   -0.392406
    58  H    0.128431
    59  H    0.118026
    60  H    0.114413
    61  H    0.122853
    62  H    0.122383
    63  H    0.129445
    64  H    0.162707
    65  H    0.155728
    66  H    0.120304
    67  H    0.127171
    68  H    0.126050
    69  H    0.127401
    70  H    0.143496
    71  H    0.169461
    72  H    0.176528
    73  H    0.159345
    74  H    0.135527
    75  H    0.134266
    76  H    0.137253
    77  H    0.147396
    78  H    0.135162
    79  H    0.147228
    80  H    0.148613
    81  H    0.134554
    82  H    0.131832
    83  H    0.145183
    84  H    0.133091
    85  H    0.132999
    86  H    0.132218
    87  H    0.131667
    88  H    0.131576
    89  H    0.131658
    90  H    0.132103
    91  H    0.135348
    92  H    0.172115
    93  H    0.145084
    94  H    0.171192
    95  H    0.159596
 Sum of Mulliken charges =  -0.00000

 Dipole moment (field-independent basis, Debye):
    X=             -3.8403    Y=             -1.1828    Z=              1.0749  Tot=              4.1596
 Quadrupole moment (field-independent basis, Debye-Ang):
   XX=           -303.5919   YY=           -298.5885   ZZ=           -318.4853
   XY=             -0.5059   XZ=              7.6619   YZ=              9.2524

 Normal termination of Gaussian 16 at Sat Nov  5 01:36:13 2022.
