 Gaussian 16, Revision B.01,
 Gaussian 16:  ES64L-G16RevB.01 20-Dec-2017

 -------------------------------------------------------------------
 #p b3lyp/6-31g(d) 6D 10F nosymm GFInput td=(50-50,nstate=2) SCF=XQC
 -------------------------------------------------------------------

 ------------------------------
 Gaussian input prepared by ASE
 ------------------------------
 Symbolic Z-matrix:
 Charge =  0 Multiplicity = 1

                          Input orientation:
 ---------------------------------------------------------------------
 Center     Atomic      Atomic             Coordinates (Angstroms)
 Number     Number       Type             X           Y           Z
 ---------------------------------------------------------------------
      1          6           0       -6.532842   -2.266637   -0.372834
      2          6           0       -5.175714   -1.727080    0.012185
      3          6           0       -4.012025   -2.317774   -0.483692
      4          6           0       -2.724922   -1.866583   -0.164725
      5          6           0       -1.528662   -2.580744   -0.756719
      6          6           0       -2.591769   -0.762641    0.702935
      7          6           0       -1.228377   -0.206913    1.097314
      8          6           0       -1.098346    0.051781    2.615239
      9         14           0       -0.773580    1.304237   -0.027819
     10          6           0       -0.317566    2.899266    0.897898
     11          6           0       -1.196694    3.453764    1.847963
     12          6           0       -0.910950    4.658176    2.491833
     13          6           0        0.265411    5.348625    2.193256
     14          6           0        1.143671    4.831517    1.240701
     15          6           0        0.850957    3.624353    0.601644
     16          6           0        0.530414    0.919240   -1.364826
     17          6           0        0.197871    1.409254   -2.642513
     18          6           0        1.021992    1.202142   -3.745277
     19          6           0        2.207518    0.495325   -3.585834
     20          6           0        2.589185   -0.011460   -2.333692
     21          6           0        3.894745   -0.735685   -2.259574
     22          6           0        4.910996   -0.343196   -1.373745
     23          6           0        6.142654   -0.995890   -1.365654
     24          6           0        6.385023   -2.056147   -2.241618
     25          6           0        5.385686   -2.455468   -3.129672
     26          6           0        4.154940   -1.798210   -3.140317
     27          6           0        1.743974    0.195973   -1.212982
     28          6           0        2.122501   -0.404621    0.108386
     29          6           0        2.425307    0.393471    1.221620
     30          6           0        2.793718   -0.184768    2.439413
     31          6           0        2.857761   -1.571816    2.568368
     32          6           0        2.557028   -2.378630    1.468276
     33          6           0        2.199984   -1.800689    0.251086
     34          6           0       -3.764398   -0.169215    1.193444
     35          6           0       -5.046399   -0.620673    0.873751
     36          6           0       -6.262941    0.070436    1.443613
     37          1           0       -6.439520   -3.125789   -1.044493
     38          1           0       -7.107644   -2.591456    0.504794
     39          1           0       -7.143254   -1.510064   -0.883842
     40          1           0       -4.108764   -3.173554   -1.150040
     41          1           0       -1.852451   -3.402953   -1.402782
     42          1           0       -0.904551   -1.912284   -1.362351
     43          1           0       -0.878609   -3.006791    0.018285
     44          1           0       -0.471619   -0.957821    0.853089
     45          1           0       -0.078901    0.353827    2.871422
     46          1           0       -1.332022   -0.863045    3.173398
     47          1           0       -1.770854    0.834813    2.977151
     48          1           0       -1.990613    1.645296   -0.816158
     49          1           0       -2.129004    2.946565    2.086072
     50          1           0       -1.607882    5.059712    3.223331
     51          1           0        0.490295    6.287313    2.693154
     52          1           0        2.054758    5.369298    0.989981
     53          1           0        1.539150    3.249425   -0.152135
     54          1           0       -0.733268    1.953426   -2.778125
     55          1           0        0.742597    1.590842   -4.721059
     56          1           0        2.869901    0.344285   -4.433798
     57          1           0        4.735613    0.483116   -0.692201
     58          1           0        6.916924   -0.672110   -0.674955
     59          1           0        7.344964   -2.565521   -2.232149
     60          1           0        5.561497   -3.280738   -3.814937
     61          1           0        3.377563   -2.118154   -3.829540
     62          1           0        2.387734    1.474413    1.134525
     63          1           0        3.032832    0.454479    3.285388
     64          1           0        3.142102   -2.021764    3.515745
     65          1           0        2.605714   -3.460844    1.556174
     66          1           0        1.980754   -2.433803   -0.603669
     67          1           0       -3.680359    0.687305    1.859094
     68          1           0       -6.913941    0.467137    0.653236
     69          1           0       -6.878658   -0.614591    2.041665
     70          1           0       -5.976636    0.907315    2.088295
 ---------------------------------------------------------------------

 SCF Done:  E(RB3LYP) =  -1643.73674766     A.U. after   14 cycles

 Excitation energies and oscillator strengths:

 Excited state symmetry could not be determined.
 Excited State   1:      Triplet-?Sym    3.3710 eV  367.80 nm  f=0.0000  <S**2>=2.000
     120 ->139        -0.16472
     126 ->131        -0.27989
     128 ->130         0.47276
     128 ->131         0.14025
     128 ->132        -0.14655
 This state for optimization and/or second-order correction.
 Total Energy, E(TD-HF/TD-DFT) =  -1643.61286535
 Copying the excited state density for this state as the 1-particle RhoCI density.

 Excited state symmetry could not be determined.
 Excited State   2:      Triplet-?Sym    3.5560 eV  348.67 nm  f=0.0000  <S**2>=2.000
     127 ->137        -0.12834
     127 ->138        -0.35140
     129 ->132         0.18778
     129 ->137         0.49483
     129 ->138        -0.20957

 Excited state symmetry could not be determined.
 Excited State   3:      Singlet-?Sym    4.4096 eV  281.17 nm  f=0.0057  <S**2>=0.000
     129 ->130         0.67235
     129 ->131        -0.19829

 Excited state symmetry could not be determined.
 Excited State   4:      Singlet-?Sym    4.5110 eV  274.85 nm  f=0.0041  <S**2>=0.000
     128 ->131        -0.10430
     129 ->130         0.18254
     129 ->131         0.66327

 Alpha  occ. eigenvalues --  -66.12003 -10.20509 -10.20056 -10.19877 -10.19682
 Alpha  occ. eigenvalues --  -10.19132 -10.19105 -10.19067 -10.19050 -10.18989
 Alpha  occ. eigenvalues --  -10.18961 -10.18920 -10.18914 -10.18868 -10.18867
 Alpha  occ. eigenvalues --  -10.18851 -10.18784 -10.18782 -10.18776 -10.18736
 Alpha  occ. eigenvalues --  -10.18728 -10.18726 -10.18614 -10.18184 -10.17997
 Alpha  occ. eigenvalues --  -10.17975 -10.17927 -10.17848 -10.17671 -10.17501
 Alpha  occ. eigenvalues --  -10.17478 -10.17336 -10.17188 -10.16918 -10.16875
 Alpha  occ. eigenvalues --  -10.16774  -5.26552  -3.62450  -3.62424  -3.62372
 Alpha  occ. eigenvalues --   -0.87114  -0.85153  -0.84787  -0.84530  -0.83953
 Alpha  occ. eigenvalues --   -0.78724  -0.77734  -0.76772  -0.76078  -0.74409
 Alpha  occ. eigenvalues --   -0.74099  -0.74001  -0.73884  -0.73066  -0.72346
 Alpha  occ. eigenvalues --   -0.71217  -0.70495  -0.67289  -0.64376  -0.62766
 Alpha  occ. eigenvalues --   -0.61898  -0.60853  -0.60344  -0.59926  -0.59743
 Alpha  occ. eigenvalues --   -0.59517  -0.57965  -0.57323  -0.56778  -0.53641
 Alpha  occ. eigenvalues --   -0.52881  -0.51686  -0.50984  -0.49324  -0.47795
 Alpha  occ. eigenvalues --   -0.47393  -0.46489  -0.46150  -0.45602  -0.45120
 Alpha  occ. eigenvalues --   -0.45007  -0.44572  -0.44046  -0.43563  -0.42821
 Alpha  occ. eigenvalues --   -0.42638  -0.42317  -0.42030  -0.41673  -0.41623
 Alpha  occ. eigenvalues --   -0.41447  -0.41143  -0.40792  -0.40247  -0.39455
 Alpha  occ. eigenvalues --   -0.39126  -0.38992  -0.38248  -0.37931  -0.37558
 Alpha  occ. eigenvalues --   -0.37082  -0.36682  -0.36543  -0.36279  -0.35920
 Alpha  occ. eigenvalues --   -0.35675  -0.35359  -0.34908  -0.34790  -0.34170
 Alpha  occ. eigenvalues --   -0.33920  -0.33678  -0.32919  -0.32652  -0.31618
 Alpha  occ. eigenvalues --   -0.31363  -0.30484  -0.29243  -0.28634  -0.26435
 Alpha  occ. eigenvalues --   -0.26049  -0.25059  -0.24700  -0.24640  -0.24398
 Alpha  occ. eigenvalues --   -0.24050  -0.22421  -0.22229  -0.20696
 Alpha virt. eigenvalues --   -0.02704  -0.02255  -0.01258  -0.00060   0.00027
 Alpha virt. eigenvalues --    0.00283   0.00659   0.01332   0.01640   0.02156
 Alpha virt. eigenvalues --    0.06581   0.08938   0.09175   0.09772   0.10042

 Mulliken charges:
               1
     1  C   -0.534374
     2  C    0.142825
     3  C   -0.254794
     4  C    0.142384
     5  C   -0.555685
     6  C    0.126690
     7  C   -0.408410
     8  C   -0.451258
     9  Si   0.538546
    10  C   -0.039354
    11  C   -0.176050
    12  C   -0.121633
    13  C   -0.133438
    14  C   -0.121740
    15  C   -0.186113
    16  C   -0.111799
    17  C   -0.182123
    18  C   -0.116292
    19  C   -0.181766
    20  C    0.065185
    21  C    0.060076
    22  C   -0.148200
    23  C   -0.135017
    24  C   -0.126528
    25  C   -0.134131
    26  C   -0.168919
    27  C   -0.022935
    28  C    0.032379
    29  C   -0.168046
    30  C   -0.137984
    31  C   -0.125259
    32  C   -0.131512
    33  C   -0.149112
    34  C   -0.246097
    35  C    0.133025
    36  C   -0.533381
    37  H    0.152160
    38  H    0.155241
    39  H    0.155941
    40  H    0.107927
    41  H    0.149797
    42  H    0.172881
    43  H    0.160369
    44  H    0.171163
    45  H    0.159159
    46  H    0.145553
    47  H    0.140753
    48  H   -0.089331
    49  H    0.130978
    50  H    0.128976
    51  H    0.130104
    52  H    0.128953
    53  H    0.136922
    54  H    0.142175
    55  H    0.132350
    56  H    0.138716
    57  H    0.135687
    58  H    0.130066
    59  H    0.128403
    60  H    0.129014
    61  H    0.131064
    62  H    0.144242
    63  H    0.134761
    64  H    0.131329
    65  H    0.133094
    66  H    0.139710
    67  H    0.109607
    68  H    0.156640
    69  H    0.155644
    70  H    0.150795
 Sum of Mulliken charges =  -0.00000

 Dipole moment (field-independent basis, Debye):
    X=              1.1141    Y=             -0.2780    Z=              0.3532  Tot=              1.2013
 Quadrupole moment (field-independent basis, Debye-Ang):
   XX=           -206.9104   YY=           -208.4568   ZZ=           -208.2050
   XY=             -2.3818   XZ=              0.3025   YZ=              6.9516

 Normal termination of Gaussian 16 at Sat Nov  5 10:11:53 2022.
