 Gaussian 16, Revision B.01,
 Gaussian 16:  ES64L-G16RevB.01 20-Dec-2017

 -----------------------------
 #p b3lyp/6-31g(d) opt SCF=XQC
 -----------------------------

 ------------------------------
 Gaussian input prepared by ASE
 ------------------------------
 Symbolic Z-matrix:
 Charge =  0 Multiplicity = 1

 SCF Done:  E(RB3LYP) =  -1643.72162023     A.U. after   15 cycles
 SCF Done:  E(RB3LYP) =  -1643.73224373     A.U. after   14 cycles
 SCF Done:  E(RB3LYP) =  -1643.73240675     A.U. after   13 cycles
 SCF Done:  E(RB3LYP) =  -1643.73446281     A.U. after   12 cycles
 SCF Done:  E(RB3LYP) =  -1643.73487382     A.U. after   12 cycles
 SCF Done:  E(RB3LYP) =  -1643.73493696     A.U. after   11 cycles
 SCF Done:  E(RB3LYP) =  -1643.73504183     A.U. after   11 cycles
 SCF Done:  E(RB3LYP) =  -1643.73521931     A.U. after   12 cycles
 SCF Done:  E(RB3LYP) =  -1643.73503990     A.U. after   13 cycles
 SCF Done:  E(RB3LYP) =  -1643.73539126     A.U. after   12 cycles
 SCF Done:  E(RB3LYP) =  -1643.73674812     A.U. after   11 cycles
 SCF Done:  E(RB3LYP) =  -1643.73674499     A.U. after   11 cycles
 SCF Done:  E(RB3LYP) =  -1643.73675588     A.U. after   11 cycles
 SCF Done:  E(RB3LYP) =  -1643.73675698     A.U. after   10 cycles
 SCF Done:  E(RB3LYP) =  -1643.73675792     A.U. after    9 cycles
 SCF Done:  E(RB3LYP) =  -1643.73675814     A.U. after    7 cycles
 SCF Done:  E(RB3LYP) =  -1643.73675857     A.U. after    8 cycles
 SCF Done:  E(RB3LYP) =  -1643.73675870     A.U. after    8 cycles
 SCF Done:  E(RB3LYP) =  -1643.73675869     A.U. after    6 cycles
 SCF Done:  E(RB3LYP) =  -1643.73675867     A.U. after    6 cycles
 Optimization completed.
    -- Stationary point found.

                         Standard orientation:
 ---------------------------------------------------------------------
 Center     Atomic      Atomic             Coordinates (Angstroms)
 Number     Number       Type             X           Y           Z
 ---------------------------------------------------------------------
      1          6           0        6.229146   -3.513306    0.587736
      2          6           0        5.073853   -2.616046    0.211730
      3          6           0        3.776853   -3.126621    0.133692
      4          6           0        2.663913   -2.348674   -0.209980
      5          6           0        1.299946   -3.002805   -0.266800
      6          6           0        2.857807   -0.981177   -0.495655
      7          6           0        1.700307   -0.064456   -0.873838
      8          6           0        2.007719    0.819712   -2.103339
      9         14           0        1.076586    0.900369    0.687066
     10          6           0        1.014838    2.790260    0.503993
     11          6           0        2.159301    3.510879    0.111727
     12          6           0        2.153919    4.903969    0.033644
     13          6           0        0.998284    5.617856    0.357011
     14          6           0       -0.143104    4.929319    0.768415
     15          6           0       -0.129944    3.534453    0.842540
     16          6           0       -0.567239    0.250796    1.402684
     17          6           0       -0.556755    0.094184    2.802163
     18          6           0       -1.662782   -0.390984    3.494604
     19          6           0       -2.811939   -0.729106    2.790619
     20          6           0       -2.877790   -0.588693    1.395518
     21          6           0       -4.166611   -0.954912    0.732717
     22          6           0       -4.870459   -0.045596   -0.073043
     23          6           0       -6.100724   -0.389540   -0.630902
     24          6           0       -6.653701   -1.650367   -0.396954
     25          6           0       -5.967216   -2.563479    0.404131
     26          6           0       -4.738163   -2.216358    0.966069
     27          6           0       -1.746635   -0.099801    0.692046
     28          6           0       -1.798006   -0.014779   -0.804664
     29          6           0       -1.724078    1.214482   -1.476515
     30          6           0       -1.792110    1.274545   -2.871102
     31          6           0       -1.926787    0.105625   -3.619515
     32          6           0       -1.999818   -1.125558   -2.963430
     33          6           0       -1.942550   -1.183480   -1.571879
     34          6           0        4.162140   -0.472092   -0.409857
     35          6           0        5.269968   -1.249610   -0.066741
     36          6           0        6.645585   -0.629017    0.003193
     37          1           0        5.890291   -4.538720    0.765731
     38          1           0        6.993392   -3.547617   -0.200227
     39          1           0        6.735066   -3.167550    1.499127
     40          1           0        3.622028   -4.182882    0.348351
     41          1           0        1.371056   -4.063846   -0.007183
     42          1           0        0.589034   -2.540531    0.428937
     43          1           0        0.853440   -2.937422   -1.267336
     44          1           0        0.849471   -0.690492   -1.157295
     45          1           0        1.122864    1.388117   -2.403470
     46          1           0        2.311978    0.192543   -2.950179
     47          1           0        2.812181    1.539108   -1.925305
     48          1           0        2.056744    0.646268    1.779628
     49          1           0        3.078707    2.981318   -0.127865
     50          1           0        3.052346    5.432399   -0.275591
     51          1           0        0.991475    6.703214    0.297364
     52          1           0       -1.043188    5.476847    1.037137
     53          1           0       -1.023959    3.018812    1.184908
     54          1           0        0.342146    0.345679    3.359176
     55          1           0       -1.629253   -0.502532    4.575221
     56          1           0       -3.689285   -1.089418    3.320758
     57          1           0       -4.452763    0.939120   -0.257206
     58          1           0       -6.630759    0.331832   -1.247407
     59          1           0       -7.611750   -1.917720   -0.834793
     60          1           0       -6.386251   -3.548729    0.591906
     61          1           0       -4.204448   -2.934294    1.583663
     62          1           0       -1.627320    2.133330   -0.907491
     63          1           0       -1.742012    2.239554   -3.368830
     64          1           0       -1.977550    0.151825   -4.704003
     65          1           0       -2.107118   -2.043097   -3.536049
     66          1           0       -2.013627   -2.142898   -1.067931
     67          1           0        4.329017    0.582129   -0.620919
     68          1           0        7.086538   -0.727073    1.004099
     69          1           0        7.345095   -1.107586   -0.695158
     70          1           0        6.611205    0.437397   -0.240794
 ---------------------------------------------------------------------

 The electronic state is 1-A.
 Alpha  occ. eigenvalues --  -66.12002 -10.20509 -10.20056 -10.19877 -10.19682
 Alpha  occ. eigenvalues --  -10.19132 -10.19105 -10.19067 -10.19050 -10.18989
 Alpha  occ. eigenvalues --  -10.18961 -10.18920 -10.18914 -10.18868 -10.18867
 Alpha  occ. eigenvalues --  -10.18851 -10.18784 -10.18783 -10.18776 -10.18736
 Alpha  occ. eigenvalues --  -10.18728 -10.18726 -10.18614 -10.18184 -10.17997
 Alpha  occ. eigenvalues --  -10.17975 -10.17927 -10.17848 -10.17671 -10.17501
 Alpha  occ. eigenvalues --  -10.17478 -10.17337 -10.17188 -10.16918 -10.16876
 Alpha  occ. eigenvalues --  -10.16774  -5.26552  -3.62449  -3.62424  -3.62372
 Alpha  occ. eigenvalues --   -0.87114  -0.85153  -0.84787  -0.84530  -0.83953
 Alpha  occ. eigenvalues --   -0.78724  -0.77734  -0.76772  -0.76078  -0.74409
 Alpha  occ. eigenvalues --   -0.74099  -0.74001  -0.73884  -0.73066  -0.72346
 Alpha  occ. eigenvalues --   -0.71217  -0.70495  -0.67289  -0.64377  -0.62766
 Alpha  occ. eigenvalues --   -0.61898  -0.60853  -0.60344  -0.59926  -0.59743
 Alpha  occ. eigenvalues --   -0.59517  -0.57965  -0.57323  -0.56777  -0.53641
 Alpha  occ. eigenvalues --   -0.52881  -0.51686  -0.50984  -0.49324  -0.47796
 Alpha  occ. eigenvalues --   -0.47393  -0.46489  -0.46150  -0.45603  -0.45120
 Alpha  occ. eigenvalues --   -0.45007  -0.44572  -0.44046  -0.43563  -0.42821
 Alpha  occ. eigenvalues --   -0.42638  -0.42317  -0.42030  -0.41673  -0.41623
 Alpha  occ. eigenvalues --   -0.41447  -0.41143  -0.40792  -0.40247  -0.39455
 Alpha  occ. eigenvalues --   -0.39126  -0.38992  -0.38248  -0.37931  -0.37558
 Alpha  occ. eigenvalues --   -0.37082  -0.36682  -0.36543  -0.36279  -0.35920
 Alpha  occ. eigenvalues --   -0.35675  -0.35360  -0.34908  -0.34790  -0.34170
 Alpha  occ. eigenvalues --   -0.33920  -0.33678  -0.32919  -0.32652  -0.31618
 Alpha  occ. eigenvalues --   -0.31363  -0.30484  -0.29243  -0.28634  -0.26435
 Alpha  occ. eigenvalues --   -0.26049  -0.25059  -0.24700  -0.24640  -0.24398
 Alpha  occ. eigenvalues --   -0.24050  -0.22421  -0.22229  -0.20696
 Alpha virt. eigenvalues --   -0.02704  -0.02255  -0.01258  -0.00059   0.00027
 Alpha virt. eigenvalues --    0.00283   0.00659   0.01332   0.01640   0.02156
 Alpha virt. eigenvalues --    0.06580   0.08937   0.09175   0.09772   0.10042

 Mulliken charges:
               1
     1  C   -0.534376
     2  C    0.142805
     3  C   -0.254788
     4  C    0.142402
     5  C   -0.555686
     6  C    0.126682
     7  C   -0.408416
     8  C   -0.451240
     9  Si   0.538414
    10  C   -0.039328
    11  C   -0.176037
    12  C   -0.121641
    13  C   -0.133444
    14  C   -0.121731
    15  C   -0.186117
    16  C   -0.111741
    17  C   -0.182126
    18  C   -0.116296
    19  C   -0.181771
    20  C    0.065223
    21  C    0.060061
    22  C   -0.148187
    23  C   -0.135032
    24  C   -0.126518
    25  C   -0.134132
    26  C   -0.168920
    27  C   -0.022973
    28  C    0.032371
    29  C   -0.168018
    30  C   -0.137994
    31  C   -0.125254
    32  C   -0.131512
    33  C   -0.149122
    34  C   -0.246087
    35  C    0.133040
    36  C   -0.533382
    37  H    0.152160
    38  H    0.155242
    39  H    0.155942
    40  H    0.107927
    41  H    0.149797
    42  H    0.172876
    43  H    0.160370
    44  H    0.171168
    45  H    0.159162
    46  H    0.145550
    47  H    0.140754
    48  H   -0.089310
    49  H    0.130982
    50  H    0.128977
    51  H    0.130105
    52  H    0.128953
    53  H    0.136926
    54  H    0.142175
    55  H    0.132350
    56  H    0.138714
    57  H    0.135684
    58  H    0.130067
    59  H    0.128402
    60  H    0.129014
    61  H    0.131064
    62  H    0.144240
    63  H    0.134761
    64  H    0.131330
    65  H    0.133093
    66  H    0.139709
    67  H    0.109607
    68  H    0.156641
    69  H    0.155644
    70  H    0.150795
 Sum of Mulliken charges =  -0.00000

 Dipole moment (field-independent basis, Debye):
    X=             -0.9945    Y=              0.1102    Z=             -0.6647  Tot=              1.2013
 Quadrupole moment (field-independent basis, Debye-Ang):
   XX=           -206.9994   YY=           -204.0073   ZZ=           -212.9532
   XY=              3.6726   XZ=              1.8517   YZ=             -4.0090

 Normal termination of Gaussian 16 at Sat Nov  5 01:20:56 2022.
