 Gaussian 16, Revision B.01,
 Gaussian 16:  ES64L-G16RevB.01 20-Dec-2017

 -----------------------------
 #p b3lyp/6-31g(d) opt SCF=XQC
 -----------------------------

 ------------------------------
 Gaussian input prepared by ASE
 ------------------------------
 Symbolic Z-matrix:
 Charge =  0 Multiplicity = 1

 SCF Done:  E(RB3LYP) =  -956.502029694     A.U. after   16 cycles
 SCF Done:  E(RB3LYP) =  -956.506798374     A.U. after   13 cycles
 SCF Done:  E(RB3LYP) =  -956.507690845     A.U. after   14 cycles
 SCF Done:  E(RB3LYP) =  -956.508060107     A.U. after   12 cycles
 SCF Done:  E(RB3LYP) =  -956.508024205     A.U. after   11 cycles
 SCF Done:  E(RB3LYP) =  -956.508087249     A.U. after   11 cycles
 SCF Done:  E(RB3LYP) =  -956.508094248     A.U. after    9 cycles
 SCF Done:  E(RB3LYP) =  -956.508096117     A.U. after   10 cycles
 SCF Done:  E(RB3LYP) =  -956.508096759     A.U. after    9 cycles
 SCF Done:  E(RB3LYP) =  -956.508096972     A.U. after    8 cycles
 SCF Done:  E(RB3LYP) =  -956.508097012     A.U. after    7 cycles
 Optimization completed.
    -- Stationary point found.

                         Standard orientation:
 ---------------------------------------------------------------------
 Center     Atomic      Atomic             Coordinates (Angstroms)
 Number     Number       Type             X           Y           Z
 ---------------------------------------------------------------------
      1          6           0        3.630283   -3.461201   -0.356782
      2          6           0        3.079527   -2.062141   -0.216127
      3          6           0        1.714618   -1.832498   -0.301482
      4          6           0        1.155979   -0.544746   -0.177263
      5          7           0       -0.214708   -0.405606   -0.267648
      6          6           0       -0.732021    0.794808   -0.169696
      7          6           0       -2.227104    0.941744   -0.345177
      8          8           0       -2.671416    2.015190   -0.738175
      9          6           0       -3.155605   -0.199382   -0.066267
     10          6           0       -2.846093   -1.282599    0.772099
     11          6           0       -3.802597   -2.263924    1.031034
     12          6           0       -5.069511   -2.184212    0.450718
     13          6           0       -5.386908   -1.108132   -0.383302
     14          6           0       -4.440744   -0.119013   -0.630039
     15          6           0        0.057414    1.975388    0.030803
     16          6           0       -0.207821    3.334840    0.172840
     17          6           0        1.024318    3.983087    0.386423
     18          6           0        2.029599    3.028487    0.369581
     19          7           0        1.453264    1.805919    0.154852
     20          6           0        2.033573    0.542817    0.040308
     21          6           0        3.413645    0.322270    0.128914
     22          6           0        3.946949   -0.957498    0.004863
     23          6           0        5.439098   -1.161119    0.103773
     24          1           0        2.825632   -4.183232   -0.522727
     25          1           0        4.180696   -3.774507    0.539884
     26          1           0        4.329035   -3.540789   -1.199646
     27          1           0        1.023263   -2.652911   -0.471668
     28          1           0       -1.862582   -1.356091    1.217130
     29          1           0       -3.556000   -3.094079    1.687527
     30          1           0       -5.809007   -2.955735    0.649551
     31          1           0       -6.372907   -1.040068   -0.835047
     32          1           0       -4.674896    0.732856   -1.259810
     33          1           0       -1.186675    3.781422    0.108720
     34          1           0        1.177539    5.043780    0.534129
     35          1           0        3.095889    3.136076    0.492904
     36          1           0        4.085498    1.158642    0.294860
     37          1           0        5.959288   -0.214128    0.274790
     38          1           0        5.700126   -1.840113    0.925743
     39          1           0        5.846946   -1.606686   -0.812689
 ---------------------------------------------------------------------

 The electronic state is 1-A.
 Alpha  occ. eigenvalues --  -19.13515 -14.40880 -14.33469 -10.27457 -10.24448
 Alpha  occ. eigenvalues --  -10.24029 -10.22648 -10.22237 -10.21811 -10.21152
 Alpha  occ. eigenvalues --  -10.20371 -10.20138 -10.19501 -10.19492 -10.19476
 Alpha  occ. eigenvalues --  -10.19366 -10.19121 -10.19102 -10.18958 -10.18950
 Alpha  occ. eigenvalues --  -10.18879 -10.18482 -10.17758  -1.03548  -1.01322
 Alpha  occ. eigenvalues --   -0.93567  -0.86922  -0.85247  -0.82000  -0.78037
 Alpha  occ. eigenvalues --   -0.76177  -0.75609  -0.74463  -0.74363  -0.71304
 Alpha  occ. eigenvalues --   -0.68991  -0.65759  -0.62362  -0.62073  -0.60501
 Alpha  occ. eigenvalues --   -0.60076  -0.57647  -0.56201  -0.55120  -0.52267
 Alpha  occ. eigenvalues --   -0.50105  -0.49081  -0.46960  -0.46280  -0.45962
 Alpha  occ. eigenvalues --   -0.45244  -0.44703  -0.44489  -0.44012  -0.42959
 Alpha  occ. eigenvalues --   -0.42258  -0.41921  -0.41905  -0.40841  -0.40426
 Alpha  occ. eigenvalues --   -0.39842  -0.39677  -0.38861  -0.38628  -0.37456
 Alpha  occ. eigenvalues --   -0.35934  -0.35689  -0.35559  -0.35393  -0.34080
 Alpha  occ. eigenvalues --   -0.33290  -0.28492  -0.27666  -0.25752  -0.25267
 Alpha  occ. eigenvalues --   -0.24806  -0.23874  -0.22696  -0.20372
 Alpha virt. eigenvalues --   -0.07584  -0.03118  -0.01390   0.00267   0.01471
 Alpha virt. eigenvalues --    0.04546   0.06771   0.08340   0.09334   0.09982
 Alpha virt. eigenvalues --    0.11502   0.11837   0.12877   0.12919   0.14433

 Mulliken charges:
               1
     1  C   -0.536441
     2  C    0.142630
     3  C   -0.243169
     4  C    0.258740
     5  N   -0.583416
     6  C    0.202066
     7  C    0.352865
     8  O   -0.470117
     9  C    0.080828
    10  C   -0.141473
    11  C   -0.143203
    12  C   -0.117279
    13  C   -0.136615
    14  C   -0.152136
    15  C    0.306067
    16  C   -0.196963
    17  C   -0.203889
    18  C    0.038236
    19  N   -0.617220
    20  C    0.384723
    21  C   -0.245272
    22  C    0.131221
    23  C   -0.536614
    24  H    0.162921
    25  H    0.160882
    26  H    0.161903
    27  H    0.142203
    28  H    0.151756
    29  H    0.131760
    30  H    0.133314
    31  H    0.134100
    32  H    0.158277
    33  H    0.165621
    34  H    0.139101
    35  H    0.158620
    36  H    0.134907
    37  H    0.158680
    38  H    0.165836
    39  H    0.166549
 Sum of Mulliken charges =  -0.00000

 Dipole moment (field-independent basis, Debye):
    X=              3.5292    Y=             -2.0650    Z=              1.1789  Tot=              4.2555
 Quadrupole moment (field-independent basis, Debye-Ang):
   XX=           -110.1553   YY=           -123.2911   ZZ=           -134.3841
   XY=              6.6472   XZ=             -0.1323   YZ=              0.7240

 Normal termination of Gaussian 16 at Fri Nov  4 23:31:56 2022.
