 Gaussian 16, Revision B.01,
 Gaussian 16:  ES64L-G16RevB.01 20-Dec-2017

 -------------------------------------------------------------------
 #p b3lyp/6-31g(d) 6D 10F nosymm GFInput td=(50-50,nstate=2) SCF=XQC
 -------------------------------------------------------------------

 ------------------------------
 Gaussian input prepared by ASE
 ------------------------------
 Symbolic Z-matrix:
 Charge =  0 Multiplicity = 1

                          Input orientation:
 ---------------------------------------------------------------------
 Center     Atomic      Atomic             Coordinates (Angstroms)
 Number     Number       Type             X           Y           Z
 ---------------------------------------------------------------------
      1          6           0       -3.536187   -2.672109    1.240613
      2          6           0       -2.877029   -1.413831    0.728038
      3          6           0       -1.497709   -1.276626    0.768660
      4          6           0       -0.839424   -0.121034    0.302739
      5          7           0        0.538505   -0.069576    0.373277
      6          6           0        1.148824    1.012843   -0.043954
      7          6           0        2.651891    1.085604    0.108213
      8          8           0        3.182350    2.187846    0.196662
      9          6           0        3.485215   -0.156893    0.170218
     10          6           0        3.085648   -1.402145   -0.341356
     11          6           0        3.959686   -2.488237   -0.303825
     12          6           0        5.232432   -2.350146    0.252269
     13          6           0        5.639266   -1.113546    0.761763
     14          6           0        4.776080   -0.024168    0.710525
     15          6           0        0.454343    2.149735   -0.575319
     16          6           0        0.825735    3.391940   -1.082889
     17          6           0       -0.352362    4.049818   -1.486986
     18          6           0       -1.430091    3.218448   -1.223437
     19          7           0       -0.951280    2.061879   -0.670239
     20          6           0       -1.629269    0.928911   -0.220771
     21          6           0       -3.023002    0.800701   -0.267273
     22          6           0       -3.655400   -0.349264    0.196690
     23          6           0       -5.159573   -0.455378    0.133805
     24          1           0       -2.790366   -3.380521    1.612411
     25          1           0       -4.115160   -3.177251    0.456556
     26          1           0       -4.233918   -2.460835    2.061310
     27          1           0       -0.872605   -2.069272    1.169871
     28          1           0        2.096721   -1.518955   -0.764590
     29          1           0        3.644017   -3.445707   -0.709476
     30          1           0        5.907161   -3.201750    0.286132
     31          1           0        6.630284   -1.000274    1.192988
     32          1           0        5.080904    0.947682    1.084301
     33          1           0        1.837307    3.761152   -1.128794
     34          1           0       -0.421837    5.036898   -1.924260
     35          1           0       -2.485214    3.370492   -1.388843
     36          1           0       -3.627373    1.608286   -0.668501
     37          1           0       -5.604017    0.444944   -0.300393
     38          1           0       -5.478639   -1.312690   -0.472837
     39          1           0       -5.595912   -0.596974    1.130967
 ---------------------------------------------------------------------

 SCF Done:  E(RB3LYP) =  -956.508097961     A.U. after   15 cycles

 Excitation energies and oscillator strengths:

 Excited state symmetry could not be determined.
 Excited State   1:      Triplet-?Sym    2.1530 eV  575.87 nm  f=0.0000  <S**2>=2.000
      79 -> 80         0.66533
      79 -> 81         0.17037
 This state for optimization and/or second-order correction.
 Total Energy, E(TD-HF/TD-DFT) =  -956.428977725
 Copying the excited state density for this state as the 1-particle RhoCI density.

 Excited state symmetry could not be determined.
 Excited State   2:      Triplet-?Sym    2.6847 eV  461.82 nm  f=0.0000  <S**2>=2.000
      75 -> 80        -0.12706
      77 -> 80         0.64382
      77 -> 81        -0.12225
      78 -> 80        -0.11934

 Excited state symmetry could not be determined.
 Excited State   3:      Singlet-?Sym    2.9190 eV  424.74 nm  f=0.0911  <S**2>=0.000
      77 -> 80        -0.13881
      79 -> 80         0.68255

 Excited state symmetry could not be determined.
 Excited State   4:      Singlet-?Sym    3.2500 eV  381.50 nm  f=0.0122  <S**2>=0.000
      74 -> 80        -0.17635
      75 -> 80        -0.21392
      77 -> 80         0.60668
      78 -> 80        -0.12375
      79 -> 80         0.13412

 Alpha  occ. eigenvalues --  -19.13515 -14.40880 -14.33468 -10.27457 -10.24448
 Alpha  occ. eigenvalues --  -10.24029 -10.22648 -10.22237 -10.21811 -10.21152
 Alpha  occ. eigenvalues --  -10.20371 -10.20138 -10.19501 -10.19492 -10.19476
 Alpha  occ. eigenvalues --  -10.19366 -10.19121 -10.19102 -10.18958 -10.18950
 Alpha  occ. eigenvalues --  -10.18879 -10.18482 -10.17758  -1.03548  -1.01322
 Alpha  occ. eigenvalues --   -0.93567  -0.86922  -0.85247  -0.82000  -0.78037
 Alpha  occ. eigenvalues --   -0.76177  -0.75609  -0.74463  -0.74363  -0.71304
 Alpha  occ. eigenvalues --   -0.68991  -0.65759  -0.62362  -0.62073  -0.60501
 Alpha  occ. eigenvalues --   -0.60076  -0.57647  -0.56201  -0.55120  -0.52267
 Alpha  occ. eigenvalues --   -0.50105  -0.49081  -0.46960  -0.46280  -0.45962
 Alpha  occ. eigenvalues --   -0.45244  -0.44703  -0.44489  -0.44012  -0.42959
 Alpha  occ. eigenvalues --   -0.42258  -0.41921  -0.41905  -0.40841  -0.40426
 Alpha  occ. eigenvalues --   -0.39842  -0.39677  -0.38861  -0.38628  -0.37456
 Alpha  occ. eigenvalues --   -0.35934  -0.35689  -0.35559  -0.35393  -0.34080
 Alpha  occ. eigenvalues --   -0.33290  -0.28492  -0.27666  -0.25752  -0.25267
 Alpha  occ. eigenvalues --   -0.24806  -0.23874  -0.22696  -0.20372
 Alpha virt. eigenvalues --   -0.07584  -0.03118  -0.01390   0.00267   0.01471
 Alpha virt. eigenvalues --    0.04546   0.06771   0.08340   0.09334   0.09982
 Alpha virt. eigenvalues --    0.11502   0.11837   0.12877   0.12919   0.14433

 Mulliken charges:
               1
     1  C   -0.536435
     2  C    0.142619
     3  C   -0.243173
     4  C    0.258743
     5  N   -0.583409
     6  C    0.202068
     7  C    0.352870
     8  O   -0.470119
     9  C    0.080828
    10  C   -0.141479
    11  C   -0.143207
    12  C   -0.117272
    13  C   -0.136623
    14  C   -0.152128
    15  C    0.306080
    16  C   -0.196978
    17  C   -0.203883
    18  C    0.038228
    19  N   -0.617218
    20  C    0.384714
    21  C   -0.245273
    22  C    0.131230
    23  C   -0.536616
    24  H    0.162920
    25  H    0.160881
    26  H    0.161902
    27  H    0.142205
    28  H    0.151757
    29  H    0.131760
    30  H    0.133313
    31  H    0.134101
    32  H    0.158277
    33  H    0.165623
    34  H    0.139101
    35  H    0.158621
    36  H    0.134906
    37  H    0.158680
    38  H    0.165837
    39  H    0.166549
 Sum of Mulliken charges =  -0.00000

 Dipole moment (field-independent basis, Debye):
    X=             -3.6890    Y=             -2.0289    Z=             -0.6197  Tot=              4.2555
 Quadrupole moment (field-independent basis, Debye-Ang):
   XX=           -113.9121   YY=           -124.5068   ZZ=           -133.0937
   XY=             -9.0868   XZ=              1.5643   YZ=             -3.9750

 Normal termination of Gaussian 16 at Sat Nov  5 09:58:08 2022.
