 Gaussian 16, Revision B.01,
 Gaussian 16:  ES64L-G16RevB.01 20-Dec-2017

 -----------------------------
 #p b3lyp/6-31g(d) opt SCF=XQC
 -----------------------------

 ------------------------------
 Gaussian input prepared by ASE
 ------------------------------
 Symbolic Z-matrix:
 Charge =  0 Multiplicity = 1

 SCF Done:  E(RB3LYP) =  -2717.59029973     A.U. after   16 cycles
 SCF Done:  E(RB3LYP) =  -2717.60077703     A.U. after   13 cycles
 SCF Done:  E(RB3LYP) =  -2717.60130121     A.U. after   12 cycles
 SCF Done:  E(RB3LYP) =  -2717.60154598     A.U. after   12 cycles
 SCF Done:  E(RB3LYP) =  -2717.60163723     A.U. after   12 cycles
 SCF Done:  E(RB3LYP) =  -2717.60169366     A.U. after   12 cycles
 SCF Done:  E(RB3LYP) =  -2717.60171673     A.U. after   12 cycles
 SCF Done:  E(RB3LYP) =  -2717.60172663     A.U. after   11 cycles
 SCF Done:  E(RB3LYP) =  -2717.60172858     A.U. after   11 cycles
 SCF Done:  E(RB3LYP) =  -2717.60172867     A.U. after    7 cycles
 SCF Done:  E(RB3LYP) =  -2717.60172876     A.U. after    7 cycles
 SCF Done:  E(RB3LYP) =  -2717.60172879     A.U. after    9 cycles
 SCF Done:  E(RB3LYP) =  -2717.60172878     A.U. after    7 cycles
 SCF Done:  E(RB3LYP) =  -2717.60172879     A.U. after    7 cycles
 SCF Done:  E(RB3LYP) =  -2717.60172875     A.U. after    9 cycles
 SCF Done:  E(RB3LYP) =  -2717.60172875     A.U. after    7 cycles
 SCF Done:  E(RB3LYP) =  -2717.60172875     A.U. after    7 cycles
 SCF Done:  E(RB3LYP) =  -2717.60172877     A.U. after    6 cycles
 Optimization completed.
    -- Stationary point found.

                         Standard orientation:
 ---------------------------------------------------------------------
 Center     Atomic      Atomic             Coordinates (Angstroms)
 Number     Number       Type             X           Y           Z
 ---------------------------------------------------------------------
      1          6           0        5.858461    0.194663    3.568441
      2          6           0        4.658912    0.958756    3.556738
      3          6           0        3.974784    1.152670    2.386467
      4          6           0        4.437469    0.596792    1.149388
      5          6           0        3.743377    0.799143   -0.063775
      6          6           0        2.495573    1.628750   -0.080991
      7          6           0        2.583025    3.037593   -0.130610
      8          6           0        1.447236    3.843859   -0.148300
      9          6           0        0.188315    3.234139   -0.115125
     10          6           0        0.119928    1.829715   -0.065606
     11          6           0        1.238186    1.008833   -0.047739
     12          8           0       -1.181892    1.386344   -0.036836
     13          6           0       -1.969772    2.515440   -0.068349
     14          6           0       -3.364841    2.506855   -0.054203
     15          6           0       -4.158959    1.240310   -0.003718
     16          6           0       -4.677445    0.688143   -1.194889
     17          6           0       -4.451996    1.296035   -2.472468
     18          6           0       -4.965213    0.755195   -3.620960
     19          6           0       -5.744341   -0.433642   -3.568729
     20          6           0       -5.980915   -1.051807   -2.370017
     21          6           0       -5.456474   -0.528961   -1.143734
     22          6           0       -5.688185   -1.167179    0.094596
     23          6           0       -6.469962   -2.437936    0.138040
     24          6           0       -5.919439   -3.733703   -0.156026
     25          6           0       -6.831988   -4.744399   -0.050483
     26         16           0       -8.394770   -4.145826    0.409851
     27          6           0       -7.801927   -2.516490    0.459244
     28          6           0       -5.161717   -0.617930    1.284520
     29          6           0       -5.360768   -1.243103    2.558133
     30          6           0       -4.852051   -0.699821    3.707375
     31          6           0       -4.109828    0.512707    3.660610
     32          6           0       -3.889094    1.141263    2.464580
     33          6           0       -4.392860    0.605938    1.235144
     34          6           0       -3.971094    3.771705   -0.093148
     35          6           0       -3.222972    4.958478   -0.142083
     36          6           0       -1.829989    4.931817   -0.154388
     37          6           0       -1.190539    3.688209   -0.116983
     38          6           0        4.224482    0.222921   -1.259820
     39          6           0        3.556159    0.415515   -2.512917
     40          6           0        4.021292   -0.157578   -3.666104
     41          6           0        5.191072   -0.966469   -3.643955
     42          6           0        5.869203   -1.168305   -2.471729
     43          6           0        5.426732   -0.581882   -1.241615
     44          6           0        6.126390   -0.775856   -0.030127
     45          6           0        7.361139   -1.613863   -0.003058
     46          6           0        7.395074   -2.987481    0.422074
     47          6           0        8.642008   -3.541284    0.360114
     48         16           0        9.816653   -2.401839   -0.218052
     49          6           0        8.605333   -1.170509   -0.376017
     50          6           0        5.647338   -0.195144    1.164942
     51          6           0        6.334162   -0.361564    2.411046
     52          1           0        6.397965    0.053323    4.501152
     53          1           0        4.286219    1.390416    4.481804
     54          1           0        3.061169    1.736622    2.382766
     55          1           0        3.567158    3.496073   -0.156807
     56          1           0        1.542576    4.925426   -0.188332
     57          1           0        1.141577   -0.070961   -0.008126
     58          1           0       -3.861099    2.204205   -2.517644
     59          1           0       -4.778833    1.235329   -4.577892
     60          1           0       -6.152877   -0.850544   -4.485380
     61          1           0       -6.577226   -1.956863   -2.333206
     62          1           0       -4.881196   -3.886285   -0.430197
     63          1           0       -6.681472   -5.803287   -0.212439
     64          1           0       -8.466232   -1.703138    0.718865
     65          1           0       -5.927988   -2.166318    2.597212
     66          1           0       -5.015529   -1.194595    4.661022
     67          1           0       -3.716029    0.939029    4.579363
     68          1           0       -3.324487    2.066739    2.434522
     69          1           0       -5.056186    3.822738   -0.083525
     70          1           0       -3.743530    5.911472   -0.169481
     71          1           0       -1.256229    5.853471   -0.192275
     72          1           0        2.663290    1.030244   -2.534986
     73          1           0        3.495335    0.003605   -4.603298
     74          1           0        5.546956   -1.424020   -4.563192
     75          1           0        6.762103   -1.783217   -2.458707
     76          1           0        6.513701   -3.525345    0.754221
     77          1           0        8.941751   -4.548703    0.615828
     78          1           0        8.874227   -0.184815   -0.731465
     79          1           0        7.250197   -0.941922    2.423373
 ---------------------------------------------------------------------

 The electronic state is 1-A.
 Alpha  occ. eigenvalues --  -88.90898 -88.90847 -19.20978 -10.25032 -10.24992
 Alpha  occ. eigenvalues --  -10.21544 -10.21488 -10.21354 -10.21308 -10.20621
 Alpha  occ. eigenvalues --  -10.20593 -10.20285 -10.20181 -10.20168 -10.20161
 Alpha  occ. eigenvalues --  -10.20148 -10.20078 -10.20043 -10.20037 -10.20035
 Alpha  occ. eigenvalues --  -10.19992 -10.19910 -10.19896 -10.19888 -10.19871
 Alpha  occ. eigenvalues --  -10.19858 -10.19850 -10.19816 -10.19807 -10.19743
 Alpha  occ. eigenvalues --  -10.19736 -10.19413 -10.19371 -10.19309 -10.19291
 Alpha  occ. eigenvalues --  -10.18813 -10.18776 -10.18775 -10.18769 -10.18734
 Alpha  occ. eigenvalues --  -10.18731 -10.18725 -10.18681 -10.18554 -10.18530
 Alpha  occ. eigenvalues --  -10.18527 -10.18519 -10.18494 -10.18484 -10.18483
 Alpha  occ. eigenvalues --  -10.18430  -7.97024  -7.96972  -5.93421  -5.93370
 Alpha  occ. eigenvalues --   -5.93052  -5.93001  -5.92741  -5.92690  -1.10628
 Alpha  occ. eigenvalues --   -0.88884  -0.88833  -0.87627  -0.87558  -0.86363
 Alpha  occ. eigenvalues --   -0.85814  -0.84438  -0.84401  -0.81324  -0.80009
 Alpha  occ. eigenvalues --   -0.79969  -0.79743  -0.77492  -0.75997  -0.74658
 Alpha  occ. eigenvalues --   -0.74620  -0.74002  -0.73520  -0.73479  -0.73441
 Alpha  occ. eigenvalues --   -0.73142  -0.72852  -0.72504  -0.72461  -0.69092
 Alpha  occ. eigenvalues --   -0.69035  -0.65248  -0.64173  -0.63688  -0.62494
 Alpha  occ. eigenvalues --   -0.61418  -0.61380  -0.61169  -0.59996  -0.58585
 Alpha  occ. eigenvalues --   -0.58553  -0.58343  -0.57055  -0.56722  -0.56632
 Alpha  occ. eigenvalues --   -0.54626  -0.54379  -0.53486  -0.53395  -0.52202
 Alpha  occ. eigenvalues --   -0.52167  -0.52119  -0.51765  -0.50834  -0.50685
 Alpha  occ. eigenvalues --   -0.49881  -0.47583  -0.46389  -0.46158  -0.46156
 Alpha  occ. eigenvalues --   -0.46133  -0.46125  -0.45792  -0.45747  -0.44487
 Alpha  occ. eigenvalues --   -0.44363  -0.44328  -0.43941  -0.43083  -0.42656
 Alpha  occ. eigenvalues --   -0.42624  -0.42363  -0.42059  -0.41447  -0.40853
 Alpha  occ. eigenvalues --   -0.40773  -0.40711  -0.40400  -0.40353  -0.40343
 Alpha  occ. eigenvalues --   -0.39780  -0.38576  -0.38463  -0.38398  -0.38250
 Alpha  occ. eigenvalues --   -0.37677  -0.37418  -0.37346  -0.37317  -0.37271
 Alpha  occ. eigenvalues --   -0.37121  -0.36028  -0.35735  -0.35672  -0.35634
 Alpha  occ. eigenvalues --   -0.35268  -0.34900  -0.34706  -0.34179  -0.34106
 Alpha  occ. eigenvalues --   -0.34040  -0.33347  -0.33169  -0.31608  -0.31453
 Alpha  occ. eigenvalues --   -0.29778  -0.29714  -0.28920  -0.28790  -0.28401
 Alpha  occ. eigenvalues --   -0.26180  -0.25326  -0.25287  -0.24820  -0.24764
 Alpha  occ. eigenvalues --   -0.23839  -0.23776  -0.23443  -0.23388  -0.22763
 Alpha  occ. eigenvalues --   -0.22271  -0.18969  -0.18949
 Alpha virt. eigenvalues --   -0.06205  -0.06178  -0.03914  -0.01709  -0.01614
 Alpha virt. eigenvalues --   -0.00986  -0.00729  -0.00046   0.00757   0.01287
 Alpha virt. eigenvalues --    0.01557   0.02752   0.02843   0.03161   0.04582

 Mulliken charges:
               1
     1  C   -0.134879
     2  C   -0.134126
     3  C   -0.197813
     4  C    0.104243
     5  C   -0.079418
     6  C    0.004449
     7  C   -0.167036
     8  C   -0.196815
     9  C    0.086370
    10  C    0.333460
    11  C   -0.237106
    12  O   -0.547545
    13  C    0.293445
    14  C   -0.094779
    15  C   -0.048345
    16  C    0.113770
    17  C   -0.193936
    18  C   -0.134473
    19  C   -0.134618
    20  C   -0.198282
    21  C    0.098944
    22  C   -0.049671
    23  C    0.002454
    24  C   -0.086137
    25  C   -0.351598
    26  S    0.250576
    27  C   -0.358454
    28  C    0.099881
    29  C   -0.198070
    30  C   -0.134356
    31  C   -0.134776
    32  C   -0.190747
    33  C    0.116595
    34  C   -0.161270
    35  C   -0.148531
    36  C   -0.192823
    37  C    0.092030
    38  C    0.103877
    39  C   -0.197607
    40  C   -0.134077
    41  C   -0.134765
    42  C   -0.198299
    43  C    0.103512
    44  C   -0.053195
    45  C    0.003926
    46  C   -0.086737
    47  C   -0.351587
    48  S    0.250994
    49  C   -0.358661
    50  C    0.102358
    51  C   -0.198451
    52  H    0.129532
    53  H    0.129398
    54  H    0.145574
    55  H    0.139366
    56  H    0.138058
    57  H    0.157081
    58  H    0.143446
    59  H    0.129114
    60  H    0.129371
    61  H    0.148100
    62  H    0.149905
    63  H    0.176116
    64  H    0.179741
    65  H    0.147306
    66  H    0.129303
    67  H    0.129241
    68  H    0.142020
    69  H    0.140714
    70  H    0.133367
    71  H    0.136303
    72  H    0.145437
    73  H    0.129846
    74  H    0.129477
    75  H    0.147304
    76  H    0.148707
    77  H    0.176129
    78  H    0.180013
    79  H    0.148133
 Sum of Mulliken charges =  -0.00000

 Dipole moment (field-independent basis, Debye):
    X=              0.1585    Y=              0.6204    Z=              0.0073  Tot=              0.6404
 Quadrupole moment (field-independent basis, Debye-Ang):
   XX=           -298.6636   YY=           -275.1275   ZZ=           -286.7805
   XY=             -4.4738   XZ=              2.8010   YZ=             -0.1237

 Normal termination of Gaussian 16 at Sat Nov  5 00:57:49 2022.
