 Gaussian 16, Revision B.01,
 Gaussian 16:  ES64L-G16RevB.01 20-Dec-2017

 -------------------------------------------------------------------
 #p b3lyp/6-31g(d) 6D 10F nosymm GFInput td=(50-50,nstate=2) SCF=XQC
 -------------------------------------------------------------------

 ------------------------------
 Gaussian input prepared by ASE
 ------------------------------
 Symbolic Z-matrix:
 Charge =  0 Multiplicity = 1

                          Input orientation:
 ---------------------------------------------------------------------
 Center     Atomic      Atomic             Coordinates (Angstroms)
 Number     Number       Type             X           Y           Z
 ---------------------------------------------------------------------
      1          6           0       -5.962016    2.301871    2.565734
      2          6           0       -4.742259    1.793181    3.091397
      3          6           0       -4.024091    0.860622    2.391586
      4          6           0       -4.470629    0.373520    1.120060
      5          6           0       -3.741202   -0.594724    0.395550
      6          6           0       -2.471308   -1.152200    0.963130
      7          6           0       -2.519236   -2.194530    1.915075
      8          6           0       -1.361901   -2.739828    2.466095
      9          6           0       -0.121209   -2.235514    2.061012
     10          6           0       -0.092212   -1.197107    1.112115
     11          6           0       -1.232428   -0.640619    0.550959
     12          8           0        1.195974   -0.812887    0.820406
     13          6           0        2.014740   -1.610835    1.588199
     14          6           0        3.408273   -1.543376    1.590620
     15          6           0        4.166224   -0.575829    0.738169
     16          6           0        4.699143   -0.997253   -0.499167
     17          6           0        4.522267   -2.333617   -0.984362
     18          6           0        5.049161   -2.733423   -2.183308
     19          6           0        5.794198   -1.820604   -2.980041
     20          6           0        5.983883   -0.531737   -2.558324
     21          6           0        5.443341   -0.065040   -1.316477
     22          6           0        5.626632    1.265689   -0.880542
     23          6           0        6.372312    2.230853   -1.740952
     24          6           0        5.794355    2.928368   -2.858091
     25          6           0        6.676223    3.756445   -3.492118
     26         16           0        8.242679    3.709713   -2.746116
     27          6           0        7.693213    2.560899   -1.568428
     28          6           0        5.085689    1.688025    0.353871
     29          6           0        5.235815    3.032959    0.824158
     30          6           0        4.713465    3.431714    2.025344
     31          6           0        4.005815    2.507195    2.842535
     32          6           0        3.832174    1.213382    2.429993
     33          6           0        4.351795    0.752611    1.177177
     34          6           0        4.049405   -2.450003    2.448454
     35          6           0        3.335215   -3.357900    3.246056
     36          6           0        1.942765   -3.398867    3.220246
     37          6           0        1.269072   -2.509684    2.376238
     38          6           0       -4.207726   -1.039266   -0.860936
     39          6           0       -3.503317   -2.029470   -1.620743
     40          6           0       -3.954865   -2.445639   -2.844479
     41          6           0       -5.146350   -1.896601   -3.394117
     42          6           0       -5.858789   -0.956805   -2.698470
     43          6           0       -5.431449   -0.497101   -1.410484
     44          6           0       -6.166169    0.463793   -0.681293
     45          6           0       -7.423491    1.034638   -1.247746
     46          6           0       -7.505296    2.310353   -1.906968
     47          6           0       -8.764859    2.615795   -2.337767
     48         16           0       -9.893341    1.355292   -1.950384
     49          6           0       -8.645488    0.411518   -1.201666
     50          6           0       -5.701551    0.904375    0.577646
     51          6           0       -6.423562    1.870340    1.350826
     52          1           0       -6.528296    3.035919    3.132736
     53          1           0       -4.381225    2.147017    4.053390
     54          1           0       -3.095161    0.475417    2.797063
     55          1           0       -3.489605   -2.576007    2.218830
     56          1           0       -1.426831   -3.542422    3.195552
     57          1           0       -1.166172    0.160464   -0.177556
     58          1           0        3.957543   -3.034470   -0.379495
     59          1           0        4.899849   -3.752720   -2.529321
     60          1           0        6.214051   -2.150265   -3.926617
     61          1           0        6.554312    0.161238   -3.166983
     62          1           0        4.759530    2.806863   -3.159377
     63          1           0        6.501126    4.392354   -4.349491
     64          1           0        8.372646    2.187368   -0.814046
     65          1           0        5.776623    3.739394    0.204426
     66          1           0        4.839576    4.458303    2.358782
     67          1           0        3.600892    2.832156    3.797194
     68          1           0        3.293812    0.511748    3.057742
     69          1           0        5.134903   -2.439640    2.489793
     70          1           0        3.881961   -4.037280    3.893699
     71          1           0        1.395349   -4.103596    3.839743
     72          1           0       -2.593825   -2.450244   -1.206777
     73          1           0       -3.401472   -3.197473   -3.400759
     74          1           0       -5.491435   -2.227278   -4.370115
     75          1           0       -6.768091   -0.542237   -3.119017
     76          1           0       -6.647417    2.958891   -2.047961
     77          1           0       -9.098122    3.502005   -2.860926
     78          1           0       -8.878572   -0.550013   -0.764207
     79          1           0       -7.355029    2.258934    0.954023
 ---------------------------------------------------------------------

 SCF Done:  E(RB3LYP) =  -2717.60172508     A.U. after   16 cycles

 Excitation energies and oscillator strengths:

 Excited state symmetry could not be determined.
 Excited State   1:      Triplet-?Sym    1.7242 eV  719.10 nm  f=0.0000  <S**2>=2.000
     177 ->180        -0.33983
     178 ->180         0.60950
     178 <-180         0.12125
 This state for optimization and/or second-order correction.
 Total Energy, E(TD-HF/TD-DFT) =  -2717.53836365
 Copying the excited state density for this state as the 1-particle RhoCI density.

 Excited state symmetry could not be determined.
 Excited State   2:      Triplet-?Sym    1.7256 eV  718.51 nm  f=0.0000  <S**2>=2.000
     177 ->179         0.60847
     178 ->179         0.33903
     177 <-179         0.12064

 Excited state symmetry could not be determined.
 Excited State   3:      Singlet-?Sym    3.1198 eV  397.42 nm  f=0.2581  <S**2>=0.000
     177 ->179         0.47958
     177 ->180        -0.18169
     178 ->179         0.24144
     178 ->180         0.41020

 Excited state symmetry could not be determined.
 Excited State   4:      Singlet-?Sym    3.1565 eV  392.79 nm  f=0.1396  <S**2>=0.000
     177 ->179        -0.34273
     177 ->180        -0.24636
     178 ->179        -0.30252
     178 ->180         0.47009

 Alpha  occ. eigenvalues --  -88.90898 -88.90846 -19.20978 -10.25032 -10.24992
 Alpha  occ. eigenvalues --  -10.21544 -10.21488 -10.21354 -10.21308 -10.20621
 Alpha  occ. eigenvalues --  -10.20593 -10.20285 -10.20181 -10.20169 -10.20161
 Alpha  occ. eigenvalues --  -10.20148 -10.20078 -10.20043 -10.20037 -10.20035
 Alpha  occ. eigenvalues --  -10.19992 -10.19910 -10.19896 -10.19888 -10.19872
 Alpha  occ. eigenvalues --  -10.19858 -10.19850 -10.19816 -10.19807 -10.19743
 Alpha  occ. eigenvalues --  -10.19736 -10.19413 -10.19371 -10.19309 -10.19291
 Alpha  occ. eigenvalues --  -10.18813 -10.18776 -10.18775 -10.18769 -10.18734
 Alpha  occ. eigenvalues --  -10.18731 -10.18725 -10.18681 -10.18554 -10.18530
 Alpha  occ. eigenvalues --  -10.18527 -10.18519 -10.18494 -10.18484 -10.18483
 Alpha  occ. eigenvalues --  -10.18430  -7.97024  -7.96972  -5.93421  -5.93370
 Alpha  occ. eigenvalues --   -5.93052  -5.93001  -5.92741  -5.92690  -1.10628
 Alpha  occ. eigenvalues --   -0.88884  -0.88833  -0.87627  -0.87558  -0.86363
 Alpha  occ. eigenvalues --   -0.85814  -0.84438  -0.84401  -0.81324  -0.80009
 Alpha  occ. eigenvalues --   -0.79969  -0.79743  -0.77492  -0.75997  -0.74658
 Alpha  occ. eigenvalues --   -0.74620  -0.74002  -0.73520  -0.73479  -0.73441
 Alpha  occ. eigenvalues --   -0.73142  -0.72851  -0.72504  -0.72461  -0.69092
 Alpha  occ. eigenvalues --   -0.69035  -0.65248  -0.64173  -0.63688  -0.62494
 Alpha  occ. eigenvalues --   -0.61418  -0.61380  -0.61169  -0.59996  -0.58585
 Alpha  occ. eigenvalues --   -0.58553  -0.58344  -0.57055  -0.56722  -0.56632
 Alpha  occ. eigenvalues --   -0.54626  -0.54379  -0.53486  -0.53395  -0.52202
 Alpha  occ. eigenvalues --   -0.52167  -0.52119  -0.51765  -0.50834  -0.50685
 Alpha  occ. eigenvalues --   -0.49881  -0.47583  -0.46389  -0.46158  -0.46156
 Alpha  occ. eigenvalues --   -0.46133  -0.46125  -0.45792  -0.45747  -0.44487
 Alpha  occ. eigenvalues --   -0.44363  -0.44328  -0.43941  -0.43083  -0.42656
 Alpha  occ. eigenvalues --   -0.42624  -0.42363  -0.42059  -0.41447  -0.40853
 Alpha  occ. eigenvalues --   -0.40773  -0.40711  -0.40400  -0.40353  -0.40343
 Alpha  occ. eigenvalues --   -0.39780  -0.38576  -0.38463  -0.38398  -0.38250
 Alpha  occ. eigenvalues --   -0.37677  -0.37418  -0.37346  -0.37317  -0.37271
 Alpha  occ. eigenvalues --   -0.37121  -0.36028  -0.35735  -0.35672  -0.35634
 Alpha  occ. eigenvalues --   -0.35268  -0.34900  -0.34706  -0.34179  -0.34106
 Alpha  occ. eigenvalues --   -0.34040  -0.33347  -0.33169  -0.31608  -0.31453
 Alpha  occ. eigenvalues --   -0.29778  -0.29714  -0.28920  -0.28790  -0.28401
 Alpha  occ. eigenvalues --   -0.26180  -0.25326  -0.25287  -0.24820  -0.24764
 Alpha  occ. eigenvalues --   -0.23839  -0.23776  -0.23443  -0.23388  -0.22763
 Alpha  occ. eigenvalues --   -0.22271  -0.18969  -0.18949
 Alpha virt. eigenvalues --   -0.06205  -0.06178  -0.03914  -0.01709  -0.01614
 Alpha virt. eigenvalues --   -0.00986  -0.00729  -0.00046   0.00757   0.01287
 Alpha virt. eigenvalues --    0.01557   0.02752   0.02843   0.03161   0.04582

 Mulliken charges:
               1
     1  C   -0.134890
     2  C   -0.134120
     3  C   -0.197806
     4  C    0.104229
     5  C   -0.079418
     6  C    0.004449
     7  C   -0.167041
     8  C   -0.196818
     9  C    0.086363
    10  C    0.333466
    11  C   -0.237099
    12  O   -0.547546
    13  C    0.293453
    14  C   -0.094786
    15  C   -0.048340
    16  C    0.113763
    17  C   -0.193937
    18  C   -0.134475
    19  C   -0.134614
    20  C   -0.198282
    21  C    0.098936
    22  C   -0.049661
    23  C    0.002457
    24  C   -0.086137
    25  C   -0.351603
    26  S    0.250578
    27  C   -0.358452
    28  C    0.099873
    29  C   -0.198067
    30  C   -0.134360
    31  C   -0.134774
    32  C   -0.190742
    33  C    0.116591
    34  C   -0.161269
    35  C   -0.148537
    36  C   -0.192806
    37  C    0.092024
    38  C    0.103887
    39  C   -0.197610
    40  C   -0.134083
    41  C   -0.134761
    42  C   -0.198295
    43  C    0.103504
    44  C   -0.053198
    45  C    0.003934
    46  C   -0.086745
    47  C   -0.351576
    48  S    0.250991
    49  C   -0.358666
    50  C    0.102369
    51  C   -0.198453
    52  H    0.129534
    53  H    0.129398
    54  H    0.145574
    55  H    0.139366
    56  H    0.138057
    57  H    0.157078
    58  H    0.143446
    59  H    0.129114
    60  H    0.129371
    61  H    0.148101
    62  H    0.149906
    63  H    0.176117
    64  H    0.179740
    65  H    0.147306
    66  H    0.129302
    67  H    0.129240
    68  H    0.142021
    69  H    0.140713
    70  H    0.133367
    71  H    0.136302
    72  H    0.145435
    73  H    0.129848
    74  H    0.129477
    75  H    0.147304
    76  H    0.148707
    77  H    0.176129
    78  H    0.180014
    79  H    0.148131
 Sum of Mulliken charges =  -0.00000

 Dipole moment (field-independent basis, Debye):
    X=             -0.1418    Y=             -0.4430    Z=              0.4402  Tot=              0.6404
 Quadrupole moment (field-independent basis, Debye-Ang):
   XX=           -298.2496   YY=           -281.2703   ZZ=           -281.2934
   XY=             -5.8202   XZ=              1.3778   YZ=             -5.6464

 Normal termination of Gaussian 16 at Sat Nov  5 10:18:16 2022.
