 Gaussian 16, Revision B.01,
 Gaussian 16:  ES64L-G16RevB.01 20-Dec-2017

 -----------------------------
 #p b3lyp/6-31g(d) opt SCF=XQC
 -----------------------------

 ------------------------------
 Gaussian input prepared by ASE
 ------------------------------
 Symbolic Z-matrix:
 Charge =  0 Multiplicity = 1

 SCF Done:  E(RB3LYP) =  -1722.48290904     A.U. after   15 cycles
 SCF Done:  E(RB3LYP) =  -1722.49427595     A.U. after   13 cycles
 SCF Done:  E(RB3LYP) =  -1722.49536040     A.U. after   13 cycles
 SCF Done:  E(RB3LYP) =  -1722.49587508     A.U. after   12 cycles
 SCF Done:  E(RB3LYP) =  -1722.49577918     A.U. after   12 cycles
 SCF Done:  E(RB3LYP) =  -1722.49593005     A.U. after   12 cycles
 SCF Done:  E(RB3LYP) =  -1722.49605439     A.U. after   10 cycles
 SCF Done:  E(RB3LYP) =  -1722.49614898     A.U. after   12 cycles
 SCF Done:  E(RB3LYP) =  -1722.49622364     A.U. after   12 cycles
 SCF Done:  E(RB3LYP) =  -1722.49625105     A.U. after   10 cycles
 SCF Done:  E(RB3LYP) =  -1722.49627488     A.U. after   13 cycles
 SCF Done:  E(RB3LYP) =  -1722.49634534     A.U. after   13 cycles
 SCF Done:  E(RB3LYP) =  -1722.49633575     A.U. after   11 cycles
 SCF Done:  E(RB3LYP) =  -1722.49634909     A.U. after   12 cycles
 SCF Done:  E(RB3LYP) =  -1722.49634942     A.U. after   11 cycles
 SCF Done:  E(RB3LYP) =  -1722.49634907     A.U. after    9 cycles
 SCF Done:  E(RB3LYP) =  -1722.49635048     A.U. after   10 cycles
 SCF Done:  E(RB3LYP) =  -1722.49635054     A.U. after    7 cycles
 SCF Done:  E(RB3LYP) =  -1722.49635056     A.U. after    7 cycles
 SCF Done:  E(RB3LYP) =  -1722.49635058     A.U. after    6 cycles
 Optimization completed.
    -- Stationary point found.

                         Standard orientation:
 ---------------------------------------------------------------------
 Center     Atomic      Atomic             Coordinates (Angstroms)
 Number     Number       Type             X           Y           Z
 ---------------------------------------------------------------------
      1          6           0        2.040686    5.712063    0.126846
      2          6           0        1.824519    4.218536    0.063028
      3          6           0        1.905322    3.424822    1.213693
      4          6           0        1.731300    2.042154    1.148764
      5          6           0        1.478984    1.404881   -0.075140
      6          6           0        1.244641   -0.057963   -0.151305
      7          6           0        0.055682   -0.713317   -0.350054
      8          6           0       -1.293759   -0.083172   -0.587870
      9          6           0       -2.252328    0.129137    0.640332
     10          6           0       -1.629329    1.076430    1.676081
     11          6           0       -2.698968   -1.212192    1.289582
     12          6           0       -4.085109   -1.535360    0.720867
     13          8           0       -4.666292   -2.602860    0.792371
     14          6           0       -4.584642   -0.287873    0.094338
     15          6           0       -5.857604   -0.032017   -0.420855
     16          6           0       -6.115797    1.231453   -0.945889
     17          6           0       -5.108437    2.208686   -0.954791
     18          6           0       -3.834121    1.941168   -0.447057
     19          6           0       -3.571368    0.677012    0.084084
     20          6           0        0.336383   -2.134517   -0.340420
     21          6           0       -0.477721   -3.264013   -0.532478
     22          6           0        0.089971   -4.529132   -0.456163
     23          6           0        1.460075   -4.682008   -0.186830
     24          6           0        2.294128   -3.582019   -0.007778
     25          6           0        1.719442   -2.310234   -0.102244
     26          7           0        2.285050   -1.018270    0.034498
     27         16           0        3.965209   -0.678073   -0.233699
     28          6           0        4.511996   -0.115081    1.386557
     29          8           0        4.068489    0.429707   -1.176892
     30          8           0        4.620263   -1.955424   -0.500622
     31          6           0        1.391327    2.199359   -1.227887
     32          6           0        1.556147    3.580227   -1.155783
     33          1           0        1.851024    6.103021    1.131805
     34          1           0        3.074232    5.973265   -0.136533
     35          1           0        1.386114    6.242771   -0.573093
     36          1           0        2.092421    3.895146    2.176490
     37          1           0        1.757754    1.454938    2.063279
     38          1           0       -1.152465    0.897499   -1.054964
     39          1           0       -1.829844   -0.693515   -1.326071
     40          1           0       -1.342350    2.034953    1.231325
     41          1           0       -0.729316    0.630873    2.111566
     42          1           0       -2.337790    1.276390    2.488067
     43          1           0       -2.823537   -1.083318    2.373966
     44          1           0       -2.002466   -2.040861    1.155352
     45          1           0       -6.616226   -0.809395   -0.397046
     46          1           0       -7.097178    1.467076   -1.348260
     47          1           0       -5.323654    3.191838   -1.365823
     48          1           0       -3.067759    2.711791   -0.470024
     49          1           0       -1.537706   -3.154324   -0.741489
     50          1           0       -0.531719   -5.407593   -0.603341
     51          1           0        1.886199   -5.679255   -0.122527
     52          1           0        3.351322   -3.711719    0.175373
     53          1           0        4.003780    0.817552    1.630594
     54          1           0        4.296986   -0.895464    2.118434
     55          1           0        5.589872    0.045386    1.303981
     56          1           0        1.209728    1.723657   -2.186837
     57          1           0        1.485695    4.172785   -2.065145
 ---------------------------------------------------------------------

 The electronic state is 1-A.
 Alpha  occ. eigenvalues --  -89.13016 -19.15748 -19.15715 -19.12939 -14.40228
 Alpha  occ. eigenvalues --  -10.26606 -10.23785 -10.23759 -10.23032 -10.21474
 Alpha  occ. eigenvalues --  -10.21214 -10.21003 -10.20564 -10.20419 -10.20367
 Alpha  occ. eigenvalues --  -10.20145 -10.20027 -10.20027 -10.20010 -10.19980
 Alpha  occ. eigenvalues --  -10.19799 -10.19751 -10.19689 -10.19407 -10.19320
 Alpha  occ. eigenvalues --  -10.19183 -10.18861 -10.18843 -10.18616 -10.18490
 Alpha  occ. eigenvalues --  -10.18420 -10.18058  -8.15524  -6.12075  -6.11917
 Alpha  occ. eigenvalues --   -6.11794  -1.12642  -1.02715  -1.01718  -0.98112
 Alpha  occ. eigenvalues --   -0.88089  -0.86971  -0.84778  -0.83125  -0.81130
 Alpha  occ. eigenvalues --   -0.79142  -0.78134  -0.76551  -0.75532  -0.74308
 Alpha  occ. eigenvalues --   -0.74076  -0.73108  -0.71530  -0.70482  -0.68718
 Alpha  occ. eigenvalues --   -0.64773  -0.62827  -0.62216  -0.61901  -0.61834
 Alpha  occ. eigenvalues --   -0.59003  -0.58190  -0.56878  -0.55343  -0.54967
 Alpha  occ. eigenvalues --   -0.53772  -0.51325  -0.50242  -0.49201  -0.48293
 Alpha  occ. eigenvalues --   -0.47828  -0.47641  -0.47405  -0.47210  -0.46898
 Alpha  occ. eigenvalues --   -0.46354  -0.45664  -0.44896  -0.44678  -0.44217
 Alpha  occ. eigenvalues --   -0.43878  -0.43647  -0.42977  -0.42837  -0.42812
 Alpha  occ. eigenvalues --   -0.41950  -0.41455  -0.40892  -0.40204  -0.39961
 Alpha  occ. eigenvalues --   -0.39552  -0.38765  -0.38293  -0.37573  -0.37378
 Alpha  occ. eigenvalues --   -0.36170  -0.36115  -0.35721  -0.35480  -0.35197
 Alpha  occ. eigenvalues --   -0.34997  -0.33989  -0.33812  -0.33703  -0.33336
 Alpha  occ. eigenvalues --   -0.32726  -0.32586  -0.31833  -0.31195  -0.27889
 Alpha  occ. eigenvalues --   -0.26108  -0.25972  -0.25331  -0.25199  -0.23689
 Alpha  occ. eigenvalues --   -0.23047  -0.21116
 Alpha virt. eigenvalues --   -0.05199  -0.02916  -0.01548  -0.01103  -0.00923
 Alpha virt. eigenvalues --    0.00585   0.03895   0.04571   0.04997   0.06784
 Alpha virt. eigenvalues --    0.07955   0.08133   0.08825   0.09838   0.10156

 Mulliken charges:
               1
     1  C   -0.531289
     2  C    0.184024
     3  C   -0.188507
     4  C   -0.170787
     5  C    0.074495
     6  C    0.168527
     7  C    0.080025
     8  C   -0.366095
     9  C    0.021826
    10  C   -0.467459
    11  C   -0.404056
    12  C    0.380669
    13  O   -0.471014
    14  C    0.061148
    15  C   -0.165668
    16  C   -0.136707
    17  C   -0.122963
    18  C   -0.198346
    19  C    0.114863
    20  C    0.069448
    21  C   -0.218089
    22  C   -0.136458
    23  C   -0.150225
    24  C   -0.151391
    25  C    0.287740
    26  N   -0.770780
    27  S    1.233289
    28  C   -0.633924
    29  O   -0.502307
    30  O   -0.517165
    31  C   -0.128237
    32  C   -0.185766
    33  H    0.157980
    34  H    0.172634
    35  H    0.161231
    36  H    0.127286
    37  H    0.134613
    38  H    0.151864
    39  H    0.154068
    40  H    0.152854
    41  H    0.151046
    42  H    0.146362
    43  H    0.173280
    44  H    0.184956
    45  H    0.156789
    46  H    0.137536
    47  H    0.136710
    48  H    0.136105
    49  H    0.146292
    50  H    0.133047
    51  H    0.131335
    52  H    0.171576
    53  H    0.214599
    54  H    0.210443
    55  H    0.219573
    56  H    0.147818
    57  H    0.131181
 Sum of Mulliken charges =  -0.00000

 Dipole moment (field-independent basis, Debye):
    X=              0.6393    Y=              5.3880    Z=              2.4976  Tot=              5.9731
 Quadrupole moment (field-independent basis, Debye-Ang):
   XX=           -198.9517   YY=           -183.8850   ZZ=           -188.7305
   XY=             -7.7245   XZ=             22.7701   YZ=             -0.7079

 Normal termination of Gaussian 16 at Sat Nov  5 00:33:38 2022.
