 Gaussian 16, Revision B.01,
 Gaussian 16:  ES64L-G16RevB.01 20-Dec-2017

 -----------------------------
 #p b3lyp/6-31g(d) opt SCF=XQC
 -----------------------------

 ------------------------------
 Gaussian input prepared by ASE
 ------------------------------
 Symbolic Z-matrix:
 Charge =  0 Multiplicity = 1

 SCF Done:  E(RB3LYP) =  -3563.70808119     A.U. after   15 cycles
 SCF Done:  E(RB3LYP) =  -3563.71734416     A.U. after   13 cycles
 SCF Done:  E(RB3LYP) =  -3563.72964930     A.U. after   13 cycles
 SCF Done:  E(RB3LYP) =  -3563.73313137     A.U. after   12 cycles
 SCF Done:  E(RB3LYP) =  -3563.73488806     A.U. after   12 cycles
 SCF Done:  E(RB3LYP) =  -3563.71286882     A.U. after   15 cycles
 SCF Done:  E(RB3LYP) =  -3563.73428259     A.U. after   14 cycles
 SCF Done:  E(RB3LYP) =  -3563.73571870     A.U. after   12 cycles
 SCF Done:  E(RB3LYP) =  -3563.73601597     A.U. after   12 cycles
 SCF Done:  E(RB3LYP) =  -3563.73632664     A.U. after   12 cycles
 SCF Done:  E(RB3LYP) =  -3563.73685505     A.U. after    6 cycles
 SCF Done:  E(RB3LYP) =  -3563.73685511     A.U. after    6 cycles
 SCF Done:  E(RB3LYP) =  -3563.73685518     A.U. after    7 cycles
 SCF Done:  E(RB3LYP) =  -3563.73685528     A.U. after    9 cycles
 SCF Done:  E(RB3LYP) =  -3563.73685542     A.U. after    9 cycles
 SCF Done:  E(RB3LYP) =  -3563.73685557     A.U. after    9 cycles
 SCF Done:  E(RB3LYP) =  -3563.73685561     A.U. after    6 cycles
 SCF Done:  E(RB3LYP) =  -3563.73685569     A.U. after    6 cycles
 SCF Done:  E(RB3LYP) =  -3563.73685570     A.U. after    5 cycles
 SCF Done:  E(RB3LYP) =  -3563.73685574     A.U. after    6 cycles
 Optimization completed.
    -- Stationary point found.

                         Standard orientation:
 ---------------------------------------------------------------------
 Center     Atomic      Atomic             Coordinates (Angstroms)
 Number     Number       Type             X           Y           Z
 ---------------------------------------------------------------------
      1          6           0       -1.867142    2.574243    6.334775
      2          6           0       -1.618500    3.490525    5.389699
      3          6           0       -0.386971    3.666729    4.607774
      4          6           0        0.747783    2.841857    4.746461
      5          6           0        1.887551    3.046825    3.986097
      6          6           0        1.942153    4.091646    3.047267
      7          8           0        3.117726    4.204457    2.363038
      8          6           0        3.287542    5.244454    1.388798
      9          6           0        2.705091    4.896298    0.015924
     10         14           0        3.261454    3.221545   -0.735256
     11          6           0        2.233131    1.819137    0.020049
     12          6           0        2.915727    3.300065   -2.598866
     13          6           0        5.136550    3.065437   -0.428743
     14          6           0        5.937611    1.945067   -1.131420
     15          6           0        5.717649    0.561440   -0.504894
     16          6           0        6.546487   -0.632099   -1.096836
     17          6           0        6.253715   -0.911888   -2.579501
     18          6           0        7.211372   -1.546727   -3.386350
     19          6           0        6.937895   -1.871838   -4.714542
     20          6           0        5.694237   -1.572667   -5.272823
     21          6           0        4.728248   -0.950091   -4.483883
     22          6           0        5.005838   -0.625432   -3.154039
     23          6           0        8.035061   -0.435740   -0.775355
     24          6           0        8.951125    0.452638   -1.332251
     25          6           0       10.260753    0.490585   -0.836908
     26          6           0       10.651542   -0.357394    0.203585
     27          6           0        9.746923   -1.269200    0.751327
     28          6           0        8.442545   -1.311814    0.253442
     29          6           0        7.322661   -2.192955    0.590383
     30          6           0        7.213475   -3.243178    1.504092
     31          6           0        6.020199   -3.955310    1.590202
     32          6           0        4.931883   -3.649793    0.749827
     33          7           0        3.743922   -4.422437    0.820204
     34          6           0        3.828820   -5.830023    1.024156
     35          6           0        4.749646   -6.602384    0.298867
     36          6           0        4.831642   -7.977772    0.508709
     37          6           0        3.989094   -8.607170    1.427742
     38          6           0        3.065679   -7.842281    2.143834
     39          6           0        2.988796   -6.463822    1.953123
     40          6           0        2.468358   -3.821647    0.652653
     41          6           0        1.466213   -4.473551   -0.083955
     42          6           0        0.206309   -3.903499   -0.224587
     43          6           0       -0.107621   -2.656704    0.343906
     44          6           0       -1.458545   -2.063543    0.190519
     45          6           0       -2.605465   -2.892424    0.217594
     46          6           0       -3.893369   -2.390267    0.070388
     47          6           0       -4.041096   -1.012618   -0.104391
     48          6           0       -2.914619   -0.153503   -0.144945
     49          6           0       -1.630851   -0.685057    0.006588
     50          6           0       -3.419885    1.184589   -0.385078
     51          6           0       -2.809762    2.433568   -0.522499
     52          6           0       -3.588553    3.574853   -0.756281
     53          6           0       -2.960199    4.908013   -0.920988
     54          6           0       -1.849906    5.296501   -0.153163
     55          6           0       -1.269402    6.550699   -0.319475
     56          6           0       -1.764925    7.477082   -1.252531
     57          6           0       -1.110639    8.787222   -1.380724
     58          6           0       -1.436072    9.787620   -2.209995
     59          6           0       -2.877831    7.086286   -2.018932
     60          6           0       -3.457925    5.835046   -1.856945
     61          6           0       -4.994446    3.434406   -0.833476
     62          6           0       -5.628254    2.204911   -0.695495
     63          6           0       -4.830467    1.077865   -0.483678
     64          7           0       -5.202277   -0.257934   -0.306946
     65          6           0       -6.528545   -0.764647   -0.337976
     66          6           0       -7.351258   -0.531195   -1.446804
     67          6           0       -8.653459   -1.022214   -1.467676
     68          6           0       -9.168739   -1.775426   -0.398495
     69          6           0      -10.553552   -2.304403   -0.429568
     70          6           0      -11.129024   -2.769309   -1.627212
     71          6           0      -12.425361   -3.265433   -1.661097
     72          6           0      -13.214207   -3.321548   -0.497297
     73          6           0      -14.591579   -3.835806   -0.475534
     74          6           0      -15.302919   -4.309284   -1.506868
     75          6           0      -12.637579   -2.857628    0.697011
     76          6           0      -11.338640   -2.360349    0.732974
     77          6           0       -8.325339   -2.009044    0.701571
     78          6           0       -7.028619   -1.504958    0.740350
     79          6           0        0.909205   -2.004883    1.063749
     80          6           0        2.169043   -2.574134    1.224534
     81          6           0        5.044002   -2.584626   -0.165549
     82          6           0        6.225265   -1.861460   -0.225910
     83          6           0        0.827863    4.923316    2.890335
     84          6           0       -0.311619    4.703584    3.666955
     85          1           0       -2.824996    2.545930    6.844922
     86          1           0       -1.140869    1.824242    6.636756
     87          1           0       -2.407361    4.204759    5.151883
     88          1           0        0.738192    2.026035    5.463473
     89          1           0        2.761419    2.413089    4.103655
     90          1           0        4.372499    5.363290    1.318666
     91          1           0        2.883670    6.185580    1.785530
     92          1           0        3.002861    5.696108   -0.678281
     93          1           0        1.607708    4.920270    0.045017
     94          1           0        1.164543    2.062842   -0.044392
     95          1           0        2.381839    0.864870   -0.498453
     96          1           0        2.471067    1.670911    1.078516
     97          1           0        3.192335    2.365563   -3.101956
     98          1           0        3.478792    4.109614   -3.079372
     99          1           0        1.851282    3.476016   -2.797020
    100          1           0        5.308862    3.009208    0.655987
    101          1           0        5.560436    4.033619   -0.738993
    102          1           0        5.698095    1.919992   -2.201771
    103          1           0        7.003372    2.191014   -1.063427
    104          1           0        5.965523    0.616959    0.562599
    105          1           0        4.655735    0.294137   -0.543286
    106          1           0        8.183664   -1.789030   -2.969381
    107          1           0        7.701534   -2.361364   -5.313745
    108          1           0        5.480964   -1.822760   -6.308630
    109          1           0        3.752508   -0.712289   -4.899849
    110          1           0        4.231288   -0.144456   -2.565530
    111          1           0        8.666778    1.097428   -2.158608
    112          1           0       10.978750    1.182089   -1.269615
    113          1           0       11.670446   -0.316662    0.579769
    114          1           0       10.060183   -1.943055    1.544841
    115          1           0        8.044298   -3.506820    2.153834
    116          1           0        5.924423   -4.766213    2.304479
    117          1           0        5.396600   -6.117870   -0.425609
    118          1           0        5.549618   -8.561545   -0.061484
    119          1           0        4.051242   -9.680436    1.583790
    120          1           0        2.408394   -8.317518    2.867405
    121          1           0        2.278811   -5.869553    2.519777
    122          1           0        1.683378   -5.428026   -0.552458
    123          1           0       -0.539508   -4.421135   -0.821547
    124          1           0       -2.477360   -3.958206    0.382119
    125          1           0       -4.752332   -3.052640    0.093523
    126          1           0       -0.762047   -0.034965   -0.051611
    127          1           0       -1.727602    2.518170   -0.473035
    128          1           0       -1.456794    4.622641    0.603319
    129          1           0       -0.416911    6.829909    0.296385
    130          1           0       -0.263584    8.935192   -0.710168
    131          1           0       -2.264031    9.727644   -2.911264
    132          1           0       -0.872515   10.715536   -2.212297
    133          1           0       -3.290288    7.765757   -2.759363
    134          1           0       -4.299511    5.555762   -2.484854
    135          1           0       -5.603098    4.322570   -0.975697
    136          1           0       -6.709822    2.131131   -0.738837
    137          1           0       -6.965187    0.033571   -2.289666
    138          1           0       -9.285513   -0.806889   -2.324239
    139          1           0      -10.538750   -2.766246   -2.539381
    140          1           0      -12.826685   -3.623807   -2.604550
    141          1           0      -15.064087   -3.817552    0.506700
    142          1           0      -14.912045   -4.363344   -2.519367
    143          1           0      -16.319107   -4.664433   -1.366341
    144          1           0      -13.225153   -2.879685    1.612068
    145          1           0      -10.937850   -1.984895    1.670359
    146          1           0       -8.685784   -2.604731    1.535091
    147          1           0       -6.397877   -1.680892    1.606188
    148          1           0        0.697936   -1.053284    1.543841
    149          1           0        2.924334   -2.059500    1.810051
    150          1           0        4.214971   -2.356203   -0.827803
    151          1           0        0.832711    5.737741    2.175399
    152          1           0       -1.168861    5.359497    3.532056
 ---------------------------------------------------------------------

 The electronic state is 1-A.
 Alpha  occ. eigenvalues --  -66.11495 -19.17527 -14.38521 -14.36229 -10.24728
 Alpha  occ. eigenvalues --  -10.24319 -10.24166 -10.22713 -10.22645 -10.22608
 Alpha  occ. eigenvalues --  -10.22498 -10.22479 -10.21008 -10.20885 -10.20640
 Alpha  occ. eigenvalues --  -10.20378 -10.20334 -10.20316 -10.20243 -10.20231
 Alpha  occ. eigenvalues --  -10.19777 -10.19716 -10.19668 -10.19626 -10.19610
 Alpha  occ. eigenvalues --  -10.19568 -10.19565 -10.19452 -10.19284 -10.19277
 Alpha  occ. eigenvalues --  -10.19078 -10.19067 -10.19016 -10.19013 -10.18968
 Alpha  occ. eigenvalues --  -10.18950 -10.18943 -10.18927 -10.18912 -10.18911
 Alpha  occ. eigenvalues --  -10.18898 -10.18897 -10.18863 -10.18857 -10.18841
 Alpha  occ. eigenvalues --  -10.18831 -10.18779 -10.18774 -10.18765 -10.18751
 Alpha  occ. eigenvalues --  -10.18721 -10.18687 -10.18686 -10.18669 -10.18666
 Alpha  occ. eigenvalues --  -10.18614 -10.18610 -10.18592 -10.18588 -10.18539
 Alpha  occ. eigenvalues --  -10.18538 -10.18531 -10.18529 -10.18490 -10.18473
 Alpha  occ. eigenvalues --  -10.18466 -10.18431 -10.18407 -10.18384 -10.18374
 Alpha  occ. eigenvalues --  -10.18356 -10.18341 -10.18323 -10.18312 -10.18262
 Alpha  occ. eigenvalues --  -10.18236 -10.18207 -10.18058 -10.17697 -10.17364
 Alpha  occ. eigenvalues --  -10.16996 -10.16282 -10.15656 -10.15569  -5.25891
 Alpha  occ. eigenvalues --   -3.61789  -3.61764  -3.61743  -1.05897  -0.99213
 Alpha  occ. eigenvalues --   -0.96080  -0.88585  -0.87977  -0.86603  -0.86201
 Alpha  occ. eigenvalues --   -0.85649  -0.85200  -0.84847  -0.84650  -0.84291
 Alpha  occ. eigenvalues --   -0.84025  -0.82949  -0.80747  -0.80526  -0.79326
 Alpha  occ. eigenvalues --   -0.78533  -0.78351  -0.77589  -0.76597  -0.76174
 Alpha  occ. eigenvalues --   -0.76091  -0.75980  -0.75712  -0.75104  -0.74875
 Alpha  occ. eigenvalues --   -0.74472  -0.74406  -0.74273  -0.74209  -0.74012
 Alpha  occ. eigenvalues --   -0.73844  -0.73503  -0.73219  -0.72511  -0.72220
 Alpha  occ. eigenvalues --   -0.71199  -0.71185  -0.70133  -0.69978  -0.68968
 Alpha  occ. eigenvalues --   -0.68867  -0.67085  -0.65565  -0.64829  -0.64209
 Alpha  occ. eigenvalues --   -0.63753  -0.63469  -0.62976  -0.62706  -0.61669
 Alpha  occ. eigenvalues --   -0.61164  -0.61068  -0.60750  -0.60498  -0.60356
 Alpha  occ. eigenvalues --   -0.59972  -0.59734  -0.59483  -0.59368  -0.58892
 Alpha  occ. eigenvalues --   -0.58408  -0.57963  -0.57722  -0.57456  -0.57003
 Alpha  occ. eigenvalues --   -0.56306  -0.55975  -0.55694  -0.55350  -0.55133
 Alpha  occ. eigenvalues --   -0.54081  -0.52961  -0.52535  -0.52314  -0.51993
 Alpha  occ. eigenvalues --   -0.51700  -0.51478  -0.51200  -0.50133  -0.49343
 Alpha  occ. eigenvalues --   -0.48960  -0.48860  -0.48408  -0.47807  -0.47545
 Alpha  occ. eigenvalues --   -0.47391  -0.47260  -0.46652  -0.46455  -0.46172
 Alpha  occ. eigenvalues --   -0.46026  -0.45749  -0.45359  -0.45316  -0.45084
 Alpha  occ. eigenvalues --   -0.45021  -0.44940  -0.44718  -0.44640  -0.44364
 Alpha  occ. eigenvalues --   -0.44253  -0.44027  -0.43841  -0.43719  -0.43636
 Alpha  occ. eigenvalues --   -0.43607  -0.43492  -0.43383  -0.43195  -0.42791
 Alpha  occ. eigenvalues --   -0.42484  -0.42439  -0.42315  -0.42254  -0.42174
 Alpha  occ. eigenvalues --   -0.42001  -0.41892  -0.41842  -0.41692  -0.41571
 Alpha  occ. eigenvalues --   -0.41425  -0.41284  -0.41072  -0.40956  -0.40692
 Alpha  occ. eigenvalues --   -0.40510  -0.40260  -0.39877  -0.39502  -0.39196
 Alpha  occ. eigenvalues --   -0.39090  -0.38793  -0.38703  -0.38546  -0.38478
 Alpha  occ. eigenvalues --   -0.38023  -0.37758  -0.37567  -0.37401  -0.37185
 Alpha  occ. eigenvalues --   -0.37110  -0.37010  -0.36914  -0.36699  -0.36607
 Alpha  occ. eigenvalues --   -0.36438  -0.36385  -0.36069  -0.35874  -0.35593
 Alpha  occ. eigenvalues --   -0.35487  -0.35248  -0.34986  -0.34867  -0.34810
 Alpha  occ. eigenvalues --   -0.34726  -0.34481  -0.34429  -0.34333  -0.34193
 Alpha  occ. eigenvalues --   -0.34147  -0.33957  -0.33891  -0.33825  -0.33358
 Alpha  occ. eigenvalues --   -0.33195  -0.33145  -0.33060  -0.32462  -0.32388
 Alpha  occ. eigenvalues --   -0.32114  -0.31434  -0.31147  -0.30854  -0.30354
 Alpha  occ. eigenvalues --   -0.29711  -0.28954  -0.28407  -0.28119  -0.27463
 Alpha  occ. eigenvalues --   -0.27134  -0.26864  -0.26507  -0.26444  -0.26077
 Alpha  occ. eigenvalues --   -0.25741  -0.25334  -0.25008  -0.24930  -0.24892
 Alpha  occ. eigenvalues --   -0.24551  -0.24476  -0.24326  -0.23898  -0.23358
 Alpha  occ. eigenvalues --   -0.22652  -0.22109  -0.21813  -0.20807  -0.20023
 Alpha  occ. eigenvalues --   -0.19147  -0.17229
 Alpha virt. eigenvalues --   -0.05132  -0.03878  -0.03073  -0.02824  -0.01929
 Alpha virt. eigenvalues --   -0.01849  -0.01631  -0.01364  -0.00871  -0.00287
 Alpha virt. eigenvalues --   -0.00198  -0.00003   0.00120   0.00147   0.00555

 Mulliken charges:
               1
     1  C   -0.356408
     2  C   -0.115053
     3  C    0.174120
     4  C   -0.186867
     5  C   -0.180143
     6  C    0.383552
     7  O   -0.525521
     8  C   -0.049909
     9  C   -0.511217
    10  Si   0.774327
    11  C   -0.685050
    12  C   -0.664233
    13  C   -0.484653
    14  C   -0.269108
    15  C   -0.265610
    16  C   -0.160824
    17  C    0.174563
    18  C   -0.184126
    19  C   -0.131230
    20  C   -0.128450
    21  C   -0.136219
    22  C   -0.197890
    23  C    0.068075
    24  C   -0.194938
    25  C   -0.138192
    26  C   -0.134824
    27  C   -0.195703
    28  C    0.085416
    29  C    0.087792
    30  C   -0.202831
    31  C   -0.183002
    32  C    0.301614
    33  N   -0.660153
    34  C    0.263501
    35  C   -0.157494
    36  C   -0.141026
    37  C   -0.127605
    38  C   -0.140686
    39  C   -0.157148
    40  C    0.291588
    41  C   -0.172928
    42  C   -0.190493
    43  C    0.092955
    44  C    0.083950
    45  C   -0.193209
    46  C   -0.178427
    47  C    0.315349
    48  C    0.064924
    49  C   -0.261990
    50  C    0.062057
    51  C   -0.257654
    52  C    0.082973
    53  C    0.088138
    54  C   -0.190076
    55  C   -0.213597
    56  C    0.180394
    57  C   -0.117957
    58  C   -0.351220
    59  C   -0.191426
    60  C   -0.175926
    61  C   -0.193423
    62  C   -0.178793
    63  C    0.318809
    64  N   -0.741741
    65  C    0.270767
    66  C   -0.155822
    67  C   -0.190925
    68  C    0.102379
    69  C    0.088236
    70  C   -0.175301
    71  C   -0.188831
    72  C    0.178310
    73  C   -0.117243
    74  C   -0.349362
    75  C   -0.203500
    76  C   -0.174304
    77  C   -0.190722
    78  C   -0.155777
    79  C   -0.191631
    80  C   -0.174126
    81  C   -0.246596
    82  C    0.099102
    83  C   -0.193438
    84  C   -0.218985
    85  H    0.140415
    86  H    0.137609
    87  H    0.125581
    88  H    0.130584
    89  H    0.139219
    90  H    0.156938
    91  H    0.142855
    92  H    0.151462
    93  H    0.160182
    94  H    0.161317
    95  H    0.161185
    96  H    0.173080
    97  H    0.160898
    98  H    0.156872
    99  H    0.164169
   100  H    0.156108
   101  H    0.141756
   102  H    0.143639
   103  H    0.139749
   104  H    0.145036
   105  H    0.148546
   106  H    0.142069
   107  H    0.128317
   108  H    0.127313
   109  H    0.129534
   110  H    0.134856
   111  H    0.137575
   112  H    0.126258
   113  H    0.126808
   114  H    0.127529
   115  H    0.130248
   116  H    0.143052
   117  H    0.147011
   118  H    0.131800
   119  H    0.127568
   120  H    0.131185
   121  H    0.144019
   122  H    0.144589
   123  H    0.132251
   124  H    0.130665
   125  H    0.141273
   126  H    0.141985
   127  H    0.140416
   128  H    0.144901
   129  H    0.128747
   130  H    0.123951
   131  H    0.141746
   132  H    0.143582
   133  H    0.127636
   134  H    0.131282
   135  H    0.131634
   136  H    0.142422
   137  H    0.153208
   138  H    0.140924
   139  H    0.134546
   140  H    0.130922
   141  H    0.129050
   142  H    0.143245
   143  H    0.146914
   144  H    0.132101
   145  H    0.134861
   146  H    0.141290
   147  H    0.154619
   148  H    0.140319
   149  H    0.143592
   150  H    0.147760
   151  H    0.140779
   152  H    0.135090
 Sum of Mulliken charges =  -0.00000

 Dipole moment (field-independent basis, Debye):
    X=             -2.1828    Y=             -0.6644    Z=             -1.1200  Tot=              2.5417
 Quadrupole moment (field-independent basis, Debye-Ang):
   XX=           -439.4122   YY=           -468.5360   ZZ=           -485.2683
   XY=             12.9937   XZ=              2.4780   YZ=            -12.1466

 Normal termination of Gaussian 16 at Sat Nov  5 04:46:20 2022.
