 Gaussian 16, Revision B.01,
 Gaussian 16:  ES64L-G16RevB.01 20-Dec-2017

 -------------------------------------------------------------------
 #p b3lyp/6-31g(d) 6D 10F nosymm GFInput td=(50-50,nstate=2) SCF=XQC
 -------------------------------------------------------------------

 ------------------------------
 Gaussian input prepared by ASE
 ------------------------------
 Symbolic Z-matrix:
 Charge =  0 Multiplicity = 1

                          Input orientation:
 ---------------------------------------------------------------------
 Center     Atomic      Atomic             Coordinates (Angstroms)
 Number     Number       Type             X           Y           Z
 ---------------------------------------------------------------------
      1          6           0       -0.377978    4.647776    5.340562
      2          6           0       -0.070001    5.145694    4.135659
      3          6           0        1.045552    4.760626    3.260229
      4          6           0        1.977370    3.753599    3.584154
      5          6           0        3.013847    3.424827    2.725748
      6          6           0        3.163988    4.092358    1.497785
      7          8           0        4.225457    3.692354    0.738742
      8          6           0        4.480625    4.315502   -0.528598
      9          6           0        3.645864    3.734946   -1.673750
     10         14           0        3.704621    1.828671   -1.876907
     11          6           0        2.509787    1.026006   -0.642897
     12          6           0        3.122720    1.434028   -3.638833
     13          6           0        5.522658    1.297897   -1.659363
     14          6           0        5.947148   -0.146409   -2.012170
     15          6           0        5.517926   -1.176426   -0.958523
     16          6           0        5.968803   -2.662143   -1.184932
     17          6           0        5.412972   -3.286430   -2.474744
     18          6           0        6.081182   -4.355095   -3.093275
     19          6           0        5.555960   -4.979986   -4.223866
     20          6           0        4.342840   -4.553728   -4.766555
     21          6           0        3.661324   -3.499551   -4.160414
     22          6           0        4.190649   -2.875634   -3.028386
     23          6           0        7.494145   -2.765604   -1.042153
     24          6           0        8.495157   -2.348038   -1.915155
     25          6           0        9.837590   -2.499770   -1.545312
     26          6           0       10.175199   -3.069603   -0.314166
     27          6           0        9.178734   -3.514366    0.557034
     28          6           0        7.839970   -3.369024    0.185960
     29          6           0        6.612568   -3.793439    0.862299
     30          6           0        6.404992   -4.459495    2.071859
     31          6           0        5.108442   -4.784428    2.461514
     32          6           0        4.006356   -4.475995    1.640370
     33          7           0        2.699290   -4.862633    2.034416
     34          6           0        2.498597   -6.118349    2.677068
     35          6           0        3.112457   -7.279826    2.182444
     36          6           0        2.916935   -8.503430    2.820421
     37          6           0        2.095831   -8.593660    3.946609
     38          6           0        1.476509   -7.441135    4.435140
     39          6           0        1.680371   -6.210313    3.813892
     40          6           0        1.577900   -4.034400    1.764974
     41          6           0        0.361741   -4.597754    1.346101
     42          6           0       -0.747510   -3.793775    1.110997
     43          6           0       -0.693209   -2.397445    1.264446
     44          6           0       -1.886968   -1.552781    1.015758
     45          6           0       -3.173070   -2.014520    1.384461
     46          6           0       -4.325303   -1.267809    1.166957
     47          6           0       -4.187690   -0.014909    0.565631
     48          6           0       -2.916537    0.475843    0.175752
     49          6           0       -1.774186   -0.295566    0.407126
     50          6           0       -3.141919    1.764123   -0.451134
     51          6           0       -2.296377    2.716408   -1.024977
     52          6           0       -2.828298    3.895338   -1.564314
     53          6           0       -1.950420    4.912279   -2.192353
     54          6           0       -0.683808    5.215026   -1.665793
     55          6           0        0.130197    6.171064   -2.266664
     56          6           0       -0.275767    6.871744   -3.414951
     57          6           0        0.627238    7.871769   -4.002763
     58          6           0        0.416549    8.628045   -5.088143
     59          6           0       -1.545208    6.567966   -3.939249
     60          6           0       -2.358778    5.613255   -3.343445
     61          6           0       -4.226661    4.101895   -1.500007
     62          6           0       -5.090658    3.173744   -0.930398
     63          6           0       -4.540390    1.996523   -0.417642
     64          7           0       -5.169652    0.915273    0.205868
     65          6           0       -6.565719    0.778345    0.427127
     66          6           0       -7.465820    0.872751   -0.641404
     67          6           0       -8.833746    0.747143   -0.417206
     68          6           0       -9.345140    0.504233    0.869441
     69          6           0      -10.802621    0.361752    1.101687
     70          6           0      -11.631512   -0.275788    0.159275
     71          6           0      -12.996767   -0.411463    0.372460
     72          6           0      -13.604218    0.084858    1.540590
     73          6           0      -15.043726   -0.030246    1.817457
     74          6           0      -15.981869   -0.591463    1.043663
     75          6           0      -12.774906    0.720200    2.480097
     76          6           0      -11.406588    0.856893    2.268329
     77          6           0       -8.426368    0.401786    1.928406
     78          6           0       -7.058282    0.546146    1.717238
     79          6           0        0.534704   -1.842907    1.666564
     80          6           0        1.646942   -2.640130    1.920435
     81          6           0        4.219833   -3.797438    0.424207
     82          6           0        5.510910   -3.451620    0.056069
     83          6           0        2.250814    5.094982    1.153103
     84          6           0        1.213662    5.414943    2.031614
     85          1           0       -1.235531    5.018101    5.893734
     86          1           0        0.199647    3.862493    5.821027
     87          1           0       -0.706774    5.933160    3.731421
     88          1           0        1.889726    3.219161    4.525673
     89          1           0        3.733300    2.653898    2.984869
     90          1           0        5.543588    4.127076   -0.704037
     91          1           0        4.355982    5.402446   -0.432452
     92          1           0        4.011220    4.187913   -2.607355
     93          1           0        2.596682    4.045684   -1.582469
     94          1           0        1.523701    1.503664   -0.712915
     95          1           0        2.368001   -0.044186   -0.833083
     96          1           0        2.857448    1.144215    0.388653
     97          1           0        3.110891    0.353972   -3.829212
     98          1           0        3.776636    1.891910   -4.391185
     99          1           0        2.106559    1.808475   -3.813398
    100          1           0        5.831128    1.525300   -0.628525
    101          1           0        6.101715    1.987928   -2.293287
    102          1           0        5.557894   -0.427170   -2.998731
    103          1           0        7.039436   -0.171868   -2.097131
    104          1           0        5.921577   -0.870645    0.014940
    105          1           0        4.428842   -1.162776   -0.838960
    106          1           0        7.024957   -4.701888   -2.684680
    107          1           0        6.098791   -5.803625   -4.680789
    108          1           0        3.934005   -5.037885   -5.649376
    109          1           0        2.713370   -3.155721   -4.566382
    110          1           0        3.633874   -2.060262   -2.578079
    111          1           0        8.245779   -1.928493   -2.885343
    112          1           0       10.621647   -2.175772   -2.224438
    113          1           0       11.220796   -3.180081   -0.038734
    114          1           0        9.444885   -3.977809    1.503745
    115          1           0        7.240763   -4.720484    2.716306
    116          1           0        4.938354   -5.293163    3.404480
    117          1           0        3.740537   -7.215010    1.299560
    118          1           0        3.398984   -9.393471    2.424370
    119          1           0        1.940389   -9.550307    4.437297
    120          1           0        0.840388   -7.495051    5.314840
    121          1           0        1.207852   -5.313710    4.202684
    122          1           0        0.293079   -5.670713    1.198710
    123          1           0       -1.666745   -4.257433    0.763752
    124          1           0       -3.262018   -2.978589    1.876427
    125          1           0       -5.297307   -1.651035    1.459255
    126          1           0       -0.800408    0.063407    0.085066
    127          1           0       -1.226638    2.532827   -1.076264
    128          1           0       -0.345906    4.720173   -0.759244
    129          1           0        1.102241    6.393809   -1.831351
    130          1           0        1.572779    7.991469   -3.472982
    131          1           0       -0.495465    8.575268   -5.676648
    132          1           0        1.165346    9.337121   -5.427472
    133          1           0       -1.898241    7.077697   -4.831202
    134          1           0       -3.322038    5.384071   -3.790818
    135          1           0       -4.637441    5.031843   -1.882074
    136          1           0       -6.156556    3.368952   -0.876875
    137          1           0       -7.088525    1.042697   -1.644996
    138          1           0       -9.517959    0.851364   -1.254193
    139          1           0      -11.191484   -0.695288   -0.741214
    140          1           0      -13.597820   -0.919730   -0.375869
    141          1           0      -15.355435    0.399683    2.769498
    142          1           0      -15.761159   -1.042513    0.079972
    143          1           0      -17.020779   -0.616995    1.357563
    144          1           0      -13.216122    1.122400    3.389284
    145          1           0      -10.803133    1.379201    3.005435
    146          1           0       -8.787120    0.194075    2.931519
    147          1           0       -6.365290    0.481258    2.550314
    148          1           0        0.610069   -0.770646    1.825439
    149          1           0        2.573020   -2.185059    2.257234
    150          1           0        3.376208   -3.573030   -0.220765
    151          1           0        2.333871    5.629963    0.214305
    152          1           0        0.512687    6.196863    1.747860
 ---------------------------------------------------------------------

 SCF Done:  E(RB3LYP) =  -3563.73688447     A.U. after   16 cycles

 Excitation energies and oscillator strengths:

 Excited state symmetry could not be determined.
 Excited State   1:      Triplet-?Sym    2.6165 eV  473.86 nm  f=0.0000  <S**2>=2.000
     286 -> 293       -0.19582
     288 -> 293        0.41226
     288 -> 294        0.13541
     289 -> 294        0.14167
     291 -> 293       -0.29485
     291 -> 294        0.20131
     292 -> 293        0.15980
 This state for optimization and/or second-order correction.
 Total Energy, E(TD-HF/TD-DFT) =  -3563.64072986
 Copying the excited state density for this state as the 1-particle RhoCI density.

 Excited state symmetry could not be determined.
 Excited State   2:      Triplet-?Sym    2.6313 eV  471.19 nm  f=0.0000  <S**2>=2.000
     286 -> 294        0.14749
     287 -> 294        0.10636
     288 -> 293       -0.17932
     289 -> 294        0.14843
     291 -> 294        0.26742
     291 -> 295        0.11510
     292 -> 294       -0.19031
     292 -> 295        0.39816
     292 -> 296        0.12726

 Excited state symmetry could not be determined.
 Excited State   3:      Singlet-?Sym    3.0442 eV  407.27 nm  f=0.1628  <S**2>=0.000
     291 -> 293       -0.11921
     292 -> 293        0.69156

 Excited state symmetry could not be determined.
 Excited State   4:      Singlet-?Sym    3.3065 eV  374.97 nm  f=0.4084  <S**2>=0.000
     292 -> 294        0.57589
     292 -> 295       -0.36205
     292 -> 298        0.10309

 Alpha  occ. eigenvalues --  -66.11495 -19.17527 -14.38521 -14.36229 -10.24728
 Alpha  occ. eigenvalues --  -10.24319 -10.24166 -10.22713 -10.22645 -10.22608
 Alpha  occ. eigenvalues --  -10.22498 -10.22479 -10.21008 -10.20885 -10.20640
 Alpha  occ. eigenvalues --  -10.20378 -10.20334 -10.20316 -10.20243 -10.20231
 Alpha  occ. eigenvalues --  -10.19777 -10.19716 -10.19668 -10.19626 -10.19610
 Alpha  occ. eigenvalues --  -10.19568 -10.19565 -10.19452 -10.19285 -10.19277
 Alpha  occ. eigenvalues --  -10.19078 -10.19068 -10.19017 -10.19013 -10.18968
 Alpha  occ. eigenvalues --  -10.18950 -10.18943 -10.18927 -10.18912 -10.18911
 Alpha  occ. eigenvalues --  -10.18898 -10.18897 -10.18863 -10.18857 -10.18841
 Alpha  occ. eigenvalues --  -10.18831 -10.18779 -10.18774 -10.18765 -10.18751
 Alpha  occ. eigenvalues --  -10.18721 -10.18687 -10.18686 -10.18669 -10.18667
 Alpha  occ. eigenvalues --  -10.18614 -10.18610 -10.18592 -10.18588 -10.18539
 Alpha  occ. eigenvalues --  -10.18538 -10.18531 -10.18529 -10.18490 -10.18473
 Alpha  occ. eigenvalues --  -10.18466 -10.18431 -10.18407 -10.18384 -10.18374
 Alpha  occ. eigenvalues --  -10.18356 -10.18341 -10.18323 -10.18312 -10.18262
 Alpha  occ. eigenvalues --  -10.18236 -10.18207 -10.18058 -10.17697 -10.17364
 Alpha  occ. eigenvalues --  -10.16996 -10.16282 -10.15656 -10.15569  -5.25891
 Alpha  occ. eigenvalues --   -3.61789  -3.61764  -3.61743  -1.05897  -0.99213
 Alpha  occ. eigenvalues --   -0.96080  -0.88585  -0.87977  -0.86603  -0.86201
 Alpha  occ. eigenvalues --   -0.85649  -0.85201  -0.84847  -0.84650  -0.84291
 Alpha  occ. eigenvalues --   -0.84025  -0.82949  -0.80747  -0.80526  -0.79326
 Alpha  occ. eigenvalues --   -0.78533  -0.78351  -0.77589  -0.76597  -0.76174
 Alpha  occ. eigenvalues --   -0.76091  -0.75980  -0.75713  -0.75104  -0.74875
 Alpha  occ. eigenvalues --   -0.74472  -0.74406  -0.74273  -0.74209  -0.74012
 Alpha  occ. eigenvalues --   -0.73844  -0.73503  -0.73219  -0.72511  -0.72220
 Alpha  occ. eigenvalues --   -0.71199  -0.71185  -0.70134  -0.69978  -0.68968
 Alpha  occ. eigenvalues --   -0.68867  -0.67085  -0.65565  -0.64829  -0.64209
 Alpha  occ. eigenvalues --   -0.63753  -0.63469  -0.62976  -0.62706  -0.61669
 Alpha  occ. eigenvalues --   -0.61164  -0.61068  -0.60750  -0.60498  -0.60356
 Alpha  occ. eigenvalues --   -0.59972  -0.59734  -0.59483  -0.59369  -0.58892
 Alpha  occ. eigenvalues --   -0.58408  -0.57963  -0.57722  -0.57456  -0.57003
 Alpha  occ. eigenvalues --   -0.56306  -0.55975  -0.55694  -0.55350  -0.55133
 Alpha  occ. eigenvalues --   -0.54082  -0.52961  -0.52536  -0.52314  -0.51993
 Alpha  occ. eigenvalues --   -0.51700  -0.51478  -0.51200  -0.50133  -0.49343
 Alpha  occ. eigenvalues --   -0.48960  -0.48860  -0.48408  -0.47807  -0.47545
 Alpha  occ. eigenvalues --   -0.47391  -0.47260  -0.46652  -0.46455  -0.46172
 Alpha  occ. eigenvalues --   -0.46026  -0.45749  -0.45359  -0.45316  -0.45084
 Alpha  occ. eigenvalues --   -0.45021  -0.44940  -0.44719  -0.44640  -0.44364
 Alpha  occ. eigenvalues --   -0.44253  -0.44027  -0.43841  -0.43719  -0.43636
 Alpha  occ. eigenvalues --   -0.43607  -0.43492  -0.43383  -0.43195  -0.42791
 Alpha  occ. eigenvalues --   -0.42484  -0.42439  -0.42315  -0.42254  -0.42174
 Alpha  occ. eigenvalues --   -0.42001  -0.41892  -0.41842  -0.41692  -0.41571
 Alpha  occ. eigenvalues --   -0.41425  -0.41284  -0.41072  -0.40955  -0.40692
 Alpha  occ. eigenvalues --   -0.40510  -0.40260  -0.39877  -0.39502  -0.39196
 Alpha  occ. eigenvalues --   -0.39090  -0.38793  -0.38703  -0.38546  -0.38478
 Alpha  occ. eigenvalues --   -0.38023  -0.37759  -0.37567  -0.37401  -0.37185
 Alpha  occ. eigenvalues --   -0.37110  -0.37010  -0.36914  -0.36699  -0.36607
 Alpha  occ. eigenvalues --   -0.36438  -0.36385  -0.36069  -0.35874  -0.35593
 Alpha  occ. eigenvalues --   -0.35487  -0.35248  -0.34986  -0.34867  -0.34810
 Alpha  occ. eigenvalues --   -0.34726  -0.34481  -0.34429  -0.34333  -0.34193
 Alpha  occ. eigenvalues --   -0.34147  -0.33957  -0.33891  -0.33825  -0.33358
 Alpha  occ. eigenvalues --   -0.33195  -0.33145  -0.33060  -0.32462  -0.32388
 Alpha  occ. eigenvalues --   -0.32114  -0.31434  -0.31147  -0.30854  -0.30354
 Alpha  occ. eigenvalues --   -0.29711  -0.28954  -0.28407  -0.28119  -0.27463
 Alpha  occ. eigenvalues --   -0.27134  -0.26864  -0.26507  -0.26444  -0.26077
 Alpha  occ. eigenvalues --   -0.25741  -0.25334  -0.25008  -0.24930  -0.24892
 Alpha  occ. eigenvalues --   -0.24551  -0.24476  -0.24326  -0.23898  -0.23358
 Alpha  occ. eigenvalues --   -0.22652  -0.22109  -0.21813  -0.20807  -0.20023
 Alpha  occ. eigenvalues --   -0.19147  -0.17229
 Alpha virt. eigenvalues --   -0.05132  -0.03878  -0.03073  -0.02824  -0.01929
 Alpha virt. eigenvalues --   -0.01849  -0.01631  -0.01364  -0.00871  -0.00287
 Alpha virt. eigenvalues --   -0.00198  -0.00003   0.00120   0.00147   0.00555

 Mulliken charges:
               1
     1  C   -0.356411
     2  C   -0.115055
     3  C    0.174111
     4  C   -0.186870
     5  C   -0.180122
     6  C    0.383546
     7  O   -0.525516
     8  C   -0.049898
     9  C   -0.511214
    10  Si   0.774238
    11  C   -0.685046
    12  C   -0.664227
    13  C   -0.484635
    14  C   -0.269110
    15  C   -0.265583
    16  C   -0.160855
    17  C    0.174563
    18  C   -0.184129
    19  C   -0.131239
    20  C   -0.128447
    21  C   -0.136213
    22  C   -0.197884
    23  C    0.068077
    24  C   -0.194939
    25  C   -0.138190
    26  C   -0.134832
    27  C   -0.195694
    28  C    0.085413
    29  C    0.087796
    30  C   -0.202834
    31  C   -0.182993
    32  C    0.301584
    33  N   -0.660129
    34  C    0.263471
    35  C   -0.157473
    36  C   -0.141033
    37  C   -0.127612
    38  C   -0.140685
    39  C   -0.157126
    40  C    0.291544
    41  C   -0.172912
    42  C   -0.190488
    43  C    0.092941
    44  C    0.083955
    45  C   -0.193213
    46  C   -0.178430
    47  C    0.315356
    48  C    0.064917
    49  C   -0.261988
    50  C    0.062063
    51  C   -0.257660
    52  C    0.082969
    53  C    0.088122
    54  C   -0.190069
    55  C   -0.213591
    56  C    0.180371
    57  C   -0.117946
    58  C   -0.351223
    59  C   -0.191417
    60  C   -0.175918
    61  C   -0.193422
    62  C   -0.178788
    63  C    0.318806
    64  N   -0.741741
    65  C    0.270754
    66  C   -0.155811
    67  C   -0.190929
    68  C    0.102385
    69  C    0.088232
    70  C   -0.175296
    71  C   -0.188844
    72  C    0.178320
    73  C   -0.117244
    74  C   -0.349362
    75  C   -0.203498
    76  C   -0.174306
    77  C   -0.190727
    78  C   -0.155776
    79  C   -0.191631
    80  C   -0.174099
    81  C   -0.246579
    82  C    0.099098
    83  C   -0.193445
    84  C   -0.218977
    85  H    0.140416
    86  H    0.137610
    87  H    0.125582
    88  H    0.130586
    89  H    0.139218
    90  H    0.156936
    91  H    0.142855
    92  H    0.151460
    93  H    0.160185
    94  H    0.161319
    95  H    0.161193
    96  H    0.173096
    97  H    0.160902
    98  H    0.156871
    99  H    0.164170
   100  H    0.156115
   101  H    0.141757
   102  H    0.143641
   103  H    0.139748
   104  H    0.145034
   105  H    0.148543
   106  H    0.142069
   107  H    0.128318
   108  H    0.127313
   109  H    0.129532
   110  H    0.134861
   111  H    0.137573
   112  H    0.126258
   113  H    0.126809
   114  H    0.127528
   115  H    0.130248
   116  H    0.143054
   117  H    0.147009
   118  H    0.131800
   119  H    0.127570
   120  H    0.131185
   121  H    0.144015
   122  H    0.144588
   123  H    0.132250
   124  H    0.130666
   125  H    0.141273
   126  H    0.141986
   127  H    0.140417
   128  H    0.144908
   129  H    0.128746
   130  H    0.123946
   131  H    0.141747
   132  H    0.143582
   133  H    0.127636
   134  H    0.131282
   135  H    0.131635
   136  H    0.142422
   137  H    0.153208
   138  H    0.140925
   139  H    0.134545
   140  H    0.130924
   141  H    0.129050
   142  H    0.143244
   143  H    0.146913
   144  H    0.132101
   145  H    0.134862
   146  H    0.141290
   147  H    0.154620
   148  H    0.140325
   149  H    0.143584
   150  H    0.147765
   151  H    0.140778
   152  H    0.135089
 Sum of Mulliken charges =  -0.00000

 Dipole moment (field-independent basis, Debye):
    X=             -2.4125    Y=             -0.3877    Z=             -0.6998  Tot=              2.5417
 Quadrupole moment (field-independent basis, Debye-Ang):
   XX=           -436.0642   YY=           -481.1919   ZZ=           -475.7541
   XY=              1.3647   XZ=             -8.2159   YZ=            -13.9160

 Normal termination of Gaussian 16 at Sat Nov  5 12:11:33 2022.
