 Gaussian 16, Revision B.01,
 Gaussian 16:  ES64L-G16RevB.01 20-Dec-2017

 -------------------------------------------------------------------
 #p b3lyp/6-31g(d) 6D 10F nosymm GFInput td=(50-50,nstate=2) SCF=XQC
 -------------------------------------------------------------------

 ------------------------------
 Gaussian input prepared by ASE
 ------------------------------
 Symbolic Z-matrix:
 Charge =  0 Multiplicity = 1

                          Input orientation:
 ---------------------------------------------------------------------
 Center     Atomic      Atomic             Coordinates (Angstroms)
 Number     Number       Type             X           Y           Z
 ---------------------------------------------------------------------
      1          6           0        3.658896    4.529961    0.397222
      2          6           0        3.038261    3.162750    0.232995
      3          6           0        2.851449    2.315026    1.331633
      4          6           0        2.302152    1.042316    1.174302
      5          6           0        1.928944    0.570787   -0.093017
      6          6           0        1.299868   -0.761237   -0.267964
      7          6           0       -0.016090   -1.045198   -0.532981
      8          6           0       -1.126901   -0.050068   -0.757584
      9          6           0       -2.034266    0.353065    0.461670
     10          6           0       -1.211911    1.028430    1.568867
     11          6           0       -2.860714   -0.843675    1.013914
     12          6           0       -4.259499   -0.733345    0.397076
     13          8           0       -5.117036   -1.597628    0.387733
     14          6           0       -4.368124    0.637165   -0.158079
     15          6           0       -5.499193    1.267710   -0.681926
     16          6           0       -5.375578    2.580267   -1.129805
     17          6           0       -4.136496    3.235186   -1.055007
     18          6           0       -3.007091    2.593503   -0.539323
     19          6           0       -3.126750    1.278670   -0.085302
     20          6           0       -0.142502   -2.486355   -0.609008
     21          6           0       -1.230873   -3.330062   -0.890110
     22          6           0       -1.040933   -4.705745   -0.883638
     23          6           0        0.221319   -5.251036   -0.596457
     24          6           0        1.321118   -4.440465   -0.329817
     25          6           0        1.127007   -3.055418   -0.354114
     26          7           0        2.024180   -1.983320   -0.122880
     27         16           0        3.741536   -2.112802   -0.333873
     28          6           0        4.361711   -1.817122    1.330195
     29          8           0        4.184569   -1.027264   -1.201506
     30          8           0        4.024898   -3.505452   -0.668838
     31          6           0        2.109468    1.421279   -1.193825
     32          6           0        2.649162    2.694438   -1.029641
     33          1           0        3.547651    4.901471    1.421119
     34          1           0        4.733495    4.505588    0.172598
     35          1           0        3.204800    5.261075   -0.280493
     36          1           0        3.125484    2.659446    2.326354
     37          1           0        2.129566    0.420935    2.049492
     38          1           0       -0.700755    0.876347   -1.157598
     39          1           0       -1.783333   -0.443519   -1.544439
     40          1           0       -0.652949    1.891569    1.192724
     41          1           0       -0.488556    0.324993    1.993281
     42          1           0       -1.866929    1.372993    2.377229
     43          1           0       -2.985414   -0.746010    2.101538
     44          1           0       -2.417742   -1.825369    0.841062
     45          1           0       -6.444498    0.733829   -0.723855
     46          1           0       -6.236694    3.103446   -1.536367
     47          1           0       -4.053946    4.260679   -1.406290
     48          1           0       -2.056268    3.118696   -0.496829
     49          1           0       -2.209783   -2.916387   -1.113481
     50          1           0       -1.876478   -5.365272   -1.099840
     51          1           0        0.350379   -6.329685   -0.587661
     52          1           0        2.292759   -4.871087   -0.133592
     53          1           0        4.124226   -0.794674    1.623181
     54          1           0        3.910535   -2.545775    2.005750
     55          1           0        5.443989   -1.960574    1.280395
     56          1           0        1.839070    1.069950   -2.184940
     57          1           0        2.780811    3.332973   -1.900256
 ---------------------------------------------------------------------

 SCF Done:  E(RB3LYP) =  -1722.49634807     A.U. after   15 cycles

 Excitation energies and oscillator strengths:

 Excited state symmetry could not be determined.
 Excited State   1:      Triplet-?Sym    3.0883 eV  401.46 nm  f=0.0000  <S**2>=2.000
     116 ->123        -0.15485
     117 ->119         0.57614
     117 ->120         0.15390
     117 ->122         0.26321
 This state for optimization and/or second-order correction.
 Total Energy, E(TD-HF/TD-DFT) =  -1722.38285492
 Copying the excited state density for this state as the 1-particle RhoCI density.

 Excited state symmetry could not be determined.
 Excited State   2:      Triplet-?Sym    3.1379 eV  395.12 nm  f=0.0000  <S**2>=2.000
     115 ->118         0.67903
     115 ->125        -0.14719

 Excited state symmetry could not be determined.
 Excited State   3:      Singlet-?Sym    3.6089 eV  343.56 nm  f=0.0003  <S**2>=0.000
     115 ->118         0.68352
     115 ->125        -0.10522
     117 ->118         0.11390

 Excited state symmetry could not be determined.
 Excited State   4:      Singlet-?Sym    3.8411 eV  322.79 nm  f=0.0104  <S**2>=0.000
     115 ->118        -0.11164
     117 ->118         0.69665

 Alpha  occ. eigenvalues --  -89.13016 -19.15748 -19.15715 -19.12939 -14.40228
 Alpha  occ. eigenvalues --  -10.26606 -10.23785 -10.23759 -10.23032 -10.21474
 Alpha  occ. eigenvalues --  -10.21214 -10.21003 -10.20564 -10.20419 -10.20367
 Alpha  occ. eigenvalues --  -10.20145 -10.20027 -10.20027 -10.20010 -10.19980
 Alpha  occ. eigenvalues --  -10.19799 -10.19751 -10.19689 -10.19407 -10.19320
 Alpha  occ. eigenvalues --  -10.19183 -10.18861 -10.18843 -10.18616 -10.18489
 Alpha  occ. eigenvalues --  -10.18420 -10.18058  -8.15524  -6.12075  -6.11917
 Alpha  occ. eigenvalues --   -6.11794  -1.12642  -1.02715  -1.01718  -0.98112
 Alpha  occ. eigenvalues --   -0.88089  -0.86971  -0.84778  -0.83125  -0.81130
 Alpha  occ. eigenvalues --   -0.79142  -0.78134  -0.76551  -0.75532  -0.74308
 Alpha  occ. eigenvalues --   -0.74076  -0.73108  -0.71530  -0.70482  -0.68718
 Alpha  occ. eigenvalues --   -0.64773  -0.62827  -0.62216  -0.61902  -0.61834
 Alpha  occ. eigenvalues --   -0.59003  -0.58190  -0.56878  -0.55343  -0.54967
 Alpha  occ. eigenvalues --   -0.53772  -0.51325  -0.50242  -0.49201  -0.48293
 Alpha  occ. eigenvalues --   -0.47828  -0.47641  -0.47405  -0.47210  -0.46898
 Alpha  occ. eigenvalues --   -0.46354  -0.45664  -0.44896  -0.44678  -0.44217
 Alpha  occ. eigenvalues --   -0.43878  -0.43647  -0.42977  -0.42837  -0.42812
 Alpha  occ. eigenvalues --   -0.41950  -0.41455  -0.40892  -0.40204  -0.39961
 Alpha  occ. eigenvalues --   -0.39552  -0.38765  -0.38293  -0.37573  -0.37378
 Alpha  occ. eigenvalues --   -0.36170  -0.36115  -0.35721  -0.35480  -0.35197
 Alpha  occ. eigenvalues --   -0.34997  -0.33989  -0.33811  -0.33703  -0.33336
 Alpha  occ. eigenvalues --   -0.32726  -0.32586  -0.31833  -0.31195  -0.27888
 Alpha  occ. eigenvalues --   -0.26108  -0.25972  -0.25331  -0.25199  -0.23689
 Alpha  occ. eigenvalues --   -0.23047  -0.21116
 Alpha virt. eigenvalues --   -0.05199  -0.02916  -0.01548  -0.01103  -0.00923
 Alpha virt. eigenvalues --    0.00585   0.03895   0.04571   0.04997   0.06784
 Alpha virt. eigenvalues --    0.07955   0.08133   0.08825   0.09837   0.10156

 Mulliken charges:
               1
     1  C   -0.531287
     2  C    0.184023
     3  C   -0.188519
     4  C   -0.170781
     5  C    0.074509
     6  C    0.168533
     7  C    0.079998
     8  C   -0.366080
     9  C    0.021798
    10  C   -0.467476
    11  C   -0.404034
    12  C    0.380659
    13  O   -0.471015
    14  C    0.061145
    15  C   -0.165670
    16  C   -0.136705
    17  C   -0.122972
    18  C   -0.198343
    19  C    0.114908
    20  C    0.069452
    21  C   -0.218093
    22  C   -0.136461
    23  C   -0.150224
    24  C   -0.151384
    25  C    0.287731
    26  N   -0.770777
    27  S    1.233280
    28  C   -0.633923
    29  O   -0.502309
    30  O   -0.517159
    31  C   -0.128247
    32  C   -0.185760
    33  H    0.157981
    34  H    0.172635
    35  H    0.161230
    36  H    0.127286
    37  H    0.134616
    38  H    0.151866
    39  H    0.154069
    40  H    0.152859
    41  H    0.151049
    42  H    0.146366
    43  H    0.173277
    44  H    0.184952
    45  H    0.156789
    46  H    0.137535
    47  H    0.136710
    48  H    0.136096
    49  H    0.146294
    50  H    0.133047
    51  H    0.131334
    52  H    0.171576
    53  H    0.214599
    54  H    0.210442
    55  H    0.219574
    56  H    0.147817
    57  H    0.131181
 Sum of Mulliken charges =  -0.00000

 Dipole moment (field-independent basis, Debye):
    X=              2.0185    Y=              4.8446    Z=              2.8518  Tot=              5.9731
 Quadrupole moment (field-independent basis, Debye-Ang):
   XX=           -203.0672   YY=           -183.6880   ZZ=           -188.6804
   XY=             -3.5869   XZ=             21.0034   YZ=             -8.4345

 Normal termination of Gaussian 16 at Sat Nov  5 10:08:27 2022.
