 Gaussian 16, Revision B.01,
 Gaussian 16:  ES64L-G16RevB.01 20-Dec-2017

 -----------------------------
 #p b3lyp/6-31g(d) opt SCF=XQC
 -----------------------------

 ------------------------------
 Gaussian input prepared by ASE
 ------------------------------
 Symbolic Z-matrix:
 Charge =  0 Multiplicity = 1

 SCF Done:  E(RB3LYP) =  -1830.74444272     A.U. after   16 cycles
 SCF Done:  E(RB3LYP) =  -1830.75323043     A.U. after   15 cycles
 SCF Done:  E(RB3LYP) =  -1830.75644875     A.U. after   15 cycles
 SCF Done:  E(RB3LYP) =  -1830.75826630     A.U. after   13 cycles
 SCF Done:  E(RB3LYP) =  -1830.75848384     A.U. after   12 cycles
 SCF Done:  E(RB3LYP) =  -1830.75857692     A.U. after   11 cycles
 SCF Done:  E(RB3LYP) =  -1830.75861139     A.U. after   11 cycles
 SCF Done:  E(RB3LYP) =  -1830.75862693     A.U. after   11 cycles
 SCF Done:  E(RB3LYP) =  -1830.75863487     A.U. after    9 cycles
 SCF Done:  E(RB3LYP) =  -1830.75864031     A.U. after   10 cycles
 SCF Done:  E(RB3LYP) =  -1830.75864249     A.U. after   10 cycles
 SCF Done:  E(RB3LYP) =  -1830.75864389     A.U. after    9 cycles
 SCF Done:  E(RB3LYP) =  -1830.75864417     A.U. after    8 cycles
 SCF Done:  E(RB3LYP) =  -1830.75864421     A.U. after    7 cycles
 Optimization completed.
    -- Stationary point found.

                         Standard orientation:
 ---------------------------------------------------------------------
 Center     Atomic      Atomic             Coordinates (Angstroms)
 Number     Number       Type             X           Y           Z
 ---------------------------------------------------------------------
      1          6           0        6.632255   -2.513544   -0.206197
      2          7           0        5.493960   -2.593257   -0.514030
      3          6           0        4.156849   -2.703375   -0.851109
      4          6           0        3.537693   -3.956741   -0.781942
      5          6           0        2.183883   -4.040144   -1.087820
      6          7           0        1.441084   -2.984762   -1.447955
      7          6           0        2.052674   -1.800391   -1.519046
      8          6           0        3.410799   -1.572588   -1.233901
      9          6           0        3.999379   -0.219150   -1.405927
     10          6           0        5.005952   -0.024948   -2.364203
     11          6           0        5.497596    1.244453   -2.688533
     12          6           0        4.981459    2.378355   -2.069005
     13          6           0        3.996296    2.225706   -1.091034
     14          6           0        3.273004    3.177128   -0.274400
     15          6           0        3.301999    4.572631   -0.168707
     16          6           0        2.478467    5.195519    0.763681
     17          6           0        1.634129    4.436201    1.591549
     18          6           0        1.586893    3.046751    1.502057
     19          6           0        2.405818    2.431318    0.554625
     20          7           0        2.562610    1.062950    0.269513
     21          6           0        2.115027    0.044843    1.153361
     22          6           0        3.032759   -0.640604    1.970195
     23          6           0        2.610916   -1.609435    2.883298
     24          6           0        1.253155   -1.925517    3.023742
     25          6           0        0.358258   -1.247420    2.212434
     26          6           0        0.766351   -0.282901    1.290157
     27          6           0       -0.437731    0.184906    0.539848
     28          8           0       -0.497203    0.982684   -0.370554
     29          7           0       -1.538244   -0.515590    1.098267
     30          6           0       -2.889124   -0.362421    0.663205
     31          6           0       -3.393532    0.910365    0.375548
     32          6           0       -4.709517    1.051807   -0.053483
     33          6           0       -5.558671   -0.058294   -0.192946
     34          6           0       -6.964059    0.101499   -0.644104
     35          6           0       -7.736184    1.199303   -0.227519
     36          6           0       -9.055646    1.349639   -0.651334
     37          6           0       -9.633440    0.404650   -1.501125
     38          6           0       -8.879047   -0.691564   -1.923287
     39          6           0       -7.559376   -0.840967   -1.499838
     40          6           0       -5.031955   -1.324941    0.108526
     41          6           0       -3.713591   -1.483923    0.523983
     42          6           0       -1.120764   -1.404213    2.116471
     43          8           0       -1.833553   -2.140566    2.764836
     44          6           0        3.530340    0.930433   -0.739865
     45          1           0        4.108197   -4.830708   -0.487209
     46          1           0        1.670888   -4.998496   -1.040857
     47          1           0        1.434539   -0.957707   -1.823457
     48          1           0        5.387276   -0.892658   -2.894239
     49          1           0        6.268582    1.340078   -3.447041
     50          1           0        5.338550    3.368431   -2.338646
     51          1           0        3.961662    5.159319   -0.802467
     52          1           0        2.488219    6.277667    0.855806
     53          1           0        1.002127    4.940464    2.317291
     54          1           0        0.934538    2.469980    2.148844
     55          1           0        4.087326   -0.396855    1.884348
     56          1           0        3.350540   -2.113474    3.498513
     57          1           0        0.907142   -2.672954    3.730311
     58          1           0       -2.754222    1.780210    0.463621
     59          1           0       -5.076988    2.042357   -0.304753
     60          1           0       -7.305534    1.926399    0.455387
     61          1           0       -9.636133    2.202605   -0.309538
     62          1           0      -10.662034    0.521490   -1.831425
     63          1           0       -9.315681   -1.428862   -2.591915
     64          1           0       -6.973108   -1.683207   -1.856686
     65          1           0       -5.669238   -2.201248    0.035671
     66          1           0       -3.332347   -2.469728    0.759496
 ---------------------------------------------------------------------

 The electronic state is 1-A.
 Alpha  occ. eigenvalues --  -19.15605 -19.15537 -14.39984 -14.39586 -14.38845
 Alpha  occ. eigenvalues --  -14.34794 -10.32329 -10.32075 -10.28191 -10.26994
 Alpha  occ. eigenvalues --  -10.24214 -10.24204 -10.24020 -10.23866 -10.23712
 Alpha  occ. eigenvalues --  -10.23294 -10.23275 -10.23141 -10.22977 -10.22962
 Alpha  occ. eigenvalues --  -10.22852 -10.22832 -10.22370 -10.21709 -10.20197
 Alpha  occ. eigenvalues --  -10.20110 -10.20067 -10.19991 -10.19964 -10.19608
 Alpha  occ. eigenvalues --  -10.19606 -10.19565 -10.19538 -10.19524 -10.19441
 Alpha  occ. eigenvalues --  -10.19348 -10.19325 -10.19309 -10.19067 -10.19048
 Alpha  occ. eigenvalues --  -10.18979 -10.18959 -10.18947 -10.18858  -1.07932
 Alpha  occ. eigenvalues --   -1.06103  -1.00316  -0.98236  -0.97220  -0.95477
 Alpha  occ. eigenvalues --   -0.89999  -0.86932  -0.86460  -0.85530  -0.84677
 Alpha  occ. eigenvalues --   -0.83532  -0.81012  -0.80653  -0.79359  -0.77075
 Alpha  occ. eigenvalues --   -0.76868  -0.75416  -0.75308  -0.74267  -0.73294
 Alpha  occ. eigenvalues --   -0.72648  -0.72436  -0.70350  -0.68260  -0.67562
 Alpha  occ. eigenvalues --   -0.66061  -0.64587  -0.63591  -0.62662  -0.61660
 Alpha  occ. eigenvalues --   -0.61044  -0.60586  -0.59768  -0.59233  -0.58126
 Alpha  occ. eigenvalues --   -0.57371  -0.56735  -0.54129  -0.53444  -0.52772
 Alpha  occ. eigenvalues --   -0.52120  -0.51951  -0.51801  -0.50620  -0.49637
 Alpha  occ. eigenvalues --   -0.48737  -0.48603  -0.48175  -0.47821  -0.46895
 Alpha  occ. eigenvalues --   -0.46749  -0.46133  -0.45872  -0.45427  -0.44801
 Alpha  occ. eigenvalues --   -0.44482  -0.44374  -0.44308  -0.44121  -0.43530
 Alpha  occ. eigenvalues --   -0.43251  -0.42828  -0.42790  -0.42524  -0.42371
 Alpha  occ. eigenvalues --   -0.41732  -0.40834  -0.40467  -0.40232  -0.40014
 Alpha  occ. eigenvalues --   -0.39663  -0.38961  -0.38377  -0.37799  -0.37496
 Alpha  occ. eigenvalues --   -0.37377  -0.36288  -0.35905  -0.35899  -0.35789
 Alpha  occ. eigenvalues --   -0.34814  -0.34496  -0.34217  -0.33700  -0.33356
 Alpha  occ. eigenvalues --   -0.31637  -0.30854  -0.30067  -0.29720  -0.29394
 Alpha  occ. eigenvalues --   -0.28992  -0.28496  -0.27525  -0.27231  -0.26801
 Alpha  occ. eigenvalues --   -0.26328  -0.25580  -0.25372  -0.25011  -0.22155
 Alpha  occ. eigenvalues --   -0.22028  -0.21200
 Alpha virt. eigenvalues --   -0.09147  -0.06772  -0.05671  -0.04266  -0.02840
 Alpha virt. eigenvalues --   -0.02749  -0.00533  -0.00073   0.00000   0.01462
 Alpha virt. eigenvalues --    0.01750   0.01969   0.02468   0.03513   0.04825

 Mulliken charges:
               1
     1  C   -0.066648
     2  N   -0.331279
     3  C    0.292958
     4  C   -0.138446
     5  C    0.036887
     6  N   -0.406141
     7  C   -0.007746
     8  C    0.043866
     9  C    0.072013
    10  C   -0.168773
    11  C   -0.144848
    12  C   -0.191359
    13  C    0.059497
    14  C    0.069534
    15  C   -0.194717
    16  C   -0.142370
    17  C   -0.141085
    18  C   -0.164223
    19  C    0.328309
    20  N   -0.743388
    21  C    0.172623
    22  C   -0.123381
    23  C   -0.145341
    24  C   -0.168686
    25  C    0.024286
    26  C    0.034282
    27  C    0.619932
    28  O   -0.475513
    29  N   -0.665148
    30  C    0.312192
    31  C   -0.141391
    32  C   -0.194893
    33  C    0.102797
    34  C    0.087565
    35  C   -0.172588
    36  C   -0.133558
    37  C   -0.126092
    38  C   -0.133596
    39  C   -0.172653
    40  C   -0.195389
    41  C   -0.138395
    42  C    0.585307
    43  O   -0.470919
    44  C    0.266139
    45  H    0.163267
    46  H    0.155128
    47  H    0.180272
    48  H    0.138287
    49  H    0.135266
    50  H    0.137693
    51  H    0.133472
    52  H    0.128868
    53  H    0.131215
    54  H    0.132380
    55  H    0.170119
    56  H    0.158580
    57  H    0.170978
    58  H    0.157008
    59  H    0.139347
    60  H    0.132754
    61  H    0.131218
    62  H    0.130432
    63  H    0.131513
    64  H    0.134015
    65  H    0.139262
    66  H    0.159302
 Sum of Mulliken charges =  -0.00000

 Dipole moment (field-independent basis, Debye):
    X=              0.2182    Y=             -0.0982    Z=              0.8380  Tot=              0.8715
 Quadrupole moment (field-independent basis, Debye-Ang):
   XX=           -247.6276   YY=           -225.4278   ZZ=           -244.0678
   XY=             -2.1183   XZ=              4.0047   YZ=              3.4393

 Normal termination of Gaussian 16 at Sat Nov  5 00:10:59 2022.
