 Gaussian 16, Revision B.01,
 Gaussian 16:  ES64L-G16RevB.01 20-Dec-2017

 -------------------------------------------------------------------
 #p b3lyp/6-31g(d) 6D 10F nosymm GFInput td=(50-50,nstate=2) SCF=XQC
 -------------------------------------------------------------------

 ------------------------------
 Gaussian input prepared by ASE
 ------------------------------
 Symbolic Z-matrix:
 Charge =  0 Multiplicity = 1

                          Input orientation:
 ---------------------------------------------------------------------
 Center     Atomic      Atomic             Coordinates (Angstroms)
 Number     Number       Type             X           Y           Z
 ---------------------------------------------------------------------
      1          6           0       -6.640278    2.345906    2.201240
      2          7           0       -5.536770    2.570099    1.842300
      3          6           0       -4.236708    2.833771    1.449963
      4          6           0       -3.516556    3.837323    2.108241
      5          6           0       -2.198852    4.061375    1.725126
      6          7           0       -1.582635    3.369389    0.757288
      7          6           0       -2.290025    2.424490    0.133912
      8          6           0       -3.625550    2.091155    0.421951
      9          6           0       -4.333829    1.060094   -0.379964
     10          6           0       -5.445429    1.433702   -1.150652
     11          6           0       -6.066538    0.555501   -2.045789
     12          6           0       -5.580967   -0.737476   -2.214241
     13          6           0       -4.491867   -1.156413   -1.447019
     14          6           0       -3.766268   -2.407093   -1.379547
     15          6           0       -3.894553   -3.631314   -2.046078
     16          6           0       -3.031723   -4.671896   -1.717057
     17          6           0       -2.049659   -4.499933   -0.726697
     18          6           0       -1.902105   -3.289844   -0.052364
     19          6           0       -2.762498   -2.247284   -0.398510
     20          7           0       -2.838956   -0.945427    0.128391
     21          6           0       -2.224116   -0.583898    1.356938
     22          6           0       -2.996282   -0.450024    2.525322
     23          6           0       -2.407866   -0.145481    3.754697
     24          6           0       -1.022139    0.028094    3.867751
     25          6           0       -0.271468   -0.102440    2.710890
     26          6           0       -0.846849   -0.398481    1.474472
     27          6           0        0.233284   -0.389797    0.442553
     28          8           0        0.135940   -0.557646   -0.753762
     29          7           0        1.437126   -0.121694    1.144365
     30          6           0        2.719988   -0.024472    0.525956
     31          6           0        3.090047   -0.935579   -0.469081
     32          6           0        4.339851   -0.831515   -1.071617
     33          6           0        5.255374    0.164475   -0.693915
     34          6           0        6.590113    0.264449   -1.336309
     35          6           0        7.311592   -0.889540   -1.686550
     36          6           0        8.564676   -0.795808   -2.290037
     37          6           0        9.125323    0.454691   -2.556350
     38          6           0        8.420729    1.610235   -2.213886
     39          6           0        7.167328    1.515925   -1.611182
     40          6           0        4.864124    1.063093    0.312127
     41          6           0        3.611957    0.981163    0.913234
     42          6           0        1.197694    0.066509    2.525645
     43          8           0        2.029118    0.319098    3.371573
     44          6           0       -3.891436   -0.271058   -0.512249
     45          1           0       -3.982970    4.411832    2.901057
     46          1           0       -1.609572    4.831568    2.218441
     47          1           0       -1.774898    1.880966   -0.656087
     48          1           0       -5.809206    2.453710   -1.069923
     49          1           0       -6.916278    0.899526   -2.627584
     50          1           0       -6.040964   -1.413544   -2.929646
     51          1           0       -4.659965   -3.767342   -2.805454
     52          1           0       -3.117536   -5.626929   -2.227131
     53          1           0       -1.388529   -5.326038   -0.479984
     54          1           0       -1.143390   -3.169181    0.713376
     55          1           0       -4.070052   -0.596127    2.457742
     56          1           0       -3.038414   -0.054382    4.634299
     57          1           0       -0.547573    0.261671    4.815304
     58          1           0        2.396342   -1.704633   -0.785994
     59          1           0        4.600170   -1.525301   -1.865504
     60          1           0        6.896994   -1.867788   -1.459331
     61          1           0        9.107831   -1.702179   -2.544627
     62          1           0       10.102208    0.528009   -3.026536
     63          1           0        8.843531    2.589115   -2.424490
     64          1           0        6.616050    2.421648   -1.374162
     65          1           0        5.557889    1.829216    0.645437
     66          1           0        3.335993    1.679766    1.693247
 ---------------------------------------------------------------------

 SCF Done:  E(RB3LYP) =  -1830.75863644     A.U. after   16 cycles

 Excitation energies and oscillator strengths:

 Excited state symmetry could not be determined.
 Excited State   1:      Triplet-?Sym    2.5730 eV  481.87 nm  f=0.0000  <S**2>=2.000
     147 ->148         0.69200
 This state for optimization and/or second-order correction.
 Total Energy, E(TD-HF/TD-DFT) =  -1830.66408160
 Copying the excited state density for this state as the 1-particle RhoCI density.

 Excited state symmetry could not be determined.
 Excited State   2:      Singlet-?Sym    2.6534 eV  467.26 nm  f=0.0158  <S**2>=0.000
     147 ->148         0.70319

 Excited state symmetry could not be determined.
 Excited State   3:      Triplet-?Sym    2.7511 eV  450.67 nm  f=0.0000  <S**2>=2.000
     141 ->148        -0.20498
     146 ->148         0.65453

 Excited state symmetry could not be determined.
 Excited State   4:      Singlet-?Sym    2.9664 eV  417.96 nm  f=0.0016  <S**2>=0.000
     146 ->148         0.69648

 Alpha  occ. eigenvalues --  -19.15605 -19.15538 -14.39984 -14.39586 -14.38845
 Alpha  occ. eigenvalues --  -14.34794 -10.32329 -10.32075 -10.28191 -10.26994
 Alpha  occ. eigenvalues --  -10.24214 -10.24204 -10.24020 -10.23866 -10.23712
 Alpha  occ. eigenvalues --  -10.23294 -10.23275 -10.23141 -10.22977 -10.22963
 Alpha  occ. eigenvalues --  -10.22853 -10.22832 -10.22370 -10.21709 -10.20197
 Alpha  occ. eigenvalues --  -10.20110 -10.20067 -10.19991 -10.19964 -10.19608
 Alpha  occ. eigenvalues --  -10.19606 -10.19565 -10.19538 -10.19524 -10.19441
 Alpha  occ. eigenvalues --  -10.19348 -10.19325 -10.19309 -10.19067 -10.19048
 Alpha  occ. eigenvalues --  -10.18979 -10.18959 -10.18947 -10.18858  -1.07932
 Alpha  occ. eigenvalues --   -1.06103  -1.00316  -0.98236  -0.97220  -0.95477
 Alpha  occ. eigenvalues --   -0.89999  -0.86932  -0.86460  -0.85530  -0.84677
 Alpha  occ. eigenvalues --   -0.83532  -0.81012  -0.80653  -0.79359  -0.77075
 Alpha  occ. eigenvalues --   -0.76868  -0.75416  -0.75308  -0.74267  -0.73294
 Alpha  occ. eigenvalues --   -0.72648  -0.72436  -0.70350  -0.68260  -0.67562
 Alpha  occ. eigenvalues --   -0.66061  -0.64587  -0.63591  -0.62662  -0.61660
 Alpha  occ. eigenvalues --   -0.61044  -0.60586  -0.59768  -0.59233  -0.58126
 Alpha  occ. eigenvalues --   -0.57371  -0.56735  -0.54129  -0.53444  -0.52772
 Alpha  occ. eigenvalues --   -0.52120  -0.51951  -0.51801  -0.50620  -0.49637
 Alpha  occ. eigenvalues --   -0.48737  -0.48603  -0.48175  -0.47821  -0.46895
 Alpha  occ. eigenvalues --   -0.46749  -0.46133  -0.45872  -0.45427  -0.44801
 Alpha  occ. eigenvalues --   -0.44482  -0.44374  -0.44308  -0.44121  -0.43530
 Alpha  occ. eigenvalues --   -0.43251  -0.42828  -0.42790  -0.42524  -0.42371
 Alpha  occ. eigenvalues --   -0.41732  -0.40834  -0.40467  -0.40232  -0.40014
 Alpha  occ. eigenvalues --   -0.39663  -0.38961  -0.38377  -0.37799  -0.37496
 Alpha  occ. eigenvalues --   -0.37377  -0.36288  -0.35905  -0.35899  -0.35789
 Alpha  occ. eigenvalues --   -0.34814  -0.34496  -0.34217  -0.33700  -0.33356
 Alpha  occ. eigenvalues --   -0.31637  -0.30854  -0.30067  -0.29720  -0.29394
 Alpha  occ. eigenvalues --   -0.28992  -0.28496  -0.27525  -0.27231  -0.26801
 Alpha  occ. eigenvalues --   -0.26328  -0.25580  -0.25372  -0.25011  -0.22155
 Alpha  occ. eigenvalues --   -0.22028  -0.21200
 Alpha virt. eigenvalues --   -0.09147  -0.06772  -0.05671  -0.04266  -0.02840
 Alpha virt. eigenvalues --   -0.02749  -0.00533  -0.00072   0.00000   0.01462
 Alpha virt. eigenvalues --    0.01750   0.01969   0.02468   0.03513   0.04825

 Mulliken charges:
               1
     1  C   -0.066643
     2  N   -0.331285
     3  C    0.292930
     4  C   -0.138448
     5  C    0.036902
     6  N   -0.406145
     7  C   -0.007768
     8  C    0.043900
     9  C    0.071991
    10  C   -0.168774
    11  C   -0.144852
    12  C   -0.191346
    13  C    0.059483
    14  C    0.069519
    15  C   -0.194717
    16  C   -0.142368
    17  C   -0.141088
    18  C   -0.164226
    19  C    0.328331
    20  N   -0.743396
    21  C    0.172632
    22  C   -0.123373
    23  C   -0.145351
    24  C   -0.168681
    25  C    0.024304
    26  C    0.034256
    27  C    0.619913
    28  O   -0.475518
    29  N   -0.665134
    30  C    0.312182
    31  C   -0.141380
    32  C   -0.194886
    33  C    0.102784
    34  C    0.087566
    35  C   -0.172593
    36  C   -0.133555
    37  C   -0.126092
    38  C   -0.133597
    39  C   -0.172654
    40  C   -0.195381
    41  C   -0.138381
    42  C    0.585297
    43  O   -0.470915
    44  C    0.266188
    45  H    0.163268
    46  H    0.155127
    47  H    0.180276
    48  H    0.138288
    49  H    0.135266
    50  H    0.137692
    51  H    0.133471
    52  H    0.128867
    53  H    0.131215
    54  H    0.132381
    55  H    0.170114
    56  H    0.158581
    57  H    0.170978
    58  H    0.157007
    59  H    0.139346
    60  H    0.132755
    61  H    0.131219
    62  H    0.130431
    63  H    0.131514
    64  H    0.134016
    65  H    0.139262
    66  H    0.159299
 Sum of Mulliken charges =  -0.00000

 Dipole moment (field-independent basis, Debye):
    X=             -0.1228    Y=             -0.3756    Z=              0.7768  Tot=              0.8715
 Quadrupole moment (field-independent basis, Debye-Ang):
   XX=           -248.5933   YY=           -227.9461   ZZ=           -240.3384
   XY=              1.6341   XZ=             -3.7282   YZ=              7.0817

 Normal termination of Gaussian 16 at Sat Nov  5 10:16:42 2022.
