 Gaussian 16, Revision B.01,
 Gaussian 16:  ES64L-G16RevB.01 20-Dec-2017

 -----------------------------
 #p b3lyp/6-31g(d) opt SCF=XQC
 -----------------------------

 ------------------------------
 Gaussian input prepared by ASE
 ------------------------------
 Symbolic Z-matrix:
 Charge =  0 Multiplicity = 1

 SCF Done:  E(RB3LYP) =  -1844.97430448     A.U. after   16 cycles
 SCF Done:  E(RB3LYP) =  -1844.98352850     A.U. after   12 cycles
 SCF Done:  E(RB3LYP) =  -1844.98424664     A.U. after   12 cycles
 SCF Done:  E(RB3LYP) =  -1844.98454942     A.U. after   11 cycles
 SCF Done:  E(RB3LYP) =  -1844.98467302     A.U. after   11 cycles
 SCF Done:  E(RB3LYP) =  -1844.98476107     A.U. after   11 cycles
 SCF Done:  E(RB3LYP) =  -1844.98482370     A.U. after   11 cycles
 SCF Done:  E(RB3LYP) =  -1844.98489223     A.U. after   11 cycles
 SCF Done:  E(RB3LYP) =  -1844.98494720     A.U. after   11 cycles
 SCF Done:  E(RB3LYP) =  -1844.98498195     A.U. after   11 cycles
 SCF Done:  E(RB3LYP) =  -1844.98505911     A.U. after    9 cycles
 SCF Done:  E(RB3LYP) =  -1844.98506728     A.U. after   10 cycles
 SCF Done:  E(RB3LYP) =  -1844.98507060     A.U. after    9 cycles
 SCF Done:  E(RB3LYP) =  -1844.98507159     A.U. after    9 cycles
 SCF Done:  E(RB3LYP) =  -1844.98507219     A.U. after    8 cycles
 SCF Done:  E(RB3LYP) =  -1844.98507274     A.U. after    9 cycles
 SCF Done:  E(RB3LYP) =  -1844.98507333     A.U. after    9 cycles
 SCF Done:  E(RB3LYP) =  -1844.98507358     A.U. after    8 cycles
 SCF Done:  E(RB3LYP) =  -1844.98507371     A.U. after    7 cycles
 SCF Done:  E(RB3LYP) =  -1844.98507372     A.U. after    6 cycles
 Optimization completed.
    -- Stationary point found.

                         Standard orientation:
 ---------------------------------------------------------------------
 Center     Atomic      Atomic             Coordinates (Angstroms)
 Number     Number       Type             X           Y           Z
 ---------------------------------------------------------------------
      1          6           0       -0.409642    5.497082    2.231696
      2          8           0       -0.238741    4.102738    2.034836
      3          6           0        0.113693    3.661777    0.792003
      4          6           0        0.343494    4.491985   -0.308634
      5          6           0        0.707237    3.936856   -1.545835
      6          6           0        0.954651    4.841580   -2.731454
      7          6           0        0.829551    2.552859   -1.666102
      8          6           0        0.609667    1.717496   -0.559090
      9          7           0        0.773493    0.302347   -0.694323
     10          6           0        2.114951   -0.182764   -1.009025
     11          6           0        3.007376   -0.359933    0.226504
     12          8           0        4.276068   -0.811937   -0.217666
     13         14           0        5.598228   -1.124983    0.776936
     14          6           0        6.059985    0.435731    1.740628
     15          6           0        5.165298   -2.499753    2.001964
     16          6           0        6.979828   -1.654317   -0.432541
     17          6           0        8.270407   -1.984826    0.348144
     18          6           0        6.531605   -2.902767   -1.222782
     19          6           0        7.268309   -0.509672   -1.427752
     20          6           0       -0.278936   -0.577755   -0.425333
     21          6           0       -0.047458   -1.964372   -0.216565
     22          6           0       -1.090625   -2.845416    0.008878
     23          6           0       -2.421447   -2.397519    0.048851
     24          7           0       -3.444520   -3.303693    0.290990
     25          6           0       -4.644463   -2.839227    0.299220
     26          7           0       -5.011312   -1.514483    0.088056
     27          6           0       -6.409194   -1.180121    0.068754
     28          6           0       -7.274120   -1.909907   -0.751784
     29          6           0       -8.641142   -1.628777   -0.745439
     30          6           0       -9.142431   -0.609988    0.064379
     31          6           0       -8.270829    0.126349    0.870717
     32          6           0       -6.906342   -0.155622    0.880451
     33          6           0       -4.037102   -0.506244   -0.135212
     34          8           0       -4.354423    0.663247   -0.300474
     35          6           0       -2.658852   -1.019419   -0.152342
     36          6           0       -1.607899   -0.129129   -0.390027
     37          6           0        0.258325    2.272675    0.669626
     38          1           0       -0.693259    5.618087    3.278786
     39          1           0        0.520298    6.049720    2.042073
     40          1           0       -1.205348    5.900470    1.591776
     41          1           0        0.237706    5.568094   -0.223854
     42          1           0        0.127134    5.546079   -2.876440
     43          1           0        1.072020    4.266573   -3.654940
     44          1           0        1.865746    5.438149   -2.593327
     45          1           0        1.079718    2.110048   -2.625854
     46          1           0        2.050581   -1.128249   -1.555904
     47          1           0        2.599936    0.535339   -1.676262
     48          1           0        3.090178    0.602311    0.751946
     49          1           0        2.553337   -1.079841    0.922892
     50          1           0        6.942725    0.267470    2.369425
     51          1           0        5.246057    0.749013    2.405767
     52          1           0        6.281290    1.275140    1.071851
     53          1           0        4.861658   -3.419480    1.489295
     54          1           0        6.019459   -2.742721    2.645599
     55          1           0        4.340874   -2.201003    2.660958
     56          1           0        9.068013   -2.288767   -0.345028
     57          1           0        8.124838   -2.810579    1.055711
     58          1           0        8.644157   -1.121399    0.912584
     59          1           0        6.345683   -3.759998   -0.564000
     60          1           0        5.615140   -2.711392   -1.791646
     61          1           0        7.312474   -3.203755   -1.936439
     62          1           0        6.374886   -0.241080   -2.002077
     63          1           0        7.625915    0.394492   -0.919836
     64          1           0        8.047871   -0.812120   -2.142230
     65          1           0        0.963921   -2.353862   -0.220153
     66          1           0       -0.897855   -3.901577    0.170213
     67          1           0       -5.478641   -3.506153    0.500529
     68          1           0       -6.875041   -2.682949   -1.402052
     69          1           0       -9.308771   -2.200881   -1.383599
     70          1           0      -10.205580   -0.386312    0.064445
     71          1           0       -8.654686    0.924043    1.500540
     72          1           0       -6.227054    0.415404    1.501388
     73          1           0       -1.853160    0.912657   -0.554452
     74          1           0        0.082361    1.646054    1.537198
 ---------------------------------------------------------------------

 The electronic state is 1-A.
 Alpha  occ. eigenvalues --  -66.13670 -19.17819 -19.13583 -19.11302 -14.39281
 Alpha  occ. eigenvalues --  -14.35769 -14.32267 -10.28980 -10.26054 -10.24890
 Alpha  occ. eigenvalues --  -10.24158 -10.23563 -10.23551 -10.23337 -10.22684
 Alpha  occ. eigenvalues --  -10.21916 -10.21518 -10.20153 -10.19879 -10.19666
 Alpha  occ. eigenvalues --  -10.19514 -10.19463 -10.19431 -10.19406 -10.19110
 Alpha  occ. eigenvalues --  -10.18689 -10.18562 -10.18453 -10.18236 -10.18147
 Alpha  occ. eigenvalues --  -10.18121 -10.17804 -10.17385 -10.16880 -10.16868
 Alpha  occ. eigenvalues --  -10.16181 -10.16175  -5.27820  -3.63904  -3.63624
 Alpha  occ. eigenvalues --   -3.63601  -1.06421  -1.03884  -0.99977  -0.97770
 Alpha  occ. eigenvalues --   -0.95442  -0.91166  -0.85401  -0.85029  -0.83590
 Alpha  occ. eigenvalues --   -0.79372  -0.77718  -0.76674  -0.75840  -0.75398
 Alpha  occ. eigenvalues --   -0.75172  -0.73986  -0.71240  -0.70624  -0.69831
 Alpha  occ. eigenvalues --   -0.68235  -0.68131  -0.67806  -0.67181  -0.66249
 Alpha  occ. eigenvalues --   -0.65281  -0.62736  -0.61771  -0.60476  -0.59721
 Alpha  occ. eigenvalues --   -0.58601  -0.57524  -0.55138  -0.54626  -0.54408
 Alpha  occ. eigenvalues --   -0.53266  -0.51854  -0.50155  -0.49603  -0.49322
 Alpha  occ. eigenvalues --   -0.48811  -0.48466  -0.47469  -0.46899  -0.46857
 Alpha  occ. eigenvalues --   -0.46180  -0.45444  -0.45156  -0.43878  -0.43694
 Alpha  occ. eigenvalues --   -0.43295  -0.42921  -0.42761  -0.42583  -0.42454
 Alpha  occ. eigenvalues --   -0.42144  -0.41974  -0.41609  -0.41297  -0.41148
 Alpha  occ. eigenvalues --   -0.40904  -0.39791  -0.39693  -0.39200  -0.38957
 Alpha  occ. eigenvalues --   -0.38686  -0.38429  -0.37817  -0.37672  -0.37470
 Alpha  occ. eigenvalues --   -0.37327  -0.37041  -0.36875  -0.36771  -0.36362
 Alpha  occ. eigenvalues --   -0.36141  -0.35875  -0.35852  -0.35097  -0.34814
 Alpha  occ. eigenvalues --   -0.32774  -0.32641  -0.32333  -0.31899  -0.31191
 Alpha  occ. eigenvalues --   -0.30949  -0.29780  -0.27035  -0.26631  -0.26296
 Alpha  occ. eigenvalues --   -0.26140  -0.25887  -0.25231  -0.24954  -0.24642
 Alpha  occ. eigenvalues --   -0.23315  -0.21901  -0.18333
 Alpha virt. eigenvalues --   -0.03637  -0.02339  -0.00535  -0.00327   0.00023
 Alpha virt. eigenvalues --    0.01247   0.04221   0.06031   0.07305   0.08395
 Alpha virt. eigenvalues --    0.08969   0.09145   0.09280   0.10207   0.10673

 Mulliken charges:
               1
     1  C   -0.214131
     2  O   -0.509957
     3  C    0.385334
     4  C   -0.246492
     5  C    0.170783
     6  C   -0.531681
     7  C   -0.217195
     8  C    0.263084
     9  N   -0.597765
    10  C   -0.176464
    11  C   -0.016766
    12  O   -0.577955
    13  Si   0.907069
    14  C   -0.685082
    15  C   -0.684585
    16  C   -0.086813
    17  C   -0.458491
    18  C   -0.454237
    19  C   -0.454146
    20  C    0.361932
    21  C   -0.189049
    22  C   -0.168417
    23  C    0.230945
    24  N   -0.504202
    25  C    0.207771
    26  N   -0.576221
    27  C    0.270793
    28  C   -0.150221
    29  C   -0.142741
    30  C   -0.118580
    31  C   -0.147884
    32  C   -0.113030
    33  C    0.581704
    34  O   -0.514668
    35  C    0.060061
    36  C   -0.258624
    37  C   -0.201954
    38  H    0.170567
    39  H    0.150288
    40  H    0.155302
    41  H    0.125069
    42  H    0.162882
    43  H    0.158980
    44  H    0.163463
    45  H    0.127807
    46  H    0.163103
    47  H    0.165080
    48  H    0.140925
    49  H    0.135753
    50  H    0.161593
    51  H    0.162188
    52  H    0.165851
    53  H    0.165220
    54  H    0.162023
    55  H    0.161757
    56  H    0.137967
    57  H    0.142033
    58  H    0.141664
    59  H    0.138154
    60  H    0.159187
    61  H    0.131862
    62  H    0.158981
    63  H    0.137885
    64  H    0.131715
    65  H    0.138906
    66  H    0.142303
    67  H    0.165526
    68  H    0.145899
    69  H    0.136818
    70  H    0.133960
    71  H    0.137827
    72  H    0.158059
    73  H    0.175171
    74  H    0.146109
 Sum of Mulliken charges =  -0.00000

 Dipole moment (field-independent basis, Debye):
    X=              0.9739    Y=              2.2185    Z=              0.8778  Tot=              2.5769
 Quadrupole moment (field-independent basis, Debye-Ang):
   XX=           -202.1841   YY=           -207.5991   ZZ=           -221.3562
   XY=              4.4133   XZ=              0.7756   YZ=              4.6015

 Normal termination of Gaussian 16 at Sat Nov  5 00:12:47 2022.
