 Gaussian 16, Revision B.01,
 Gaussian 16:  ES64L-G16RevB.01 20-Dec-2017

 -------------------------------------------------------------------
 #p b3lyp/6-31g(d) 6D 10F nosymm GFInput td=(50-50,nstate=2) SCF=XQC
 -------------------------------------------------------------------

 ------------------------------
 Gaussian input prepared by ASE
 ------------------------------
 Symbolic Z-matrix:
 Charge =  0 Multiplicity = 1

                          Input orientation:
 ---------------------------------------------------------------------
 Center     Atomic      Atomic             Coordinates (Angstroms)
 Number     Number       Type             X           Y           Z
 ---------------------------------------------------------------------
      1          6           0        1.331294    5.016771   -2.941517
      2          8           0        1.099423    3.670044   -2.561099
      3          6           0        0.706272    3.417049   -1.278635
      4          6           0        0.490684    4.398183   -0.306856
      5          6           0        0.081629    4.031841    0.985278
      6          6           0       -0.150044    5.099034    2.030677
      7          6           0       -0.099866    2.683017    1.289589
      8          6           0        0.105719    1.696289    0.311960
      9          7           0       -0.118807    0.320268    0.634337
     10          6           0       -1.484702   -0.065434    0.979943
     11          6           0       -2.360772   -0.375558   -0.240985
     12          8           0       -3.654994   -0.713572    0.230087
     13         14           0       -4.970402   -1.108763   -0.744009
     14          6           0       -5.349560    0.322036   -1.921636
     15          6           0       -4.572066   -2.653741   -1.760122
     16          6           0       -6.394700   -1.414323    0.492865
     17          6           0       -7.683219   -1.798755   -0.266235
     18          6           0       -6.012988   -2.559228    1.455934
     19          6           0       -6.653995   -0.134109    1.316087
     20          6           0        0.901195   -0.628065    0.512666
     21          6           0        0.616599   -2.020297    0.488840
     22          6           0        1.626507   -2.963250    0.410207
     23          6           0        2.975183   -2.576403    0.341505
     24          7           0        3.964291   -3.545744    0.249271
     25          6           0        5.182319   -3.133136    0.206633
     26          7           0        5.599553   -1.807014    0.244473
     27          6           0        7.009445   -1.527016    0.251511
     28          6           0        7.828274   -2.170353    1.184037
     29          6           0        9.205614   -1.945372    1.172173
     30          6           0        9.763330   -1.066896    0.243594
     31          6           0        8.937842   -0.414875   -0.675918
     32          6           0        7.563296   -0.642986   -0.679804
     33          6           0        4.663817   -0.741097    0.305309
     34          8           0        5.026015    0.426967    0.317606
     35          6           0        3.265490   -1.193865    0.359128
     36          6           0        2.247959   -0.239787    0.448443
     37          6           0        0.502231    2.064316   -0.972073
     38          1           0        1.638895    4.982464   -3.988265
     39          1           0        0.421609    5.625406   -2.851020
     40          1           0        2.131044    5.473070   -2.343554
     41          1           0        0.642317    5.447729   -0.534566
     42          1           0        0.703020    5.784481    2.098272
     43          1           0       -0.308018    4.660661    3.020681
     44          1           0       -1.033056    5.705608    1.791037
     45          1           0       -0.385718    2.385553    2.294374
     46          1           0       -1.469471   -0.929006    1.651637
     47          1           0       -1.951856    0.755244    1.531615
     48          1           0       -2.394120    0.508242   -0.894165
     49          1           0       -1.924070   -1.200823   -0.822022
     50          1           0       -6.226760    0.103339   -2.542618
     51          1           0       -4.511290    0.509955   -2.603564
     52          1           0       -5.548327    1.252888   -1.378634
     53          1           0       -4.316118   -3.505671   -1.120101
     54          1           0       -5.423526   -2.949512   -2.384964
     55          1           0       -3.724025   -2.479768   -2.433739
     56          1           0       -8.505314   -1.974220    0.442578
     57          1           0       -7.558833   -2.718490   -0.851320
     58          1           0       -8.010576   -1.006944   -0.951553
     59          1           0       -5.850486   -3.504997    0.924409
     60          1           0       -5.100039   -2.327141    2.015219
     61          1           0       -6.818618   -2.729610    2.185033
     62          1           0       -5.760980    0.176042    1.869736
     63          1           0       -6.964585    0.705137    0.681600
     64          1           0       -7.458394   -0.305874    2.046229
     65          1           0       -0.409881   -2.366556    0.521192
     66          1           0        1.393337   -4.023373    0.389369
     67          1           0        5.991841   -3.852826    0.117810
     68          1           0        7.385738   -2.831316    1.923629
     69          1           0        9.837209   -2.450003    1.897924
     70          1           0       10.834622   -0.886272    0.238504
     71          1           0        9.365811    0.273869   -1.398975
     72          1           0        6.919691   -0.136620   -1.388628
     73          1           0        2.532917    0.804517    0.475549
     74          1           0        0.668143    1.318645   -1.741973
 ---------------------------------------------------------------------

 SCF Done:  E(RB3LYP) =  -1844.98505788     A.U. after   16 cycles

 Excitation energies and oscillator strengths:

 Excited state symmetry could not be determined.
 Excited State   1:      Triplet-?Sym    2.7452 eV  451.64 nm  f=0.0000  <S**2>=2.000
     138 ->139         0.68447
 This state for optimization and/or second-order correction.
 Total Energy, E(TD-HF/TD-DFT) =  -1844.88417264
 Copying the excited state density for this state as the 1-particle RhoCI density.

 Excited state symmetry could not be determined.
 Excited State   2:      Triplet-?Sym    2.8720 eV  431.70 nm  f=0.0000  <S**2>=2.000
     138 ->140         0.64256
     138 ->143         0.13520

 Excited state symmetry could not be determined.
 Excited State   3:      Singlet-?Sym    3.4898 eV  355.28 nm  f=0.0355  <S**2>=0.000
     138 ->139         0.69006

 Excited state symmetry could not be determined.
 Excited State   4:      Singlet-?Sym    3.8590 eV  321.29 nm  f=0.4118  <S**2>=0.000
     138 ->140         0.66363
     138 ->142         0.15260

 Alpha  occ. eigenvalues --  -66.13670 -19.17819 -19.13583 -19.11302 -14.39281
 Alpha  occ. eigenvalues --  -14.35769 -14.32267 -10.28980 -10.26054 -10.24890
 Alpha  occ. eigenvalues --  -10.24158 -10.23563 -10.23551 -10.23337 -10.22684
 Alpha  occ. eigenvalues --  -10.21916 -10.21518 -10.20153 -10.19879 -10.19666
 Alpha  occ. eigenvalues --  -10.19514 -10.19463 -10.19431 -10.19406 -10.19110
 Alpha  occ. eigenvalues --  -10.18690 -10.18562 -10.18453 -10.18236 -10.18147
 Alpha  occ. eigenvalues --  -10.18121 -10.17804 -10.17385 -10.16880 -10.16868
 Alpha  occ. eigenvalues --  -10.16181 -10.16175  -5.27820  -3.63904  -3.63624
 Alpha  occ. eigenvalues --   -3.63601  -1.06421  -1.03884  -0.99977  -0.97770
 Alpha  occ. eigenvalues --   -0.95442  -0.91166  -0.85401  -0.85029  -0.83590
 Alpha  occ. eigenvalues --   -0.79372  -0.77718  -0.76674  -0.75840  -0.75398
 Alpha  occ. eigenvalues --   -0.75172  -0.73986  -0.71240  -0.70624  -0.69831
 Alpha  occ. eigenvalues --   -0.68235  -0.68131  -0.67806  -0.67181  -0.66249
 Alpha  occ. eigenvalues --   -0.65281  -0.62736  -0.61771  -0.60476  -0.59721
 Alpha  occ. eigenvalues --   -0.58601  -0.57524  -0.55137  -0.54626  -0.54408
 Alpha  occ. eigenvalues --   -0.53266  -0.51854  -0.50155  -0.49603  -0.49322
 Alpha  occ. eigenvalues --   -0.48811  -0.48466  -0.47469  -0.46899  -0.46857
 Alpha  occ. eigenvalues --   -0.46180  -0.45444  -0.45156  -0.43878  -0.43694
 Alpha  occ. eigenvalues --   -0.43295  -0.42921  -0.42761  -0.42583  -0.42454
 Alpha  occ. eigenvalues --   -0.42144  -0.41974  -0.41609  -0.41297  -0.41148
 Alpha  occ. eigenvalues --   -0.40904  -0.39791  -0.39693  -0.39200  -0.38957
 Alpha  occ. eigenvalues --   -0.38686  -0.38429  -0.37817  -0.37672  -0.37470
 Alpha  occ. eigenvalues --   -0.37327  -0.37041  -0.36875  -0.36771  -0.36362
 Alpha  occ. eigenvalues --   -0.36141  -0.35875  -0.35852  -0.35097  -0.34814
 Alpha  occ. eigenvalues --   -0.32774  -0.32641  -0.32333  -0.31899  -0.31191
 Alpha  occ. eigenvalues --   -0.30949  -0.29780  -0.27035  -0.26631  -0.26296
 Alpha  occ. eigenvalues --   -0.26140  -0.25887  -0.25231  -0.24954  -0.24642
 Alpha  occ. eigenvalues --   -0.23315  -0.21901  -0.18333
 Alpha virt. eigenvalues --   -0.03637  -0.02339  -0.00535  -0.00327   0.00023
 Alpha virt. eigenvalues --    0.01247   0.04221   0.06031   0.07305   0.08395
 Alpha virt. eigenvalues --    0.08970   0.09145   0.09280   0.10207   0.10673

 Mulliken charges:
               1
     1  C   -0.214137
     2  O   -0.509968
     3  C    0.385350
     4  C   -0.246495
     5  C    0.170777
     6  C   -0.531682
     7  C   -0.217195
     8  C    0.263098
     9  N   -0.597756
    10  C   -0.176486
    11  C   -0.016760
    12  O   -0.577975
    13  Si   0.907153
    14  C   -0.685097
    15  C   -0.684578
    16  C   -0.086784
    17  C   -0.458509
    18  C   -0.454262
    19  C   -0.454163
    20  C    0.361901
    21  C   -0.189038
    22  C   -0.168412
    23  C    0.230916
    24  N   -0.504195
    25  C    0.207767
    26  N   -0.576224
    27  C    0.270778
    28  C   -0.150214
    29  C   -0.142740
    30  C   -0.118583
    31  C   -0.147886
    32  C   -0.113026
    33  C    0.581720
    34  O   -0.514672
    35  C    0.060076
    36  C   -0.258597
    37  C   -0.201962
    38  H    0.170568
    39  H    0.150290
    40  H    0.155303
    41  H    0.125071
    42  H    0.162882
    43  H    0.158980
    44  H    0.163463
    45  H    0.127807
    46  H    0.163108
    47  H    0.165081
    48  H    0.140925
    49  H    0.135751
    50  H    0.161594
    51  H    0.162186
    52  H    0.165847
    53  H    0.165212
    54  H    0.162015
    55  H    0.161750
    56  H    0.137968
    57  H    0.142033
    58  H    0.141665
    59  H    0.138155
    60  H    0.159190
    61  H    0.131864
    62  H    0.158979
    63  H    0.137883
    64  H    0.131716
    65  H    0.138903
    66  H    0.142302
    67  H    0.165526
    68  H    0.145898
    69  H    0.136818
    70  H    0.133960
    71  H    0.137827
    72  H    0.158059
    73  H    0.175169
    74  H    0.146111
 Sum of Mulliken charges =  -0.00000

 Dipole moment (field-independent basis, Debye):
    X=             -0.8652    Y=              2.1133    Z=             -1.1941  Tot=              2.5769
 Quadrupole moment (field-independent basis, Debye-Ang):
   XX=           -203.7176   YY=           -209.2055   ZZ=           -219.8020
   XY=             -2.8935   XZ=              0.7556   YZ=             -6.3119

 Normal termination of Gaussian 16 at Sat Nov  5 10:09:22 2022.
