 Gaussian 16, Revision B.01,
 Gaussian 16:  ES64L-G16RevB.01 20-Dec-2017

 -------------------------------------------------------------------
 #p b3lyp/6-31g(d) 6D 10F nosymm GFInput td=(50-50,nstate=2) SCF=XQC
 -------------------------------------------------------------------

 ------------------------------
 Gaussian input prepared by ASE
 ------------------------------
 Symbolic Z-matrix:
 Charge =  0 Multiplicity = 1

                          Input orientation:
 ---------------------------------------------------------------------
 Center     Atomic      Atomic             Coordinates (Angstroms)
 Number     Number       Type             X           Y           Z
 ---------------------------------------------------------------------
      1          6           0       -1.218702   -4.974120    2.656954
      2          6           0       -0.837927   -4.139867    1.469173
      3          6           0       -0.264708   -2.920607    1.480486
      4          6           0       -0.031706   -2.447600    0.063196
      5          6           0       -0.641048   -1.079820   -0.229194
      6          6           0       -2.037709   -0.971862   -0.289578
      7          6           0       -2.668483    0.241525   -0.533172
      8          6           0       -1.916731    1.411692   -0.727147
      9          6           0       -2.575100    2.716024   -0.994189
     10          6           0       -2.055401    3.912074   -0.469835
     11          6           0       -2.674872    5.135189   -0.721684
     12          6           0       -3.831092    5.191543   -1.502057
     13          6           0       -4.360097    4.012296   -2.029670
     14          6           0       -3.738609    2.789809   -1.779355
     15          6           0       -0.520109    1.307302   -0.658576
     16          6           0        0.132851    0.089626   -0.409737
     17         15           0        1.990260   -0.033586   -0.389729
     18          6           0        2.526103    1.624962   -1.017066
     19          6           0        2.816856    2.729301   -0.201360
     20          6           0        3.255405    3.931075   -0.761491
     21          6           0        3.404222    4.050501   -2.144095
     22          6           0        3.120162    2.958410   -2.966767
     23          6           0        2.695256    1.754250   -2.406178
     24          6           0        2.380902    0.070572    1.419911
     25          6           0        3.652157   -0.367580    1.826784
     26          6           0        4.025739   -0.331986    3.170277
     27          6           0        3.125800    0.127244    4.134169
     28          6           0        1.855020    0.554911    3.745564
     29          6           0        1.485585    0.530034    2.398632
     30          6           0       -0.588952   -3.593191   -0.770247
     31          6           0       -0.558877   -3.560709   -2.267126
     32          6           0       -1.036631   -4.566924    0.059653
     33          6           0       -1.629770   -5.897173   -0.305608
     34          1           0       -2.292575   -5.205041    2.662683
     35          1           0       -0.981381   -4.458713    3.592848
     36          1           0       -0.690968   -5.937408    2.660647
     37          1           0        0.005896   -2.335900    2.352565
     38          1           0        1.053012   -2.391615   -0.123484
     39          1           0       -2.633709   -1.867424   -0.133897
     40          1           0       -3.753945    0.287947   -0.549315
     41          1           0       -1.170207    3.878836    0.159031
     42          1           0       -2.257356    6.045677   -0.299509
     43          1           0       -4.314721    6.144865   -1.697437
     44          1           0       -5.254754    4.044083   -2.646245
     45          1           0       -4.144136    1.882512   -2.218508
     46          1           0        0.075018    2.197373   -0.831833
     47          1           0        2.704468    2.649950    0.875654
     48          1           0        3.479531    4.775721   -0.114736
     49          1           0        3.745272    4.986809   -2.577913
     50          1           0        3.239655    3.040630   -4.043958
     51          1           0        2.495557    0.902105   -3.051919
     52          1           0        4.351648   -0.744539    1.084121
     53          1           0        5.014766   -0.672784    3.465471
     54          1           0        3.411368    0.146531    5.182661
     55          1           0        1.148683    0.911768    4.491010
     56          1           0        0.495092    0.866791    2.107149
     57          1           0       -1.098128   -2.686782   -2.656924
     58          1           0        0.470188   -3.486270   -2.645616
     59          1           0       -1.008957   -4.455409   -2.708079
     60          1           0       -2.632668   -6.021217    0.124710
     61          1           0       -1.716188   -6.025198   -1.388299
     62          1           0       -1.020254   -6.726614    0.078184
 ---------------------------------------------------------------------

 SCF Done:  E(RB3LYP) =  -1578.21462885     A.U. after   14 cycles

 Excitation energies and oscillator strengths:

 Excited state symmetry could not be determined.
 Excited State   1:      Triplet-?Sym    2.7249 eV  455.00 nm  f=0.0000  <S**2>=2.000
     118 ->119        -0.10226
     118 ->120         0.15025
     118 ->122        -0.10782
     118 ->123         0.46967
     118 ->124         0.43457
 This state for optimization and/or second-order correction.
 Total Energy, E(TD-HF/TD-DFT) =  -1578.11448991
 Copying the excited state density for this state as the 1-particle RhoCI density.

 Excited state symmetry could not be determined.
 Excited State   2:      Triplet-?Sym    3.1580 eV  392.60 nm  f=0.0000  <S**2>=2.000
     109 ->127        -0.12234
     115 ->126         0.11041
     116 ->119        -0.43593
     116 ->121         0.13835
     117 ->119        -0.23125
     118 ->119         0.33136

 Excited state symmetry could not be determined.
 Excited State   3:      Singlet-?Sym    3.9224 eV  316.09 nm  f=0.0863  <S**2>=0.000
     118 ->119         0.69549

 Excited state symmetry could not be determined.
 Excited State   4:      Singlet-?Sym    4.1163 eV  301.21 nm  f=0.0063  <S**2>=0.000
     118 ->120         0.60095
     118 ->121         0.33821

 Alpha  occ. eigenvalues --  -77.08181 -10.19770 -10.19568 -10.19527 -10.19492
 Alpha  occ. eigenvalues --  -10.19359 -10.19300 -10.19299 -10.19242 -10.19198
 Alpha  occ. eigenvalues --  -10.19161 -10.19147 -10.19142 -10.19119 -10.19057
 Alpha  occ. eigenvalues --  -10.19019 -10.18998 -10.18713 -10.18690 -10.18611
 Alpha  occ. eigenvalues --  -10.18571 -10.18556 -10.18536 -10.18523 -10.18494
 Alpha  occ. eigenvalues --  -10.18218 -10.17835 -10.17784 -10.17738 -10.17727
 Alpha  occ. eigenvalues --  -10.17553 -10.17369 -10.16467  -6.54897  -4.71164
 Alpha  occ. eigenvalues --   -4.71153  -4.70658  -0.86734  -0.85473  -0.85405
 Alpha  occ. eigenvalues --   -0.84929  -0.83701  -0.78075  -0.76498  -0.75282
 Alpha  occ. eigenvalues --   -0.74480  -0.74409  -0.74313  -0.74194  -0.73930
 Alpha  occ. eigenvalues --   -0.73459  -0.71247  -0.70168  -0.65186  -0.64350
 Alpha  occ. eigenvalues --   -0.63067  -0.61038  -0.60389  -0.60276  -0.60191
 Alpha  occ. eigenvalues --   -0.59418  -0.58685  -0.56978  -0.54848  -0.52695
 Alpha  occ. eigenvalues --   -0.51795  -0.51516  -0.49732  -0.49116  -0.47887
 Alpha  occ. eigenvalues --   -0.46888  -0.46081  -0.45430  -0.44881  -0.44756
 Alpha  occ. eigenvalues --   -0.44660  -0.44333  -0.43621  -0.42857  -0.42467
 Alpha  occ. eigenvalues --   -0.42113  -0.42017  -0.41915  -0.41588  -0.40934
 Alpha  occ. eigenvalues --   -0.40504  -0.40229  -0.40119  -0.39690  -0.39115
 Alpha  occ. eigenvalues --   -0.37871  -0.37185  -0.36981  -0.36810  -0.36729
 Alpha  occ. eigenvalues --   -0.36295  -0.35839  -0.35400  -0.34498  -0.34279
 Alpha  occ. eigenvalues --   -0.34160  -0.33934  -0.32822  -0.32477  -0.32173
 Alpha  occ. eigenvalues --   -0.31859  -0.31486  -0.27618  -0.26799  -0.26019
 Alpha  occ. eigenvalues --   -0.25470  -0.25243  -0.25121  -0.24693  -0.24633
 Alpha  occ. eigenvalues --   -0.21984  -0.20925  -0.19113
 Alpha virt. eigenvalues --   -0.02664  -0.01981  -0.01625  -0.00410  -0.00059
 Alpha virt. eigenvalues --    0.00185   0.00319   0.00406   0.03049   0.06611
 Alpha virt. eigenvalues --    0.07926   0.08981   0.09479   0.09871   0.10088

 Mulliken charges:
               1
     1  C   -0.528037
     2  C    0.148245
     3  C   -0.187231
     4  C   -0.324134
     5  C    0.167482
     6  C   -0.171843
     7  C   -0.182933
     8  C    0.105021
     9  C    0.091425
    10  C   -0.173160
    11  C   -0.133985
    12  C   -0.127229
    13  C   -0.133931
    14  C   -0.174695
    15  C   -0.225852
    16  C   -0.183800
    17  P    0.340231
    18  C   -0.097835
    19  C   -0.162750
    20  C   -0.120737
    21  C   -0.130761
    22  C   -0.119447
    23  C   -0.163158
    24  C   -0.095957
    25  C   -0.164550
    26  C   -0.119244
    27  C   -0.131480
    28  C   -0.123513
    29  C   -0.165352
    30  C    0.095839
    31  C   -0.524185
    32  C    0.083579
    33  C   -0.533392
    34  H    0.153408
    35  H    0.156576
    36  H    0.154911
    37  H    0.131260
    38  H    0.188215
    39  H    0.139216
    40  H    0.131909
    41  H    0.132894
    42  H    0.128811
    43  H    0.127911
    44  H    0.128858
    45  H    0.130882
    46  H    0.152254
    47  H    0.147040
    48  H    0.131220
    49  H    0.132108
    50  H    0.132695
    51  H    0.141888
    52  H    0.142184
    53  H    0.132855
    54  H    0.132414
    55  H    0.132877
    56  H    0.149705
    57  H    0.160325
    58  H    0.158441
    59  H    0.150377
    60  H    0.154015
    61  H    0.155728
    62  H    0.156396
 Sum of Mulliken charges =  -0.00000

 Dipole moment (field-independent basis, Debye):
    X=             -0.1510    Y=              0.5773    Z=              0.6285  Tot=              0.8667
 Quadrupole moment (field-independent basis, Debye-Ang):
   XX=           -191.6889   YY=           -184.0277   ZZ=           -188.4729
   XY=              4.5436   XZ=              4.9496   YZ=             -1.2489

 Normal termination of Gaussian 16 at Sat Nov  5 10:34:21 2022.
