 Gaussian 16, Revision B.01,
 Gaussian 16:  ES64L-G16RevB.01 20-Dec-2017

 -----------------------------
 #p b3lyp/6-31g(d) opt SCF=XQC
 -----------------------------

 ------------------------------
 Gaussian input prepared by ASE
 ------------------------------
 Symbolic Z-matrix:
 Charge =  0 Multiplicity = 1

 SCF Done:  E(RB3LYP) =  -1578.20261177     A.U. after   15 cycles
 SCF Done:  E(RB3LYP) =  -1578.21295608     A.U. after   13 cycles
 SCF Done:  E(RB3LYP) =  -1578.21401354     A.U. after   12 cycles
 SCF Done:  E(RB3LYP) =  -1578.21434711     A.U. after   12 cycles
 SCF Done:  E(RB3LYP) =  -1578.21449065     A.U. after   12 cycles
 SCF Done:  E(RB3LYP) =  -1578.21457354     A.U. after   11 cycles
 SCF Done:  E(RB3LYP) =  -1578.21461759     A.U. after   11 cycles
 SCF Done:  E(RB3LYP) =  -1578.21462620     A.U. after   10 cycles
 SCF Done:  E(RB3LYP) =  -1578.21463039     A.U. after   10 cycles
 SCF Done:  E(RB3LYP) =  -1578.21463089     A.U. after    9 cycles
 SCF Done:  E(RB3LYP) =  -1578.21463115     A.U. after    8 cycles
 SCF Done:  E(RB3LYP) =  -1578.21463117     A.U. after    7 cycles
 Optimization completed.
    -- Stationary point found.

                         Standard orientation:
 ---------------------------------------------------------------------
 Center     Atomic      Atomic             Coordinates (Angstroms)
 Number     Number       Type             X           Y           Z
 ---------------------------------------------------------------------
      1          6           0       -5.677843   -1.209355   -1.538313
      2          6           0       -4.551815   -1.090799   -0.553531
      3          6           0       -3.419857   -0.373559   -0.693308
      4          6           0       -2.563925   -0.515084    0.545276
      5          6           0       -1.141886   -0.983107    0.251382
      6          6           0       -0.951245   -2.302378   -0.183521
      7          6           0        0.310153   -2.797824   -0.488366
      8          6           0        1.446578   -1.981362   -0.370146
      9          6           0        2.803058   -2.496962   -0.686630
     10          6           0        3.764937   -1.678370   -1.303288
     11          6           0        5.037479   -2.164275   -1.599455
     12          6           0        5.378179   -3.481931   -1.288478
     13          6           0        4.433762   -4.307887   -0.676335
     14          6           0        3.162169   -3.820456   -0.378273
     15          6           0        1.256941   -0.659144    0.056387
     16          6           0       -0.011200   -0.141812    0.364926
     17         15           0       -0.227596    1.597348    0.992659
     18          6           0        1.513064    2.148818    1.304820
     19          6           0        2.313319    2.826646    0.372288
     20          6           0        3.603065    3.241714    0.710826
     21          6           0        4.115483    2.980999    1.982619
     22          6           0        3.328630    2.309117    2.920477
     23          6           0        2.035790    1.906706    2.586655
     24          6           0       -0.678909    2.527436   -0.546659
     25          6           0       -1.280202    3.786258   -0.381050
     26          6           0       -1.659280    4.549587   -1.485329
     27          6           0       -1.458815    4.058136   -2.776903
     28          6           0       -0.872916    2.803793   -2.956179
     29          6           0       -0.482805    2.044858   -1.850214
     30          6           0       -3.385026   -1.455323    1.416639
     31          6           0       -2.916124   -1.874877    2.775577
     32          6           0       -4.535808   -1.764983    0.770790
     33          6           0       -5.668826   -2.623798    1.254006
     34          1           0       -5.846260   -2.252641   -1.837898
     35          1           0       -5.472411   -0.629381   -2.443460
     36          1           0       -6.624913   -0.847952   -1.115362
     37          1           0       -3.131200    0.228358   -1.547711
     38          1           0       -2.509934    0.458820    1.058299
     39          1           0       -1.822071   -2.944531   -0.287378
     40          1           0        0.413498   -3.819169   -0.844483
     41          1           0        3.504334   -0.658674   -1.572453
     42          1           0        5.761856   -1.513530   -2.082519
     43          1           0        6.369797   -3.861133   -1.520414
     44          1           0        4.689845   -5.332993   -0.421062
     45          1           0        2.445223   -4.464578    0.123313
     46          1           0        2.127727   -0.023910    0.177331
     47          1           0        1.927039    3.035016   -0.620817
     48          1           0        4.208335    3.768705   -0.022577
     49          1           0        5.119603    3.304572    2.243827
     50          1           0        3.717345    2.107797    3.915338
     51          1           0        1.421841    1.401976    3.329170
     52          1           0       -1.457044    4.167372    0.622151
     53          1           0       -2.120737    5.522498   -1.337146
     54          1           0       -1.762462    4.647007   -3.638463
     55          1           0       -0.715740    2.414206   -3.958908
     56          1           0       -0.026222    1.071113   -2.001190
     57          1           0       -1.940448   -2.376579    2.722345
     58          1           0       -2.785428   -1.008787    3.439337
     59          1           0       -3.618288   -2.559742    3.260782
     60          1           0       -5.863398   -3.456618    0.564863
     61          1           0       -5.468905   -3.050782    2.240816
     62          1           0       -6.603785   -2.051354    1.324263
 ---------------------------------------------------------------------

 The electronic state is 1-A.
 Alpha  occ. eigenvalues --  -77.08181 -10.19770 -10.19568 -10.19527 -10.19492
 Alpha  occ. eigenvalues --  -10.19359 -10.19300 -10.19299 -10.19242 -10.19197
 Alpha  occ. eigenvalues --  -10.19161 -10.19147 -10.19142 -10.19119 -10.19057
 Alpha  occ. eigenvalues --  -10.19019 -10.18998 -10.18713 -10.18690 -10.18611
 Alpha  occ. eigenvalues --  -10.18571 -10.18556 -10.18536 -10.18523 -10.18494
 Alpha  occ. eigenvalues --  -10.18218 -10.17835 -10.17784 -10.17738 -10.17727
 Alpha  occ. eigenvalues --  -10.17552 -10.17369 -10.16466  -6.54897  -4.71164
 Alpha  occ. eigenvalues --   -4.71153  -4.70658  -0.86734  -0.85473  -0.85405
 Alpha  occ. eigenvalues --   -0.84929  -0.83701  -0.78075  -0.76498  -0.75282
 Alpha  occ. eigenvalues --   -0.74480  -0.74409  -0.74313  -0.74194  -0.73930
 Alpha  occ. eigenvalues --   -0.73459  -0.71247  -0.70168  -0.65186  -0.64350
 Alpha  occ. eigenvalues --   -0.63067  -0.61038  -0.60389  -0.60276  -0.60191
 Alpha  occ. eigenvalues --   -0.59418  -0.58685  -0.56978  -0.54848  -0.52695
 Alpha  occ. eigenvalues --   -0.51795  -0.51516  -0.49732  -0.49116  -0.47887
 Alpha  occ. eigenvalues --   -0.46888  -0.46081  -0.45430  -0.44881  -0.44756
 Alpha  occ. eigenvalues --   -0.44660  -0.44333  -0.43621  -0.42857  -0.42467
 Alpha  occ. eigenvalues --   -0.42113  -0.42017  -0.41915  -0.41588  -0.40934
 Alpha  occ. eigenvalues --   -0.40504  -0.40229  -0.40119  -0.39690  -0.39115
 Alpha  occ. eigenvalues --   -0.37871  -0.37185  -0.36981  -0.36810  -0.36729
 Alpha  occ. eigenvalues --   -0.36295  -0.35839  -0.35400  -0.34498  -0.34279
 Alpha  occ. eigenvalues --   -0.34160  -0.33934  -0.32822  -0.32477  -0.32173
 Alpha  occ. eigenvalues --   -0.31859  -0.31485  -0.27618  -0.26799  -0.26019
 Alpha  occ. eigenvalues --   -0.25470  -0.25244  -0.25121  -0.24693  -0.24633
 Alpha  occ. eigenvalues --   -0.21984  -0.20925  -0.19113
 Alpha virt. eigenvalues --   -0.02664  -0.01981  -0.01625  -0.00410  -0.00059
 Alpha virt. eigenvalues --    0.00185   0.00319   0.00406   0.03049   0.06611
 Alpha virt. eigenvalues --    0.07926   0.08981   0.09479   0.09871   0.10088

 Mulliken charges:
               1
     1  C   -0.528042
     2  C    0.148233
     3  C   -0.187217
     4  C   -0.324126
     5  C    0.167463
     6  C   -0.171837
     7  C   -0.182915
     8  C    0.104999
     9  C    0.091432
    10  C   -0.173173
    11  C   -0.133972
    12  C   -0.127234
    13  C   -0.133931
    14  C   -0.174691
    15  C   -0.225849
    16  C   -0.183760
    17  P    0.340092
    18  C   -0.097810
    19  C   -0.162741
    20  C   -0.120730
    21  C   -0.130767
    22  C   -0.119450
    23  C   -0.163147
    24  C   -0.095936
    25  C   -0.164535
    26  C   -0.119247
    27  C   -0.131487
    28  C   -0.123504
    29  C   -0.165339
    30  C    0.095837
    31  C   -0.524187
    32  C    0.083582
    33  C   -0.533388
    34  H    0.153409
    35  H    0.156577
    36  H    0.154912
    37  H    0.131262
    38  H    0.188215
    39  H    0.139216
    40  H    0.131908
    41  H    0.132895
    42  H    0.128810
    43  H    0.127911
    44  H    0.128858
    45  H    0.130881
    46  H    0.152260
    47  H    0.147045
    48  H    0.131219
    49  H    0.132108
    50  H    0.132695
    51  H    0.141888
    52  H    0.142182
    53  H    0.132854
    54  H    0.132414
    55  H    0.132876
    56  H    0.149704
    57  H    0.160324
    58  H    0.158441
    59  H    0.150377
    60  H    0.154015
    61  H    0.155728
    62  H    0.156395
 Sum of Mulliken charges =  -0.00000

 Dipole moment (field-independent basis, Debye):
    X=              0.3741    Y=              0.1299    Z=             -0.7708  Tot=              0.8666
 Quadrupole moment (field-independent basis, Debye-Ang):
   XX=           -184.1758   YY=           -187.3480   ZZ=           -192.8214
   XY=              2.9734   XZ=              1.3177   YZ=             -5.4326

 1\1\GINC-NODE14\FOpt\RB3LYP\6-31G(d)\C32H29P1\WYKGROUP\04-Nov-2022\0\\
 #p b3lyp/6-31g(d) opt SCF=XQC\\Gaussian input prepared by ASE\\0,1\C,-
 1.2187022954,-4.9741198077,2.6569538129\C,-0.8379273314,-4.139866941,1
 .4691731476\C,-0.2647079153,-2.9206074418,1.4804863222\C,-0.0317060776
 ,-2.4475995212,0.0631960857\C,-0.641048439,-1.079819805,-0.2291935003\
 C,-2.0377085404,-0.971861541,-0.2895780324\C,-2.6684826019,0.241525002
 ,-0.5331719714\C,-1.9167313821,1.4116924112,-0.7271473239\C,-2.5751004
 893,2.7160244215,-0.9941887587\C,-2.055400913,3.9120740609,-0.46983451

 Normal termination of Gaussian 16 at Fri Nov  4 23:50:12 2022.
