 Gaussian 16, Revision B.01,
 Gaussian 16:  ES64L-G16RevB.01 20-Dec-2017

 -----------------------------
 #p b3lyp/6-31g(d) opt SCF=XQC
 -----------------------------

 ------------------------------
 Gaussian input prepared by ASE
 ------------------------------
 Symbolic Z-matrix:
 Charge =  0 Multiplicity = 1

 SCF Done:  E(RB3LYP) =  -1847.99010458     A.U. after   15 cycles
 SCF Done:  E(RB3LYP) =  -1848.00197659     A.U. after   13 cycles
 SCF Done:  E(RB3LYP) =  -1848.00320955     A.U. after   12 cycles
 SCF Done:  E(RB3LYP) =  -1848.00354339     A.U. after   12 cycles
 SCF Done:  E(RB3LYP) =  -1848.00364345     A.U. after   11 cycles
 SCF Done:  E(RB3LYP) =  -1848.00369641     A.U. after   10 cycles
 SCF Done:  E(RB3LYP) =  -1848.00373117     A.U. after   10 cycles
 SCF Done:  E(RB3LYP) =  -1848.00374979     A.U. after   10 cycles
 SCF Done:  E(RB3LYP) =  -1848.00375956     A.U. after   10 cycles
 SCF Done:  E(RB3LYP) =  -1848.00376703     A.U. after   10 cycles
 SCF Done:  E(RB3LYP) =  -1848.00383049     A.U. after    9 cycles
 SCF Done:  E(RB3LYP) =  -1848.00383066     A.U. after    7 cycles
 SCF Done:  E(RB3LYP) =  -1848.00383094     A.U. after    9 cycles
 SCF Done:  E(RB3LYP) =  -1848.00383109     A.U. after    9 cycles
 SCF Done:  E(RB3LYP) =  -1848.00383120     A.U. after    9 cycles
 SCF Done:  E(RB3LYP) =  -1848.00383130     A.U. after    8 cycles
 SCF Done:  E(RB3LYP) =  -1848.00383138     A.U. after    8 cycles
 SCF Done:  E(RB3LYP) =  -1848.00383144     A.U. after    7 cycles
 SCF Done:  E(RB3LYP) =  -1848.00383148     A.U. after    7 cycles
 SCF Done:  E(RB3LYP) =  -1848.00383149     A.U. after    6 cycles
 Optimization completed.
    -- Stationary point found.

                         Standard orientation:
 ---------------------------------------------------------------------
 Center     Atomic      Atomic             Coordinates (Angstroms)
 Number     Number       Type             X           Y           Z
 ---------------------------------------------------------------------
      1          6           0        4.420691   -3.677640    2.244201
      2          7           0        4.274949   -2.222196    2.187175
      3         16           0        4.452368   -1.439197    0.709987
      4          8           0        4.211316   -0.023531    0.996940
      5          8           0        5.703746   -1.929620    0.131241
      6          6           0        3.115075   -2.001706   -0.358418
      7          6           0        3.317587   -3.090847   -1.207107
      8          6           0        2.253907   -3.511314   -2.008640
      9          6           0        1.031402   -2.845632   -1.969691
     10          6           0        0.822338   -1.744747   -1.115537
     11          6           0       -0.464610   -1.039455   -1.083215
     12          6           0       -1.703982   -1.602389   -1.321471
     13          7           0       -2.703808   -0.661607   -1.231013
     14          6           0       -4.142434   -0.896029   -1.368460
     15          6           0       -4.764640   -1.575975   -0.163321
     16          6           0       -5.220160   -2.895576   -0.244066
     17          6           0       -5.788449   -3.521732    0.867967
     18          6           0       -5.904104   -2.829859    2.073269
     19          6           0       -5.453689   -1.509436    2.161522
     20          6           0       -4.889475   -0.885486    1.050382
     21          6           0       -2.121732    0.549846   -0.914823
     22          7           0       -2.785195    1.691418   -0.745872
     23          6           0       -2.023343    2.750887   -0.471734
     24          6           0       -0.611436    2.723651   -0.352951
     25          6           0        0.133606    3.958979   -0.053960
     26          6           0       -0.157927    4.963359    0.935429
     27          6           0       -1.286740    5.019101    1.920313
     28          7           0        0.742707    5.918460    0.938892
     29          8           0        1.661535    5.576407   -0.061901
     30          6           0        1.289560    4.414843   -0.636026
     31          6           0        2.162532    3.908761   -1.732854
     32          6           0        0.046504    1.499022   -0.530965
     33          6           0       -0.715814    0.359779   -0.817221
     34          6           0        1.889911   -1.338062   -0.298748
     35          1           0        4.443627   -3.973265    3.296676
     36          1           0        3.611919   -4.223347    1.736776
     37          1           0        5.376432   -3.946178    1.790573
     38          1           0        3.476548   -1.844809    2.691110
     39          1           0        4.290010   -3.567835   -1.258694
     40          1           0        2.389628   -4.348306   -2.687961
     41          1           0        0.230660   -3.159590   -2.633448
     42          1           0       -1.953806   -2.634828   -1.524851
     43          1           0       -4.587172    0.089087   -1.531665
     44          1           0       -4.306362   -1.494858   -2.270636
     45          1           0       -5.136949   -3.436929   -1.184442
     46          1           0       -6.140371   -4.546968    0.790233
     47          1           0       -6.346479   -3.313871    2.939788
     48          1           0       -5.547979   -0.964021    3.096757
     49          1           0       -4.544888    0.143547    1.115826
     50          1           0       -2.551024    3.693865   -0.351473
     51          1           0       -2.236978    5.267423    1.433753
     52          1           0       -1.080090    5.785592    2.671421
     53          1           0       -1.416378    4.054475    2.422720
     54          1           0        1.629904    3.164709   -2.330699
     55          1           0        3.072606    3.441715   -1.336415
     56          1           0        2.469928    4.733551   -2.383962
     57          1           0        1.126137    1.449094   -0.431642
     58          1           0        1.772360   -0.503732    0.382719
 ---------------------------------------------------------------------

 The electronic state is 1-A.
 Alpha  occ. eigenvalues --  -89.11025 -19.22159 -19.14054 -19.14045 -14.39851
 Alpha  occ. eigenvalues --  -14.37025 -14.36529 -14.34166 -10.25589 -10.25363
 Alpha  occ. eigenvalues --  -10.24543 -10.23759 -10.23060 -10.22990 -10.22841
 Alpha  occ. eigenvalues --  -10.22326 -10.22323 -10.21314 -10.21287 -10.21188
 Alpha  occ. eigenvalues --  -10.21173 -10.21134 -10.21093 -10.20990 -10.20566
 Alpha  occ. eigenvalues --  -10.20480 -10.20315 -10.20162 -10.20084 -10.20031
 Alpha  occ. eigenvalues --  -10.19879 -10.19800 -10.19576 -10.19142  -8.13524
 Alpha  occ. eigenvalues --   -6.10011  -6.09946  -6.09844  -1.12730  -1.10878
 Alpha  occ. eigenvalues --   -1.01422  -1.00033  -0.93910  -0.92499  -0.88243
 Alpha  occ. eigenvalues --   -0.86891  -0.86791  -0.84196  -0.82461  -0.78833
 Alpha  occ. eigenvalues --   -0.78578  -0.77421  -0.75621  -0.75501  -0.74388
 Alpha  occ. eigenvalues --   -0.72079  -0.71660  -0.71599  -0.69605  -0.66059
 Alpha  occ. eigenvalues --   -0.65310  -0.64280  -0.61985  -0.61635  -0.60930
 Alpha  occ. eigenvalues --   -0.59589  -0.58138  -0.57699  -0.55679  -0.54697
 Alpha  occ. eigenvalues --   -0.53084  -0.52257  -0.51553  -0.51411  -0.49938
 Alpha  occ. eigenvalues --   -0.49485  -0.48346  -0.48190  -0.47994  -0.47236
 Alpha  occ. eigenvalues --   -0.46954  -0.46331  -0.45701  -0.44987  -0.44835
 Alpha  occ. eigenvalues --   -0.44385  -0.43614  -0.43393  -0.43167  -0.42839
 Alpha  occ. eigenvalues --   -0.42544  -0.42300  -0.41706  -0.41395  -0.41007
 Alpha  occ. eigenvalues --   -0.40759  -0.40076  -0.39896  -0.39173  -0.38795
 Alpha  occ. eigenvalues --   -0.38205  -0.37579  -0.37257  -0.37096  -0.36619
 Alpha  occ. eigenvalues --   -0.36413  -0.35144  -0.34998  -0.33493  -0.32047
 Alpha  occ. eigenvalues --   -0.31519  -0.30618  -0.30176  -0.29465  -0.28874
 Alpha  occ. eigenvalues --   -0.28498  -0.27548  -0.27361  -0.26362  -0.26143
 Alpha  occ. eigenvalues --   -0.26052  -0.25452  -0.22451  -0.21406
 Alpha virt. eigenvalues --   -0.04779  -0.03709  -0.02722  -0.01847  -0.01217
 Alpha virt. eigenvalues --   -0.00802   0.00844   0.04619   0.05845   0.07419
 Alpha virt. eigenvalues --    0.07874   0.08085   0.09407   0.09479   0.09841

 Mulliken charges:
               1
     1  C   -0.332673
     2  N   -0.642244
     3  S    1.210710
     4  O   -0.538791
     5  O   -0.544626
     6  C   -0.157028
     7  C   -0.151001
     8  C   -0.133053
     9  C   -0.166423
    10  C    0.133238
    11  C   -0.058602
    12  C    0.016665
    13  N   -0.474918
    14  C   -0.262060
    15  C    0.171909
    16  C   -0.188862
    17  C   -0.126754
    18  C   -0.127211
    19  C   -0.128838
    20  C   -0.175898
    21  C    0.489540
    22  N   -0.525503
    23  C   -0.006415
    24  C    0.054396
    25  C   -0.123145
    26  C    0.312160
    27  C   -0.524989
    28  N   -0.232705
    29  O   -0.373261
    30  C    0.386027
    31  C   -0.533075
    32  C   -0.228961
    33  C    0.090333
    34  C   -0.213815
    35  H    0.173558
    36  H    0.155371
    37  H    0.203162
    38  H    0.346936
    39  H    0.175034
    40  H    0.143721
    41  H    0.135359
    42  H    0.162032
    43  H    0.203318
    44  H    0.162848
    45  H    0.123975
    46  H    0.133829
    47  H    0.134666
    48  H    0.136445
    49  H    0.153937
    50  H    0.143575
    51  H    0.169966
    52  H    0.183725
    53  H    0.169430
    54  H    0.175781
    55  H    0.195162
    56  H    0.182804
    57  H    0.166269
    58  H    0.174967
 Sum of Mulliken charges =  -0.00000

 Dipole moment (field-independent basis, Debye):
    X=             -6.1694    Y=             -7.2315    Z=             -0.7410  Tot=              9.5344
 Quadrupole moment (field-independent basis, Debye-Ang):
   XX=           -224.9648   YY=           -203.9483   ZZ=           -187.4864
   XY=             -6.0354   XZ=             -4.1934   YZ=             -5.4161

 Normal termination of Gaussian 16 at Fri Nov  4 11:32:50 2022.
