 Gaussian 16, Revision B.01,
 Gaussian 16:  ES64L-G16RevB.01 20-Dec-2017

 -------------------------------------------------------------------
 #p b3lyp/6-31g(d) 6D 10F nosymm GFInput td=(50-50,nstate=2) SCF=XQC
 -------------------------------------------------------------------

 ------------------------------
 Gaussian input prepared by ASE
 ------------------------------
 Symbolic Z-matrix:
 Charge =  0 Multiplicity = 1

                          Input orientation:
 ---------------------------------------------------------------------
 Center     Atomic      Atomic             Coordinates (Angstroms)
 Number     Number       Type             X           Y           Z
 ---------------------------------------------------------------------
      1          6           0        5.995892   -0.090628    2.086294
      2          7           0        5.111718    1.043560    1.813047
      3         16           0        4.808330    1.478964    0.217733
      4          8           0        3.874496    2.604012    0.300068
      5          8           0        6.112883    1.576941   -0.437974
      6          6           0        3.926550    0.109648   -0.552783
      7          6           0        4.639598   -0.879122   -1.232054
      8          6           0        3.925728   -1.935557   -1.802142
      9          6           0        2.537376   -1.985442   -1.706430
     10          6           0        1.812798   -0.988985   -1.022843
     11          6           0        0.348631   -1.039534   -0.931304
     12          6           0       -0.423020   -2.185617   -0.903839
     13          7           0       -1.763053   -1.881992   -0.832926
     14          6           0       -2.872577   -2.832017   -0.733429
     15          6           0       -3.010939   -3.462247    0.639702
     16          6           0       -2.714812   -4.814426    0.837910
     17          6           0       -2.838154   -5.391965    2.103958
     18          6           0       -3.258868   -4.617469    3.184684
     19          6           0       -3.559540   -3.265597    2.994374
     20          6           0       -3.438497   -2.691772    1.730113
     21          6           0       -1.887412   -0.507256   -0.800625
     22          7           0       -3.042586    0.150547   -0.731479
     23          6           0       -2.935763    1.479668   -0.739930
     24          6           0       -1.713347    2.193060   -0.811365
     25          6           0       -1.711666    3.666289   -0.821920
     26          6           0       -2.452038    4.568724    0.020768
     27          6           0       -3.412737    4.253509    1.127573
     28          7           0       -2.181066    5.823486   -0.254036
     29          8           0       -1.250886    5.789665   -1.301153
     30          6           0       -0.981474    4.508432   -1.622207
     31          6           0       -0.008033    4.293904   -2.730187
     32          6           0       -0.519913    1.460976   -0.875072
     33          6           0       -0.585971    0.062230   -0.865392
     34          6           0        2.537651    0.061065   -0.436128
     35          1           0        6.202866   -0.105860    3.159865
     36          1           0        5.574049   -1.061853    1.789377
     37          1           0        6.936656    0.070606    1.556863
     38          1           0        4.250082    1.063359    2.352499
     39          1           0        5.715933   -0.799760   -1.336886
     40          1           0        4.455853   -2.711136   -2.347942
     41          1           0        1.996717   -2.791246   -2.194997
     42          1           0       -0.104876   -3.219289   -0.900263
     43          1           0       -3.770229   -2.264852   -0.993091
     44          1           0       -2.729195   -3.605764   -1.495104
     45          1           0       -2.391753   -5.423528   -0.004064
     46          1           0       -2.606868   -6.444661    2.243022
     47          1           0       -3.356629   -5.064004    4.170518
     48          1           0       -3.894330   -2.659751    3.832168
     49          1           0       -3.678408   -1.642169    1.579417
     50          1           0       -3.873220    2.029243   -0.704440
     51          1           0       -4.368149    3.880747    0.740799
     52          1           0       -3.611796    5.157558    1.708475
     53          1           0       -3.004963    3.485361    1.793450
     54          1           0       -0.093875    3.276610   -3.120661
     55          1           0        1.024169    4.444234   -2.390352
     56          1           0       -0.196062    5.003211   -3.542740
     57          1           0        0.430249    1.983878   -0.916649
     58          1           0        2.024481    0.844017    0.109733
 ---------------------------------------------------------------------

 SCF Done:  E(RB3LYP) =  -1848.00382949     A.U. after   15 cycles

 Excitation energies and oscillator strengths:

 Excited state symmetry could not be determined.
 Excited State   1:      Triplet-?Sym    2.8895 eV  429.08 nm  f=0.0000  <S**2>=2.000
     117 ->127         0.11417
     123 ->125        -0.24354
     124 ->125         0.59518
     124 ->126        -0.11854
 This state for optimization and/or second-order correction.
 Total Energy, E(TD-HF/TD-DFT) =  -1847.89764069
 Copying the excited state density for this state as the 1-particle RhoCI density.

 Excited state symmetry could not be determined.
 Excited State   2:      Triplet-?Sym    3.4134 eV  363.23 nm  f=0.0000  <S**2>=2.000
     115 ->125        -0.10722
     117 ->125         0.16687
     119 ->126         0.14813
     123 ->125        -0.29639
     123 ->130        -0.12080
     124 ->126         0.36133
     124 ->127         0.32949
     124 ->130        -0.10609

 Excited state symmetry could not be determined.
 Excited State   3:      Singlet-?Sym    3.9756 eV  311.87 nm  f=0.1411  <S**2>=0.000
     123 ->125         0.12074
     124 ->125         0.66675
     124 ->127        -0.13067

 Excited state symmetry could not be determined.
 Excited State   4:      Singlet-?Sym    4.1824 eV  296.44 nm  f=0.0056  <S**2>=0.000
     123 ->125        -0.15316
     124 ->126         0.66288

 Alpha  occ. eigenvalues --  -89.11025 -19.22159 -19.14054 -19.14045 -14.39851
 Alpha  occ. eigenvalues --  -14.37025 -14.36529 -14.34166 -10.25590 -10.25363
 Alpha  occ. eigenvalues --  -10.24543 -10.23759 -10.23060 -10.22990 -10.22841
 Alpha  occ. eigenvalues --  -10.22325 -10.22323 -10.21314 -10.21287 -10.21188
 Alpha  occ. eigenvalues --  -10.21173 -10.21134 -10.21093 -10.20990 -10.20566
 Alpha  occ. eigenvalues --  -10.20480 -10.20315 -10.20162 -10.20084 -10.20031
 Alpha  occ. eigenvalues --  -10.19879 -10.19800 -10.19576 -10.19142  -8.13524
 Alpha  occ. eigenvalues --   -6.10011  -6.09946  -6.09844  -1.12730  -1.10878
 Alpha  occ. eigenvalues --   -1.01422  -1.00033  -0.93910  -0.92499  -0.88243
 Alpha  occ. eigenvalues --   -0.86891  -0.86791  -0.84196  -0.82461  -0.78833
 Alpha  occ. eigenvalues --   -0.78578  -0.77421  -0.75621  -0.75501  -0.74388
 Alpha  occ. eigenvalues --   -0.72079  -0.71660  -0.71599  -0.69605  -0.66059
 Alpha  occ. eigenvalues --   -0.65310  -0.64280  -0.61985  -0.61635  -0.60930
 Alpha  occ. eigenvalues --   -0.59589  -0.58138  -0.57699  -0.55679  -0.54697
 Alpha  occ. eigenvalues --   -0.53084  -0.52257  -0.51553  -0.51411  -0.49938
 Alpha  occ. eigenvalues --   -0.49485  -0.48346  -0.48190  -0.47993  -0.47236
 Alpha  occ. eigenvalues --   -0.46954  -0.46331  -0.45701  -0.44987  -0.44835
 Alpha  occ. eigenvalues --   -0.44385  -0.43614  -0.43393  -0.43167  -0.42838
 Alpha  occ. eigenvalues --   -0.42544  -0.42300  -0.41706  -0.41395  -0.41008
 Alpha  occ. eigenvalues --   -0.40759  -0.40076  -0.39896  -0.39173  -0.38795
 Alpha  occ. eigenvalues --   -0.38205  -0.37579  -0.37257  -0.37097  -0.36619
 Alpha  occ. eigenvalues --   -0.36413  -0.35144  -0.34998  -0.33493  -0.32047
 Alpha  occ. eigenvalues --   -0.31519  -0.30618  -0.30176  -0.29465  -0.28874
 Alpha  occ. eigenvalues --   -0.28498  -0.27548  -0.27361  -0.26362  -0.26143
 Alpha  occ. eigenvalues --   -0.26052  -0.25452  -0.22451  -0.21406
 Alpha virt. eigenvalues --   -0.04779  -0.03709  -0.02722  -0.01847  -0.01217
 Alpha virt. eigenvalues --   -0.00802   0.00844   0.04619   0.05845   0.07419
 Alpha virt. eigenvalues --    0.07875   0.08085   0.09407   0.09479   0.09841

 Mulliken charges:
               1
     1  C   -0.332680
     2  N   -0.642254
     3  S    1.210782
     4  O   -0.538798
     5  O   -0.544637
     6  C   -0.157052
     7  C   -0.151000
     8  C   -0.133052
     9  C   -0.166426
    10  C    0.133243
    11  C   -0.058606
    12  C    0.016673
    13  N   -0.474921
    14  C   -0.262057
    15  C    0.171915
    16  C   -0.188882
    17  C   -0.126747
    18  C   -0.127203
    19  C   -0.128852
    20  C   -0.175890
    21  C    0.489512
    22  N   -0.525491
    23  C   -0.006406
    24  C    0.054380
    25  C   -0.123150
    26  C    0.312160
    27  C   -0.524986
    28  N   -0.232695
    29  O   -0.373269
    30  C    0.386047
    31  C   -0.533082
    32  C   -0.228972
    33  C    0.090357
    34  C   -0.213826
    35  H    0.173559
    36  H    0.155371
    37  H    0.203163
    38  H    0.346936
    39  H    0.175031
    40  H    0.143720
    41  H    0.135359
    42  H    0.162035
    43  H    0.203317
    44  H    0.162846
    45  H    0.123978
    46  H    0.133829
    47  H    0.134665
    48  H    0.136447
    49  H    0.153937
    50  H    0.143573
    51  H    0.169965
    52  H    0.183724
    53  H    0.169430
    54  H    0.175781
    55  H    0.195163
    56  H    0.182804
    57  H    0.166267
    58  H    0.174966
 Sum of Mulliken charges =  -0.00000

 Dipole moment (field-independent basis, Debye):
    X=             -1.5201    Y=             -9.3232    Z=              1.2939  Tot=              9.5345
 Quadrupole moment (field-independent basis, Debye-Ang):
   XX=           -214.6347   YY=           -221.9062   ZZ=           -186.3169
   XY=            -14.6874   XZ=              3.1361   YZ=              1.1673

 Normal termination of Gaussian 16 at Sat Nov  5 10:24:41 2022.
