 Gaussian 16, Revision B.01,
 Gaussian 16:  ES64L-G16RevB.01 20-Dec-2017

 -----------------------------
 #p b3lyp/6-31g(d) opt SCF=XQC
 -----------------------------

 ------------------------------
 Gaussian input prepared by ASE
 ------------------------------
 Symbolic Z-matrix:
 Charge =  0 Multiplicity = 1

 SCF Done:  E(RB3LYP) =  -2516.10103887     A.U. after   15 cycles
 SCF Done:  E(RB3LYP) =  -2516.11455454     A.U. after   12 cycles
 SCF Done:  E(RB3LYP) =  -2516.11531543     A.U. after   12 cycles
 SCF Done:  E(RB3LYP) =  -2516.11565563     A.U. after   11 cycles
 SCF Done:  E(RB3LYP) =  -2516.11577014     A.U. after   11 cycles
 SCF Done:  E(RB3LYP) =  -2516.11585332     A.U. after   11 cycles
 SCF Done:  E(RB3LYP) =  -2516.11591926     A.U. after   11 cycles
 SCF Done:  E(RB3LYP) =  -2516.11602420     A.U. after   11 cycles
 SCF Done:  E(RB3LYP) =  -2516.08257208     A.U. after   15 cycles
 SCF Done:  E(RB3LYP) =  -2516.11720708     A.U. after   13 cycles
 SCF Done:  E(RB3LYP) =  -2516.11829236     A.U. after   11 cycles
 SCF Done:  E(RB3LYP) =  -2516.11831809     A.U. after   11 cycles
 SCF Done:  E(RB3LYP) =  -2516.11833764     A.U. after   11 cycles
 SCF Done:  E(RB3LYP) =  -2516.11834477     A.U. after   10 cycles
 SCF Done:  E(RB3LYP) =  -2516.11834639     A.U. after    9 cycles
 SCF Done:  E(RB3LYP) =  -2516.11834665     A.U. after    7 cycles
 SCF Done:  E(RB3LYP) =  -2516.11834672     A.U. after    7 cycles
 SCF Done:  E(RB3LYP) =  -2516.11834672     A.U. after    6 cycles
 SCF Done:  E(RB3LYP) =  -2516.11834672     A.U. after    6 cycles
 SCF Done:  E(RB3LYP) =  -2516.11834672     A.U. after    6 cycles
 Optimization completed.
    -- Stationary point found.

                         Standard orientation:
 ---------------------------------------------------------------------
 Center     Atomic      Atomic             Coordinates (Angstroms)
 Number     Number       Type             X           Y           Z
 ---------------------------------------------------------------------
      1          6           0        6.388447   -3.895840   -0.661047
      2          6           0        5.556493   -2.746621   -0.146350
      3          6           0        5.950648   -1.458328   -0.288353
      4          6           0        7.319392   -1.013698   -0.681511
      5          6           0        8.456967   -1.486464   -0.006611
      6          6           0        9.731518   -1.042389   -0.356815
      7          6           0        9.893211   -0.107798   -1.381667
      8          6           0        8.770861    0.380716   -2.052978
      9          6           0        7.496217   -0.064779   -1.703541
     10          7           0        5.085122   -0.363827   -0.067283
     11          6           0        3.709608   -0.240091   -0.237453
     12          6           0        3.211424    1.157700   -0.013346
     13          6           0        3.842620    2.062479    0.854392
     14          6           0        3.340412    3.348718    1.038457
     15          6           0        2.202250    3.781991    0.345379
     16          6           0        1.554942    2.864223   -0.505370
     17          6           0        2.045483    1.575582   -0.671301
     18          6           0        0.347264    3.364854   -1.252468
     19          8           0       -0.433753    4.268024   -0.460413
     20          6           0        0.265000    5.302390    0.102371
     21          6           0       -0.420436    6.511380    0.337967
     22          6           0       -1.853359    6.704770   -0.017175
     23          6           0       -2.723870    7.301701    0.909527
     24          6           0       -4.060667    7.539770    0.590585
     25          6           0       -4.554604    7.186016   -0.665220
     26          6           0       -3.700480    6.591185   -1.596401
     27          6           0       -2.365824    6.350366   -1.276255
     28          6           0        0.294724    7.553978    0.945380
     29          6           0        1.636709    7.413878    1.299448
     30          6           0        2.286402    6.205063    1.078897
     31          6           0        1.608832    5.122656    0.497844
     32          7           0        2.837502   -1.126662   -0.556991
     33          6           0        3.109192   -2.537309   -0.737521
     34          6           0        1.783098   -3.293666   -0.728978
     35          6           0        1.600459   -4.411295   -1.551189
     36          6           0        0.400359   -5.123513   -1.530484
     37          6           0       -0.634172   -4.733864   -0.682295
     38          6           0       -0.469045   -3.604193    0.129964
     39          7           0       -1.529156   -3.182837    0.981181
     40          6           0       -1.447598   -3.011370    2.367779
     41          6           0       -0.364052   -3.215687    3.226077
     42          6           0       -0.561405   -2.988435    4.586466
     43          6           0       -1.807015   -2.571491    5.086659
     44          6           0       -2.885854   -2.380375    4.228281
     45          6           0       -2.714865   -2.603013    2.856962
     46          6           0       -3.600721   -2.520902    1.714757
     47          6           0       -4.946350   -2.164636    1.567820
     48          6           0       -5.494237   -2.176485    0.288263
     49          6           0       -4.711704   -2.531132   -0.841124
     50          6           0       -3.376821   -2.887150   -0.717082
     51          6           0       -2.833820   -2.887236    0.574981
     52          6           0       -5.543905   -2.452555   -2.122195
     53          6           0       -4.969086   -1.405729   -3.102850
     54          6           0       -5.637916   -3.828900   -2.818029
     55          6           0       -6.900999   -2.012839   -1.572639
     56          6           0       -8.082327   -1.770052   -2.263934
     57          6           0       -9.221133   -1.370075   -1.553811
     58          6           0       -9.170752   -1.216196   -0.164736
     59          6           0       -7.986606   -1.458625    0.535510
     60          6           0       -6.850713   -1.857828   -0.172670
     61          6           0        0.731586   -2.887250    0.099243
     62          6           0        4.155873   -3.050216    0.351972
     63          6           0        3.961250   -4.507904    0.795670
     64          1           0        7.315429   -3.560922   -1.128294
     65          1           0        5.824169   -4.460498   -1.418300
     66          1           0        6.645409   -4.614510    0.127194
     67          1           0        8.331995   -2.194802    0.807148
     68          1           0       10.598601   -1.417824    0.180111
     69          1           0       10.886269    0.240982   -1.651621
     70          1           0        8.886997    1.106639   -2.853366
     71          1           0        6.627514    0.310342   -2.238413
     72          1           0        5.566974    0.516846    0.048817
     73          1           0        4.702795    1.754108    1.443006
     74          1           0        3.826545    4.006107    1.752528
     75          1           0        1.536629    0.864347   -1.314384
     76          1           0       -0.329524    2.550729   -1.520984
     77          1           0        0.649838    3.882400   -2.178389
     78          1           0       -2.350614    7.562665    1.896209
     79          1           0       -4.716815    7.995706    1.327514
     80          1           0       -5.596173    7.368528   -0.915961
     81          1           0       -4.074628    6.314639   -2.578804
     82          1           0       -1.711213    5.891922   -2.009251
     83          1           0       -0.209859    8.502367    1.105981
     84          1           0        2.172649    8.249076    1.740846
     85          1           0        3.332268    6.097919    1.350846
     86          1           0        3.567295   -2.718876   -1.719989
     87          1           0        2.400273   -4.722094   -2.219933
     88          1           0        0.271957   -5.990284   -2.173362
     89          1           0       -1.563139   -5.293846   -0.641707
     90          1           0        0.598802   -3.542074    2.847461
     91          1           0        0.267550   -3.138629    5.273022
     92          1           0       -1.927376   -2.399912    6.152606
     93          1           0       -3.850832   -2.065501    4.617214
     94          1           0       -5.541204   -1.881799    2.432782
     95          1           0       -2.771909   -3.150678   -1.579207
     96          1           0       -5.608959   -1.311537   -3.988200
     97          1           0       -3.968142   -1.699171   -3.440650
     98          1           0       -4.894937   -0.422105   -2.628317
     99          1           0       -4.648389   -4.162973   -3.151871
    100          1           0       -6.288994   -3.774933   -3.698518
    101          1           0       -6.043604   -4.585878   -2.139195
    102          1           0       -8.129839   -1.887114   -3.344463
    103          1           0      -10.149327   -1.178083   -2.085606
    104          1           0      -10.061151   -0.904957    0.375549
    105          1           0       -7.954779   -1.336808    1.615441
    106          1           0        0.841765   -1.985782    0.692262
    107          1           0        3.963673   -2.423905    1.232642
    108          1           0        2.972258   -4.643290    1.240754
    109          1           0        4.707631   -4.777912    1.551181
    110          1           0        4.046450   -5.220466   -0.030870
 ---------------------------------------------------------------------

 The electronic state is 1-A.
 Alpha  occ. eigenvalues --  -19.17393 -14.37379 -14.37352 -14.30294 -10.26607
 Alpha  occ. eigenvalues --  -10.24838 -10.24646 -10.23018 -10.22989 -10.22088
 Alpha  occ. eigenvalues --  -10.21750 -10.21552 -10.21014 -10.20583 -10.20530
 Alpha  occ. eigenvalues --  -10.20170 -10.20139 -10.20106 -10.20075 -10.20051
 Alpha  occ. eigenvalues --  -10.20046 -10.20035 -10.19888 -10.19834 -10.19728
 Alpha  occ. eigenvalues --  -10.19711 -10.19648 -10.19317 -10.19284 -10.19250
 Alpha  occ. eigenvalues --  -10.19241 -10.19232 -10.19207 -10.19080 -10.18997
 Alpha  occ. eigenvalues --  -10.18833 -10.18586 -10.18452 -10.18368 -10.18299
 Alpha  occ. eigenvalues --  -10.18253 -10.18209 -10.18197 -10.18167 -10.18113
 Alpha  occ. eigenvalues --  -10.18107 -10.18060 -10.18048 -10.18041 -10.18032
 Alpha  occ. eigenvalues --  -10.18029 -10.17956 -10.17920 -10.17914 -10.17890
 Alpha  occ. eigenvalues --  -10.17816 -10.17795 -10.17729 -10.17718 -10.17578
 Alpha  occ. eigenvalues --  -10.17384 -10.17289 -10.17216  -1.06422  -0.98090
 Alpha  occ. eigenvalues --   -0.97351  -0.89664  -0.87574  -0.87160  -0.86430
 Alpha  occ. eigenvalues --   -0.85997  -0.85790  -0.84066  -0.83417  -0.83001
 Alpha  occ. eigenvalues --   -0.82424  -0.80337  -0.79104  -0.77635  -0.77351
 Alpha  occ. eigenvalues --   -0.76932  -0.76503  -0.75983  -0.75647  -0.75412
 Alpha  occ. eigenvalues --   -0.74360  -0.73972  -0.73523  -0.73075  -0.72739
 Alpha  occ. eigenvalues --   -0.72327  -0.71753  -0.70480  -0.70197  -0.69370
 Alpha  occ. eigenvalues --   -0.67936  -0.67864  -0.67360  -0.65061  -0.64750
 Alpha  occ. eigenvalues --   -0.63674  -0.62670  -0.62261  -0.61626  -0.61119
 Alpha  occ. eigenvalues --   -0.60686  -0.60037  -0.59686  -0.59522  -0.59233
 Alpha  occ. eigenvalues --   -0.57372  -0.57040  -0.56665  -0.56241  -0.56213
 Alpha  occ. eigenvalues --   -0.55703  -0.54777  -0.54216  -0.53075  -0.53021
 Alpha  occ. eigenvalues --   -0.52125  -0.51339  -0.50834  -0.50824  -0.49845
 Alpha  occ. eigenvalues --   -0.49571  -0.49342  -0.48876  -0.48797  -0.47252
 Alpha  occ. eigenvalues --   -0.47102  -0.46691  -0.46655  -0.45969  -0.45827
 Alpha  occ. eigenvalues --   -0.45480  -0.45172  -0.44918  -0.44875  -0.44125
 Alpha  occ. eigenvalues --   -0.43963  -0.43557  -0.43505  -0.43279  -0.43211
 Alpha  occ. eigenvalues --   -0.43000  -0.42773  -0.42713  -0.42563  -0.42170
 Alpha  occ. eigenvalues --   -0.42026  -0.41910  -0.41863  -0.41813  -0.41765
 Alpha  occ. eigenvalues --   -0.41354  -0.41161  -0.40882  -0.40411  -0.39972
 Alpha  occ. eigenvalues --   -0.39671  -0.39483  -0.39018  -0.38438  -0.38362
 Alpha  occ. eigenvalues --   -0.38338  -0.38108  -0.37653  -0.37487  -0.37256
 Alpha  occ. eigenvalues --   -0.37147  -0.36928  -0.36819  -0.36407  -0.36137
 Alpha  occ. eigenvalues --   -0.35937  -0.35839  -0.35398  -0.35278  -0.35215
 Alpha  occ. eigenvalues --   -0.34959  -0.34554  -0.34053  -0.33934  -0.33808
 Alpha  occ. eigenvalues --   -0.33722  -0.33541  -0.33405  -0.33361  -0.32664
 Alpha  occ. eigenvalues --   -0.32587  -0.32406  -0.31329  -0.30926  -0.30881
 Alpha  occ. eigenvalues --   -0.29949  -0.29702  -0.27590  -0.27205  -0.26224
 Alpha  occ. eigenvalues --   -0.25962  -0.25857  -0.25554  -0.25183  -0.25036
 Alpha  occ. eigenvalues --   -0.24289  -0.24153  -0.23884  -0.23488  -0.22481
 Alpha  occ. eigenvalues --   -0.21675  -0.20863  -0.20285  -0.19953  -0.18097
 Alpha virt. eigenvalues --   -0.04844  -0.02793  -0.02252  -0.01825  -0.01385
 Alpha virt. eigenvalues --   -0.01243  -0.00816  -0.00508  -0.00393   0.00840
 Alpha virt. eigenvalues --    0.00947   0.01122   0.02733   0.02850   0.04482

 Mulliken charges:
               1
     1  C   -0.527551
     2  C    0.106039
     3  C    0.228096
     4  C    0.046062
     5  C   -0.161746
     6  C   -0.132759
     7  C   -0.125517
     8  C   -0.132270
     9  C   -0.174272
    10  N   -0.710930
    11  C    0.462779
    12  C    0.099613
    13  C   -0.206736
    14  C   -0.194844
    15  C    0.114489
    16  C    0.083696
    17  C   -0.232392
    18  C   -0.116997
    19  O   -0.520376
    20  C    0.249438
    21  C    0.029918
    22  C    0.097676
    23  C   -0.168486
    24  C   -0.134926
    25  C   -0.125132
    26  C   -0.138035
    27  C   -0.142489
    28  C   -0.185080
    29  C   -0.135892
    30  C   -0.198338
    31  C    0.071689
    32  N   -0.489294
    33  C   -0.043540
    34  C    0.143440
    35  C   -0.177825
    36  C   -0.145229
    37  C   -0.152788
    38  C    0.263588
    39  N   -0.742900
    40  C    0.315524
    41  C   -0.175448
    42  C   -0.142780
    43  C   -0.144866
    44  C   -0.196489
    45  C    0.052852
    46  C    0.064887
    47  C   -0.274149
    48  C    0.075650
    49  C    0.093074
    50  C   -0.262067
    51  C    0.325051
    52  C   -0.063038
    53  C   -0.436800
    54  C   -0.436637
    55  C    0.100746
    56  C   -0.204274
    57  C   -0.133998
    58  C   -0.136349
    59  C   -0.193502
    60  C    0.078366
    61  C   -0.195872
    62  C   -0.164283
    63  C   -0.467236
    64  H    0.166891
    65  H    0.150901
    66  H    0.154978
    67  H    0.141041
    68  H    0.135943
    69  H    0.135335
    70  H    0.136491
    71  H    0.140434
    72  H    0.329489
    73  H    0.134433
    74  H    0.136776
    75  H    0.156610
    76  H    0.172018
    77  H    0.150397
    78  H    0.130866
    79  H    0.127935
    80  H    0.127530
    81  H    0.127506
    82  H    0.129679
    83  H    0.136077
    84  H    0.128515
    85  H    0.130316
    86  H    0.140344
    87  H    0.120888
    88  H    0.132579
    89  H    0.147240
    90  H    0.138532
    91  H    0.122921
    92  H    0.121173
    93  H    0.127495
    94  H    0.130055
    95  H    0.137599
    96  H    0.141076
    97  H    0.142484
    98  H    0.158418
    99  H    0.140738
   100  H    0.141790
   101  H    0.156288
   102  H    0.119980
   103  H    0.122211
   104  H    0.123661
   105  H    0.125155
   106  H    0.164101
   107  H    0.151482
   108  H    0.162471
   109  H    0.145471
   110  H    0.147147
 Sum of Mulliken charges =  -0.00000

 Dipole moment (field-independent basis, Debye):
    X=              5.9293    Y=              0.2400    Z=             -1.6398  Tot=              6.1566
 Quadrupole moment (field-independent basis, Debye-Ang):
   XX=           -317.8726   YY=           -353.4266   ZZ=           -346.4128
   XY=             -6.2303   XZ=              4.3534   YZ=              9.0378

 Normal termination of Gaussian 16 at Sat Nov  5 02:03:30 2022.
