 Gaussian 16, Revision B.01,
 Gaussian 16:  ES64L-G16RevB.01 20-Dec-2017

 -------------------------------------------------------------------
 #p b3lyp/6-31g(d) 6D 10F nosymm GFInput td=(50-50,nstate=2) SCF=XQC
 -------------------------------------------------------------------

 ------------------------------
 Gaussian input prepared by ASE
 ------------------------------
 Symbolic Z-matrix:
 Charge =  0 Multiplicity = 1

                          Input orientation:
 ---------------------------------------------------------------------
 Center     Atomic      Atomic             Coordinates (Angstroms)
 Number     Number       Type             X           Y           Z
 ---------------------------------------------------------------------
      1          6           0        0.696056   -7.063426   -2.030813
      2          6           0        1.005370   -5.896473   -1.125102
      3          6           0        2.277971   -5.536200   -0.831998
      4          6           0        3.491119   -6.362878   -1.097712
      5          6           0        3.567864   -7.697307   -0.665871
      6          6           0        4.717000   -8.455217   -0.888099
      7          6           0        5.817009   -7.890264   -1.536740
      8          6           0        5.760161   -6.561249   -1.960366
      9          6           0        4.610058   -5.803819   -1.739340
     10          7           0        2.603744   -4.305463   -0.219543
     11          6           0        1.985426   -3.060770   -0.288291
     12          6           0        2.753032   -1.981597    0.417681
     13          6           0        3.585202   -2.233573    1.519500
     14          6           0        4.273220   -1.199281    2.149876
     15          6           0        4.169828    0.119430    1.687483
     16          6           0        3.313965    0.374495    0.597750
     17          6           0        2.612763   -0.655253   -0.016005
     18          6           0        3.239642    1.797157    0.110120
     19          8           0        3.309099    2.735929    1.190369
     20          6           0        4.362155    2.560095    2.047719
     21          6           0        4.874077    3.696243    2.706573
     22          6           0        4.328226    5.064425    2.489968
     23          6           0        4.070622    5.892149    3.595140
     24          6           0        3.603586    7.195280    3.424397
     25          6           0        3.385588    7.698510    2.141666
     26          6           0        3.636972    6.886466    1.033587
     27          6           0        4.100332    5.583452    1.204596
     28          6           0        5.930823    3.501265    3.608065
     29          6           0        6.468682    2.236181    3.845103
     30          6           0        5.933108    1.126598    3.201705
     31          6           0        4.858731    1.264257    2.310024
     32          7           0        0.888256   -2.718093   -0.860543
     33          6           0       -0.026460   -3.624820   -1.521960
     34          6           0       -1.359537   -2.909175   -1.725512
     35          6           0       -2.123541   -3.148957   -2.873241
     36          6           0       -3.355293   -2.518272   -3.054747
     37          6           0       -3.846332   -1.642789   -2.088355
     38          6           0       -3.079867   -1.380128   -0.945233
     39          7           0       -3.560849   -0.467837    0.035750
     40          6           0       -3.749776   -0.749344    1.393603
     41          6           0       -3.539949   -1.941654    2.091359
     42          6           0       -3.832238   -1.956914    3.453558
     43          6           0       -4.325860   -0.816281    4.109967
     44          6           0       -4.543478    0.365393    3.407456
     45          6           0       -4.259226    0.407320    2.037506
     46          6           0       -4.380446    1.434424    1.024354
     47          6           0       -4.804918    2.767865    1.055857
     48          6           0       -4.776642    3.495622   -0.130379
     49          6           0       -4.322545    2.908763   -1.339941
     50          6           0       -3.897725    1.589363   -1.392480
     51          6           0       -3.941455    0.856866   -0.198406
     52          6           0       -4.379865    3.919575   -2.486609
     53          6           0       -2.974413    4.188432   -3.070018
     54          6           0       -5.332642    3.446574   -3.607249
     55          6           0       -4.930368    5.153877   -1.772107
     56          6           0       -5.208444    6.410915   -2.296417
     57          6           0       -5.712266    7.408424   -1.452453
     58          6           0       -5.932986    7.143346   -0.097180
     59          6           0       -5.655453    5.882202    0.435557
     60          6           0       -5.153150    4.887090   -0.406215
     61          6           0       -1.841423   -2.006669   -0.771536
     62          6           0       -0.142140   -4.994139   -0.711285
     63          6           0       -1.518351   -5.672412   -0.786058
     64          1           0        1.597865   -7.562401   -2.387952
     65          1           0        0.139889   -6.717564   -2.914972
     66          1           0        0.061175   -7.815178   -1.545390
     67          1           0        2.722953   -8.131513   -0.139416
     68          1           0        4.757600   -9.484929   -0.542965
     69          1           0        6.713771   -8.479997   -1.706209
     70          1           0        6.610496   -6.113620   -2.467941
     71          1           0        4.567766   -4.773364   -2.082596
     72          1           0        3.534463   -4.282228    0.173481
     73          1           0        3.661132   -3.234540    1.936345
     74          1           0        4.870817   -1.423418    3.027956
     75          1           0        1.941190   -0.455104   -0.845024
     76          1           0        2.294149    2.003193   -0.396374
     77          1           0        4.062168    2.010575   -0.593185
     78          1           0        4.220296    5.500437    4.597698
     79          1           0        3.403914    7.813894    4.295559
     80          1           0        3.019941    8.712813    2.005513
     81          1           0        3.473369    7.270039    0.029751
     82          1           0        4.296127    4.963984    0.336325
     83          1           0        6.357171    4.370224    4.100991
     84          1           0        7.306795    2.120554    4.526143
     85          1           0        6.354958    0.142573    3.383388
     86          1           0        0.345522   -3.885298   -2.522885
     87          1           0       -1.747989   -3.827863   -3.635846
     88          1           0       -3.939094   -2.714120   -3.950232
     89          1           0       -4.813187   -1.164350   -2.208754
     90          1           0       -3.163747   -2.827192    1.590100
     91          1           0       -3.674857   -2.872456    4.017560
     92          1           0       -4.541034   -0.860072    5.173899
     93          1           0       -4.932687    1.244584    3.914542
     94          1           0       -5.141368    3.219335    1.985903
     95          1           0       -3.541227    1.138761   -2.313615
     96          1           0       -3.018381    4.961231   -3.846551
     97          1           0       -2.562006    3.279146   -3.523034
     98          1           0       -2.283582    4.525617   -2.290752
     99          1           0       -4.959671    2.525195   -4.070035
    100          1           0       -5.415849    4.207114   -4.392572
    101          1           0       -6.335358    3.250440   -3.214179
    102          1           0       -5.039276    6.625383   -3.349455
    103          1           0       -5.932814    8.394262   -1.853315
    104          1           0       -6.324107    7.925752    0.548152
    105          1           0       -5.829390    5.683341    1.490216
    106          1           0       -1.227047   -1.767122    0.089634
    107          1           0        0.011121   -4.705862    0.336662
    108          1           0       -2.291121   -5.015202   -0.379320
    109          1           0       -1.519588   -6.595358   -0.195334
    110          1           0       -1.813315   -5.927422   -1.808866
 ---------------------------------------------------------------------

 SCF Done:  E(RB3LYP) =  -2516.11834635     A.U. after   15 cycles

 Excitation energies and oscillator strengths:

 Excited state symmetry could not be determined.
 Excited State   1:      Triplet-?Sym    2.7830 eV  445.51 nm  f=0.0000  <S**2>=2.000
     211 -> 216        0.33670
     212 -> 216        0.47122
     212 -> 219       -0.11071
     213 -> 216       -0.22328
     213 -> 217       -0.12074
 This state for optimization and/or second-order correction.
 Total Energy, E(TD-HF/TD-DFT) =  -2516.01607479
 Copying the excited state density for this state as the 1-particle RhoCI density.

 Excited state symmetry could not be determined.
 Excited State   2:      Triplet-?Sym    2.9071 eV  426.48 nm  f=0.0000  <S**2>=2.000
     209 -> 227       -0.11063
     210 -> 218        0.19063
     214 -> 218       -0.18508
     214 -> 220       -0.18788
     215 -> 218        0.42102
     215 -> 220       -0.33954
     215 -> 223       -0.16528

 Excited state symmetry could not be determined.
 Excited State   3:      Singlet-?Sym    3.2753 eV  378.54 nm  f=0.0003  <S**2>=0.000
     215 -> 216        0.70543

 Excited state symmetry could not be determined.
 Excited State   4:      Singlet-?Sym    3.6971 eV  335.35 nm  f=0.0675  <S**2>=0.000
     212 -> 216        0.14050
     213 -> 216        0.65058
     214 -> 216       -0.20360

 Alpha  occ. eigenvalues --  -19.17393 -14.37379 -14.37352 -14.30294 -10.26607
 Alpha  occ. eigenvalues --  -10.24838 -10.24646 -10.23018 -10.22989 -10.22088
 Alpha  occ. eigenvalues --  -10.21750 -10.21552 -10.21014 -10.20583 -10.20530
 Alpha  occ. eigenvalues --  -10.20170 -10.20139 -10.20106 -10.20075 -10.20051
 Alpha  occ. eigenvalues --  -10.20046 -10.20035 -10.19888 -10.19834 -10.19728
 Alpha  occ. eigenvalues --  -10.19711 -10.19648 -10.19317 -10.19284 -10.19250
 Alpha  occ. eigenvalues --  -10.19241 -10.19232 -10.19207 -10.19080 -10.18997
 Alpha  occ. eigenvalues --  -10.18833 -10.18586 -10.18452 -10.18368 -10.18299
 Alpha  occ. eigenvalues --  -10.18253 -10.18209 -10.18197 -10.18167 -10.18113
 Alpha  occ. eigenvalues --  -10.18107 -10.18060 -10.18048 -10.18041 -10.18032
 Alpha  occ. eigenvalues --  -10.18029 -10.17956 -10.17920 -10.17914 -10.17890
 Alpha  occ. eigenvalues --  -10.17816 -10.17795 -10.17730 -10.17718 -10.17578
 Alpha  occ. eigenvalues --  -10.17384 -10.17289 -10.17216  -1.06422  -0.98090
 Alpha  occ. eigenvalues --   -0.97351  -0.89664  -0.87574  -0.87160  -0.86430
 Alpha  occ. eigenvalues --   -0.85997  -0.85790  -0.84066  -0.83417  -0.83001
 Alpha  occ. eigenvalues --   -0.82424  -0.80337  -0.79104  -0.77635  -0.77351
 Alpha  occ. eigenvalues --   -0.76932  -0.76503  -0.75983  -0.75647  -0.75412
 Alpha  occ. eigenvalues --   -0.74359  -0.73972  -0.73523  -0.73075  -0.72739
 Alpha  occ. eigenvalues --   -0.72327  -0.71753  -0.70480  -0.70197  -0.69370
 Alpha  occ. eigenvalues --   -0.67936  -0.67864  -0.67360  -0.65061  -0.64750
 Alpha  occ. eigenvalues --   -0.63674  -0.62670  -0.62261  -0.61627  -0.61119
 Alpha  occ. eigenvalues --   -0.60686  -0.60037  -0.59686  -0.59522  -0.59233
 Alpha  occ. eigenvalues --   -0.57372  -0.57040  -0.56665  -0.56241  -0.56213
 Alpha  occ. eigenvalues --   -0.55703  -0.54777  -0.54216  -0.53075  -0.53021
 Alpha  occ. eigenvalues --   -0.52125  -0.51339  -0.50834  -0.50824  -0.49845
 Alpha  occ. eigenvalues --   -0.49571  -0.49342  -0.48877  -0.48797  -0.47252
 Alpha  occ. eigenvalues --   -0.47102  -0.46691  -0.46655  -0.45969  -0.45827
 Alpha  occ. eigenvalues --   -0.45480  -0.45172  -0.44918  -0.44875  -0.44125
 Alpha  occ. eigenvalues --   -0.43963  -0.43557  -0.43505  -0.43279  -0.43211
 Alpha  occ. eigenvalues --   -0.43000  -0.42773  -0.42713  -0.42563  -0.42170
 Alpha  occ. eigenvalues --   -0.42026  -0.41910  -0.41863  -0.41813  -0.41765
 Alpha  occ. eigenvalues --   -0.41354  -0.41161  -0.40882  -0.40411  -0.39972
 Alpha  occ. eigenvalues --   -0.39671  -0.39483  -0.39018  -0.38438  -0.38362
 Alpha  occ. eigenvalues --   -0.38338  -0.38108  -0.37653  -0.37487  -0.37256
 Alpha  occ. eigenvalues --   -0.37147  -0.36928  -0.36819  -0.36407  -0.36137
 Alpha  occ. eigenvalues --   -0.35937  -0.35839  -0.35398  -0.35278  -0.35215
 Alpha  occ. eigenvalues --   -0.34959  -0.34554  -0.34053  -0.33934  -0.33808
 Alpha  occ. eigenvalues --   -0.33722  -0.33541  -0.33405  -0.33361  -0.32664
 Alpha  occ. eigenvalues --   -0.32587  -0.32406  -0.31329  -0.30926  -0.30880
 Alpha  occ. eigenvalues --   -0.29949  -0.29702  -0.27590  -0.27205  -0.26224
 Alpha  occ. eigenvalues --   -0.25962  -0.25857  -0.25554  -0.25183  -0.25036
 Alpha  occ. eigenvalues --   -0.24290  -0.24153  -0.23884  -0.23488  -0.22481
 Alpha  occ. eigenvalues --   -0.21675  -0.20863  -0.20285  -0.19953  -0.18097
 Alpha virt. eigenvalues --   -0.04844  -0.02793  -0.02252  -0.01825  -0.01385
 Alpha virt. eigenvalues --   -0.01243  -0.00816  -0.00508  -0.00393   0.00840
 Alpha virt. eigenvalues --    0.00947   0.01122   0.02733   0.02850   0.04482

 Mulliken charges:
               1
     1  C   -0.527559
     2  C    0.106052
     3  C    0.228097
     4  C    0.046055
     5  C   -0.161744
     6  C   -0.132762
     7  C   -0.125516
     8  C   -0.132272
     9  C   -0.174267
    10  N   -0.710935
    11  C    0.462782
    12  C    0.099614
    13  C   -0.206733
    14  C   -0.194850
    15  C    0.114494
    16  C    0.083697
    17  C   -0.232381
    18  C   -0.116996
    19  O   -0.520378
    20  C    0.249459
    21  C    0.029920
    22  C    0.097672
    23  C   -0.168488
    24  C   -0.134928
    25  C   -0.125129
    26  C   -0.138037
    27  C   -0.142488
    28  C   -0.185079
    29  C   -0.135892
    30  C   -0.198333
    31  C    0.071662
    32  N   -0.489299
    33  C   -0.043528
    34  C    0.143440
    35  C   -0.177834
    36  C   -0.145225
    37  C   -0.152792
    38  C    0.263595
    39  N   -0.742890
    40  C    0.315521
    41  C   -0.175455
    42  C   -0.142786
    43  C   -0.144864
    44  C   -0.196481
    45  C    0.052851
    46  C    0.064882
    47  C   -0.274131
    48  C    0.075626
    49  C    0.093020
    50  C   -0.262023
    51  C    0.325043
    52  C   -0.063015
    53  C   -0.436800
    54  C   -0.436638
    55  C    0.100769
    56  C   -0.204273
    57  C   -0.134007
    58  C   -0.136339
    59  C   -0.193504
    60  C    0.078354
    61  C   -0.195875
    62  C   -0.164292
    63  C   -0.467231
    64  H    0.166892
    65  H    0.150899
    66  H    0.154978
    67  H    0.141042
    68  H    0.135943
    69  H    0.135335
    70  H    0.136492
    71  H    0.140431
    72  H    0.329490
    73  H    0.134433
    74  H    0.136776
    75  H    0.156607
    76  H    0.172018
    77  H    0.150397
    78  H    0.130867
    79  H    0.127935
    80  H    0.127530
    81  H    0.127506
    82  H    0.129679
    83  H    0.136077
    84  H    0.128515
    85  H    0.130316
    86  H    0.140341
    87  H    0.120892
    88  H    0.132578
    89  H    0.147239
    90  H    0.138537
    91  H    0.122921
    92  H    0.121173
    93  H    0.127495
    94  H    0.130054
    95  H    0.137596
    96  H    0.141076
    97  H    0.142484
    98  H    0.158416
    99  H    0.140739
   100  H    0.141789
   101  H    0.156287
   102  H    0.119980
   103  H    0.122211
   104  H    0.123660
   105  H    0.125155
   106  H    0.164097
   107  H    0.151479
   108  H    0.162471
   109  H    0.145471
   110  H    0.147146
 Sum of Mulliken charges =  -0.00000

 Dipole moment (field-independent basis, Debye):
    X=              3.9080    Y=             -4.4555    Z=             -1.6680  Tot=              6.1568
 Quadrupole moment (field-independent basis, Debye-Ang):
   XX=           -352.1066   YY=           -324.4803   ZZ=           -342.0272
   XY=            -15.8540   XZ=              5.2029   YZ=              0.9726

 Normal termination of Gaussian 16 at Sat Nov  5 10:54:34 2022.
