 Gaussian 16, Revision B.01,
 Gaussian 16:  ES64L-G16RevB.01 20-Dec-2017

 -----------------------------
 #p b3lyp/6-31g(d) opt SCF=XQC
 -----------------------------

 ------------------------------
 Gaussian input prepared by ASE
 ------------------------------
 Symbolic Z-matrix:
 Charge =  0 Multiplicity = 1

 SCF Done:  E(RB3LYP) =  -1423.62192048     A.U. after   15 cycles
 SCF Done:  E(RB3LYP) =  -1423.62899732     A.U. after   12 cycles
 SCF Done:  E(RB3LYP) =  -1423.62954472     A.U. after   11 cycles
 SCF Done:  E(RB3LYP) =  -1423.62996037     A.U. after   11 cycles
 SCF Done:  E(RB3LYP) =  -1423.63028114     A.U. after   11 cycles
 SCF Done:  E(RB3LYP) =  -1423.63050369     A.U. after   11 cycles
 SCF Done:  E(RB3LYP) =  -1423.63063213     A.U. after   11 cycles
 SCF Done:  E(RB3LYP) =  -1423.63075552     A.U. after   11 cycles
 SCF Done:  E(RB3LYP) =  -1423.63081699     A.U. after   11 cycles
 SCF Done:  E(RB3LYP) =  -1423.63082762     A.U. after    9 cycles
 SCF Done:  E(RB3LYP) =  -1423.63083231     A.U. after    8 cycles
 SCF Done:  E(RB3LYP) =  -1423.63083344     A.U. after    8 cycles
 SCF Done:  E(RB3LYP) =  -1423.63083525     A.U. after   10 cycles
 SCF Done:  E(RB3LYP) =  -1423.63083653     A.U. after    8 cycles
 SCF Done:  E(RB3LYP) =  -1423.63083897     A.U. after    9 cycles
 SCF Done:  E(RB3LYP) =  -1423.63084035     A.U. after    9 cycles
 SCF Done:  E(RB3LYP) =  -1423.63084102     A.U. after    8 cycles
 SCF Done:  E(RB3LYP) =  -1423.63084118     A.U. after    7 cycles
 SCF Done:  E(RB3LYP) =  -1423.63084122     A.U. after    6 cycles
 SCF Done:  E(RB3LYP) =  -1423.63084124     A.U. after    6 cycles
 Optimization completed.
    -- Stationary point found.

                         Standard orientation:
 ---------------------------------------------------------------------
 Center     Atomic      Atomic             Coordinates (Angstroms)
 Number     Number       Type             X           Y           Z
 ---------------------------------------------------------------------
      1          6           0       -9.614982    1.735474    2.008033
      2          6           0       -9.102757    0.559650    1.161415
      3          6           0       -8.316066    0.875716   -0.139253
      4          6           0       -8.870390    2.106131   -0.886192
      5          7           0       -6.854000    0.885786    0.083412
      6          6           0       -6.347016    1.921910    0.975392
      7          6           0       -6.080521    0.810161   -1.155698
      8          6           0       -4.681546    0.253698   -0.952011
      9          6           0       -3.581175    0.809867   -1.611731
     10          6           0       -2.308285    0.263659   -1.472460
     11          6           0       -2.100376   -0.859058   -0.657700
     12          7           0       -0.780449   -1.348022   -0.555137
     13          6           0       -0.316416   -2.468758    0.099950
     14          8           0       -1.046139   -3.270586    0.677503
     15          6           0        1.176273   -2.670947    0.047069
     16          6           0        2.009248   -1.606569    0.108264
     17          6           0        3.470831   -1.508665    0.077631
     18          6           0        4.012104   -0.205672    0.132190
     19          6           0        5.375481    0.073421    0.021118
     20          6           0        5.887358    1.465566    0.079385
     21          6           0        5.179993    2.530449   -0.501909
     22          6           0        5.662634    3.835639   -0.438142
     23          6           0        6.873066    4.133038    0.200883
     24          6           0        7.411224    5.544051    0.239529
     25          6           0        7.579193    3.071770    0.781838
     26          6           0        7.099009    1.765581    0.723525
     27          6           0        6.244622   -1.019196   -0.154257
     28          6           0        5.755358   -2.316699   -0.187067
     29          6           0        4.385929   -2.579983   -0.064305
     30          8           0        4.042569   -3.897481   -0.126600
     31          6           0        2.959816   -4.365511    0.685563
     32          6           0        1.594460   -4.116284    0.065127
     33          6           0       -3.194421   -1.423669    0.018492
     34          6           0       -4.460189   -0.864074   -0.138049
     35          1           0      -10.129862    1.355372    2.898038
     36          1           0       -8.815486    2.399082    2.351528
     37          1           0      -10.334656    2.348278    1.454088
     38          1           0       -8.473495   -0.099689    1.771665
     39          1           0       -9.977249   -0.039023    0.873087
     40          1           0       -8.473951    0.010095   -0.796607
     41          1           0       -8.385123    2.228697   -1.860683
     42          1           0       -8.727654    3.033469   -0.321811
     43          1           0       -9.946055    1.991858   -1.066285
     44          1           0       -5.267785    1.787239    1.093498
     45          1           0       -6.517709    2.952758    0.611920
     46          1           0       -6.798835    1.826111    1.965431
     47          1           0       -6.628420    0.147093   -1.839732
     48          1           0       -6.001274    1.785582   -1.674161
     49          1           0       -3.717500    1.683928   -2.245094
     50          1           0       -1.466673    0.716507   -1.993964
     51          1           0       -0.097247   -0.854920   -1.112879
     52          1           0        1.538404   -0.628160    0.196040
     53          1           0        3.320917    0.620437    0.279673
     54          1           0        4.251090    2.331263   -1.029642
     55          1           0        5.092096    4.637638   -0.901847
     56          1           0        8.061164    5.747076   -0.622474
     57          1           0        6.602960    6.282830    0.216648
     58          1           0        8.006367    5.721665    1.141777
     59          1           0        8.515364    3.272162    1.298676
     60          1           0        7.657172    0.970495    1.210638
     61          1           0        7.310125   -0.847095   -0.275799
     62          1           0        6.421410   -3.164672   -0.311657
     63          1           0        3.024851   -3.911893    1.682572
     64          1           0        3.135914   -5.440235    0.781826
     65          1           0        0.836032   -4.670424    0.631011
     66          1           0        1.585540   -4.533875   -0.951517
     67          1           0       -3.042074   -2.290542    0.645592
     68          1           0       -5.303403   -1.293092    0.395528
 ---------------------------------------------------------------------

 The electronic state is 1-A.
 Alpha  occ. eigenvalues --  -19.17646 -19.11831 -14.37582 -14.31747 -10.29348
 Alpha  occ. eigenvalues --  -10.25398 -10.24466 -10.23210 -10.20988 -10.20968
 Alpha  occ. eigenvalues --  -10.20835 -10.20826 -10.20697 -10.19927 -10.19810
 Alpha  occ. eigenvalues --  -10.19765 -10.19757 -10.19660 -10.19257 -10.19237
 Alpha  occ. eigenvalues --  -10.19056 -10.18961 -10.18952 -10.18920 -10.18782
 Alpha  occ. eigenvalues --  -10.18755 -10.18670 -10.18575 -10.18470 -10.17879
 Alpha  occ. eigenvalues --  -10.17728 -10.17682 -10.17137 -10.17028  -1.06450
 Alpha  occ. eigenvalues --   -1.03654  -0.93998  -0.91358  -0.87075  -0.85160
 Alpha  occ. eigenvalues --   -0.84491  -0.82534  -0.79324  -0.78200  -0.76638
 Alpha  occ. eigenvalues --   -0.75822  -0.74655  -0.74269  -0.74045  -0.71821
 Alpha  occ. eigenvalues --   -0.71797  -0.69059  -0.68391  -0.66950  -0.65955
 Alpha  occ. eigenvalues --   -0.63373  -0.62192  -0.61861  -0.60259  -0.59979
 Alpha  occ. eigenvalues --   -0.59273  -0.57788  -0.56803  -0.55521  -0.54273
 Alpha  occ. eigenvalues --   -0.53585  -0.52324  -0.51081  -0.50885  -0.48358
 Alpha  occ. eigenvalues --   -0.47660  -0.47013  -0.46797  -0.46304  -0.45815
 Alpha  occ. eigenvalues --   -0.45277  -0.44625  -0.44375  -0.43899  -0.43756
 Alpha  occ. eigenvalues --   -0.43160  -0.42998  -0.42375  -0.42133  -0.42011
 Alpha  occ. eigenvalues --   -0.41824  -0.41495  -0.41394  -0.40970  -0.40516
 Alpha  occ. eigenvalues --   -0.39922  -0.39104  -0.39008  -0.38623  -0.38136
 Alpha  occ. eigenvalues --   -0.37930  -0.37883  -0.37181  -0.36820  -0.36551
 Alpha  occ. eigenvalues --   -0.35462  -0.35271  -0.35092  -0.34882  -0.34190
 Alpha  occ. eigenvalues --   -0.33808  -0.33687  -0.33238  -0.32844  -0.31871
 Alpha  occ. eigenvalues --   -0.31404  -0.30585  -0.30095  -0.29629  -0.25484
 Alpha  occ. eigenvalues --   -0.25391  -0.25004  -0.24558  -0.23396  -0.21349
 Alpha  occ. eigenvalues --   -0.20751  -0.20230
 Alpha virt. eigenvalues --   -0.05439  -0.02305  -0.00309  -0.00054   0.00385
 Alpha virt. eigenvalues --    0.01839   0.04104   0.07295   0.07764   0.08243
 Alpha virt. eigenvalues --    0.09831   0.10079   0.10431   0.11158   0.11792

 Mulliken charges:
               1
     1  C   -0.451089
     2  C   -0.273097
     3  C    0.059064
     4  C   -0.464727
     5  N   -0.381104
     6  C   -0.312761
     7  C   -0.199325
     8  C    0.153612
     9  C   -0.193680
    10  C   -0.199098
    11  C    0.358708
    12  N   -0.725488
    13  C    0.571799
    14  O   -0.514288
    15  C    0.054336
    16  C   -0.242488
    17  C    0.169325
    18  C   -0.284354
    19  C    0.103343
    20  C    0.087260
    21  C   -0.171331
    22  C   -0.185762
    23  C    0.181359
    24  C   -0.530507
    25  C   -0.184679
    26  C   -0.174418
    27  C   -0.180019
    28  C   -0.178155
    29  C    0.302135
    30  O   -0.520643
    31  C   -0.067050
    32  C   -0.343696
    33  C   -0.162291
    34  C   -0.183162
    35  H    0.143419
    36  H    0.147583
    37  H    0.145114
    38  H    0.148061
    39  H    0.133116
    40  H    0.125163
    41  H    0.145276
    42  H    0.151270
    43  H    0.142285
    44  H    0.160544
    45  H    0.117375
    46  H    0.154462
    47  H    0.149593
    48  H    0.116512
    49  H    0.122330
    50  H    0.117945
    51  H    0.330953
    52  H    0.133696
    53  H    0.135481
    54  H    0.125739
    55  H    0.122268
    56  H    0.166485
    57  H    0.157183
    58  H    0.157880
    59  H    0.123080
    60  H    0.130714
    61  H    0.137842
    62  H    0.143042
    63  H    0.155816
    64  H    0.158511
    65  H    0.189275
    66  H    0.169362
    67  H    0.183211
    68  H    0.141686
 Sum of Mulliken charges =  -0.00000

 Dipole moment (field-independent basis, Debye):
    X=              1.2185    Y=              2.7045    Z=             -0.9731  Tot=              3.1219
 Quadrupole moment (field-independent basis, Debye-Ang):
   XX=           -179.3948   YY=           -194.5845   ZZ=           -202.0939
   XY=             -2.1612   XZ=              6.4489   YZ=             -2.2808

 Normal termination of Gaussian 16 at Fri Nov  4 23:20:02 2022.
