 Gaussian 16, Revision B.01,
 Gaussian 16:  ES64L-G16RevB.01 20-Dec-2017

 -------------------------------------------------------------------
 #p b3lyp/6-31g(d) 6D 10F nosymm GFInput td=(50-50,nstate=2) SCF=XQC
 -------------------------------------------------------------------

 ------------------------------
 Gaussian input prepared by ASE
 ------------------------------
 Symbolic Z-matrix:
 Charge =  0 Multiplicity = 1

                          Input orientation:
 ---------------------------------------------------------------------
 Center     Atomic      Atomic             Coordinates (Angstroms)
 Number     Number       Type             X           Y           Z
 ---------------------------------------------------------------------
      1          6           0        9.179547   -0.166416   -1.388590
      2          6           0        8.393112   -1.337668   -0.779176
      3          6           0        7.598002   -1.089018    0.530973
      4          6           0        8.330020   -0.138434    1.500330
      5          7           0        6.183981   -0.745333    0.266884
      6          6           0        5.948835    0.505670   -0.444390
      7          6           0        5.329714   -0.867100    1.447893
      8          6           0        3.865972   -1.086061    1.104697
      9          6           0        2.853317   -0.435506    1.816510
     10          6           0        1.510666   -0.680884    1.542531
     11          6           0        1.143130   -1.586638    0.536508
     12          7           0       -0.236866   -1.773326    0.307222
     13          6           0       -0.865311   -2.651677   -0.549557
     14          8           0       -0.268647   -3.477651   -1.235668
     15          6           0       -2.368958   -2.552378   -0.580923
     16          6           0       -2.973017   -1.345946   -0.480294
     17          6           0       -4.386367   -0.959693   -0.479690
     18          6           0       -4.658984    0.416640   -0.321162
     19          6           0       -5.946345    0.944418   -0.206358
     20          6           0       -6.172607    2.401423   -0.034832
     21          6           0       -5.311974    3.188717    0.747295
     22          6           0       -5.526171    4.556790    0.899028
     23          6           0       -6.610289    5.195807    0.283975
     24          6           0       -6.859908    6.673097    0.477287
     25          6           0       -7.469030    4.411694   -0.497142
     26          6           0       -7.257068    3.044063   -0.654496
     27          6           0       -7.021135    0.037489   -0.254106
     28          6           0       -6.796897   -1.319369   -0.434729
     29          6           0       -5.499760   -1.831179   -0.558056
     30          8           0       -5.424162   -3.182594   -0.717862
     31          6           0       -4.401442   -3.719191   -1.564694
     32          6           0       -3.058145   -3.859118   -0.866679
     33          6           0        2.149050   -2.241318   -0.193201
     34          6           0        3.486184   -1.984444    0.099900
     35          1           0        9.668821   -0.489888   -2.314692
     36          1           0        8.549115    0.693401   -1.635226
     37          1           0        9.966113    0.186687   -0.712613
     38          1           0        7.689728   -1.744684   -1.515852
     39          1           0        9.113246   -2.140893   -0.572977
     40          1           0        7.540314   -2.065599    1.030275
     41          1           0        7.814000   -0.083525    2.465134
     42          1           0        8.408340    0.879176    1.103856
     43          1           0        9.348466   -0.497111    1.691812
     44          1           0        4.874344    0.614553   -0.618854
     45          1           0        6.292165    1.405322    0.100262
     46          1           0        6.438366    0.485968   -1.420847
     47          1           0        5.691328   -1.731879    2.021608
     48          1           0        5.407331    0.004080    2.127269
     49          1           0        3.114524    0.274989    2.597974
     50          1           0        0.740357   -0.159620    2.108443
     51          1           0       -0.846735   -1.251414    0.920948
     52          1           0       -2.316068   -0.482878   -0.379228
     53          1           0       -3.812045    1.097912   -0.298615
     54          1           0       -4.476846    2.720146    1.261144
     55          1           0       -4.842737    5.137744    1.514778
     56          1           0       -7.513934    6.857784    1.340323
     57          1           0       -5.926737    7.218011    0.655809
     58          1           0       -7.347637    7.115292   -0.398143
     59          1           0       -8.311763    4.881096   -1.000293
     60          1           0       -7.925486    2.471155   -1.291662
     61          1           0       -8.038496    0.399781   -0.138315
     62          1           0       -7.621966   -2.023040   -0.482846
     63          1           0       -4.310387   -3.102592   -2.467767
     64          1           0       -4.776410   -4.704484   -1.854356
     65          1           0       -2.385987   -4.453855   -1.496760
     66          1           0       -3.198418   -4.432818    0.060262
     67          1           0        1.873145   -2.942662   -0.967749
     68          1           0        4.263500   -2.481033   -0.473641
 ---------------------------------------------------------------------

 SCF Done:  E(RB3LYP) =  -1423.63083419     A.U. after   15 cycles

 Excitation energies and oscillator strengths:

 Excited state symmetry could not be determined.
 Excited State   1:      Triplet-?Sym    2.6320 eV  471.06 nm  f=0.0000  <S**2>=2.000
     119 ->123         0.39871
     121 ->123         0.50917
     121 ->124         0.12489
     122 ->123        -0.10638
 This state for optimization and/or second-order correction.
 Total Energy, E(TD-HF/TD-DFT) =  -1423.53410942
 Copying the excited state density for this state as the 1-particle RhoCI density.

 Excited state symmetry could not be determined.
 Excited State   2:      Triplet-?Sym    3.2036 eV  387.02 nm  f=0.0000  <S**2>=2.000
     118 ->127        -0.17320
     120 ->123         0.49841
     120 ->125         0.15702
     120 ->126         0.17945
     121 ->123        -0.14639
     121 ->124         0.12053
     121 ->125        -0.10036
     121 ->126        -0.10996
     122 ->123         0.23275

 Excited state symmetry could not be determined.
 Excited State   3:      Singlet-?Sym    3.6458 eV  340.07 nm  f=0.2355  <S**2>=0.000
     121 ->123        -0.42327
     122 ->123         0.55312

 Excited state symmetry could not be determined.
 Excited State   4:      Singlet-?Sym    3.7136 eV  333.87 nm  f=0.0671  <S**2>=0.000
     120 ->123         0.10170
     121 ->123         0.53889
     122 ->123         0.42299

 Alpha  occ. eigenvalues --  -19.17646 -19.11831 -14.37582 -14.31747 -10.29348
 Alpha  occ. eigenvalues --  -10.25398 -10.24466 -10.23210 -10.20988 -10.20968
 Alpha  occ. eigenvalues --  -10.20835 -10.20826 -10.20697 -10.19927 -10.19810
 Alpha  occ. eigenvalues --  -10.19765 -10.19757 -10.19660 -10.19257 -10.19237
 Alpha  occ. eigenvalues --  -10.19056 -10.18961 -10.18952 -10.18920 -10.18782
 Alpha  occ. eigenvalues --  -10.18755 -10.18670 -10.18575 -10.18470 -10.17879
 Alpha  occ. eigenvalues --  -10.17728 -10.17682 -10.17137 -10.17028  -1.06450
 Alpha  occ. eigenvalues --   -1.03654  -0.93998  -0.91358  -0.87075  -0.85161
 Alpha  occ. eigenvalues --   -0.84491  -0.82534  -0.79324  -0.78200  -0.76638
 Alpha  occ. eigenvalues --   -0.75822  -0.74655  -0.74269  -0.74045  -0.71821
 Alpha  occ. eigenvalues --   -0.71797  -0.69059  -0.68391  -0.66950  -0.65955
 Alpha  occ. eigenvalues --   -0.63373  -0.62192  -0.61861  -0.60259  -0.59979
 Alpha  occ. eigenvalues --   -0.59273  -0.57788  -0.56803  -0.55521  -0.54273
 Alpha  occ. eigenvalues --   -0.53585  -0.52324  -0.51081  -0.50885  -0.48358
 Alpha  occ. eigenvalues --   -0.47660  -0.47013  -0.46797  -0.46304  -0.45815
 Alpha  occ. eigenvalues --   -0.45277  -0.44625  -0.44375  -0.43899  -0.43756
 Alpha  occ. eigenvalues --   -0.43160  -0.42998  -0.42375  -0.42133  -0.42011
 Alpha  occ. eigenvalues --   -0.41824  -0.41495  -0.41394  -0.40970  -0.40516
 Alpha  occ. eigenvalues --   -0.39922  -0.39104  -0.39008  -0.38623  -0.38136
 Alpha  occ. eigenvalues --   -0.37930  -0.37883  -0.37181  -0.36820  -0.36551
 Alpha  occ. eigenvalues --   -0.35462  -0.35271  -0.35092  -0.34882  -0.34190
 Alpha  occ. eigenvalues --   -0.33808  -0.33687  -0.33238  -0.32844  -0.31871
 Alpha  occ. eigenvalues --   -0.31404  -0.30585  -0.30095  -0.29629  -0.25484
 Alpha  occ. eigenvalues --   -0.25392  -0.25004  -0.24558  -0.23396  -0.21349
 Alpha  occ. eigenvalues --   -0.20751  -0.20230
 Alpha virt. eigenvalues --   -0.05439  -0.02305  -0.00309  -0.00054   0.00385
 Alpha virt. eigenvalues --    0.01839   0.04104   0.07295   0.07764   0.08243
 Alpha virt. eigenvalues --    0.09831   0.10079   0.10431   0.11158   0.11792

 Mulliken charges:
               1
     1  C   -0.451077
     2  C   -0.273112
     3  C    0.059091
     4  C   -0.464725
     5  N   -0.381110
     6  C   -0.312755
     7  C   -0.199318
     8  C    0.153588
     9  C   -0.193673
    10  C   -0.199100
    11  C    0.358711
    12  N   -0.725491
    13  C    0.571798
    14  O   -0.514278
    15  C    0.054317
    16  C   -0.242474
    17  C    0.169337
    18  C   -0.284371
    19  C    0.103335
    20  C    0.087252
    21  C   -0.171324
    22  C   -0.185758
    23  C    0.181352
    24  C   -0.530507
    25  C   -0.184678
    26  C   -0.174412
    27  C   -0.180005
    28  C   -0.178166
    29  C    0.302132
    30  O   -0.520642
    31  C   -0.067057
    32  C   -0.343679
    33  C   -0.162290
    34  C   -0.183161
    35  H    0.143416
    36  H    0.147581
    37  H    0.145109
    38  H    0.148062
    39  H    0.133114
    40  H    0.125160
    41  H    0.145274
    42  H    0.151268
    43  H    0.142281
    44  H    0.160543
    45  H    0.117374
    46  H    0.154461
    47  H    0.149594
    48  H    0.116512
    49  H    0.122330
    50  H    0.117945
    51  H    0.330953
    52  H    0.133695
    53  H    0.135484
    54  H    0.125739
    55  H    0.122268
    56  H    0.166486
    57  H    0.157183
    58  H    0.157880
    59  H    0.123080
    60  H    0.130715
    61  H    0.137842
    62  H    0.143043
    63  H    0.155817
    64  H    0.158511
    65  H    0.189274
    66  H    0.169361
    67  H    0.183210
    68  H    0.141689
 Sum of Mulliken charges =  -0.00000

 Dipole moment (field-independent basis, Debye):
    X=             -0.7314    Y=              2.6955    Z=              1.3947  Tot=              3.1219
 Quadrupole moment (field-independent basis, Debye-Ang):
   XX=           -179.1226   YY=           -196.5040   ZZ=           -200.6905
   XY=             -4.0571   XZ=              7.0000   YZ=              1.5133

 Normal termination of Gaussian 16 at Sat Nov  5 10:01:25 2022.
