 Gaussian 16, Revision B.01,
 Gaussian 16:  ES64L-G16RevB.01 20-Dec-2017

 -----------------------------
 #p b3lyp/6-31g(d) opt SCF=XQC
 -----------------------------

 ------------------------------
 Gaussian input prepared by ASE
 ------------------------------
 Symbolic Z-matrix:
 Charge =  0 Multiplicity = 1

 SCF Done:  E(RB3LYP) =  -1477.02352816     A.U. after   17 cycles
 SCF Done:  E(RB3LYP) =  -1477.03093324     A.U. after   13 cycles
 SCF Done:  E(RB3LYP) =  -1477.03140077     A.U. after   12 cycles
 SCF Done:  E(RB3LYP) =  -1477.03157174     A.U. after   12 cycles
 SCF Done:  E(RB3LYP) =  -1477.03165106     A.U. after   11 cycles
 SCF Done:  E(RB3LYP) =  -1477.03177217     A.U. after   12 cycles
 SCF Done:  E(RB3LYP) =  -1477.03184488     A.U. after   12 cycles
 SCF Done:  E(RB3LYP) =  -1477.03190821     A.U. after   11 cycles
 SCF Done:  E(RB3LYP) =  -1477.03192672     A.U. after   11 cycles
 SCF Done:  E(RB3LYP) =  -1477.03193690     A.U. after   11 cycles
 SCF Done:  E(RB3LYP) =  -1477.03195339     A.U. after    7 cycles
 SCF Done:  E(RB3LYP) =  -1477.03195347     A.U. after    7 cycles
 SCF Done:  E(RB3LYP) =  -1477.03195351     A.U. after    6 cycles
 SCF Done:  E(RB3LYP) =  -1477.03195356     A.U. after    7 cycles
 SCF Done:  E(RB3LYP) =  -1477.03195362     A.U. after    7 cycles
 SCF Done:  E(RB3LYP) =  -1477.03195368     A.U. after    7 cycles
 SCF Done:  E(RB3LYP) =  -1477.03195373     A.U. after    6 cycles
 SCF Done:  E(RB3LYP) =  -1477.03195376     A.U. after    6 cycles
 SCF Done:  E(RB3LYP) =  -1477.03195378     A.U. after    7 cycles
 SCF Done:  E(RB3LYP) =  -1477.03195378     A.U. after    6 cycles
 Optimization completed.
    -- Stationary point found.

                         Standard orientation:
 ---------------------------------------------------------------------
 Center     Atomic      Atomic             Coordinates (Angstroms)
 Number     Number       Type             X           Y           Z
 ---------------------------------------------------------------------
      1          6           0       -3.636992    7.121832    0.410562
      2          6           0       -2.979445    5.822453    0.841813
      3          8           0       -2.898313    4.979950   -0.307217
      4          6           0       -2.329925    3.746869   -0.180126
      5          6           0       -2.268112    2.979215   -1.352636
      6          6           0       -1.714119    1.706447   -1.326036
      7          6           0       -1.207668    1.165572   -0.136488
      8          6           0       -0.574476   -0.221319   -0.137324
      9          6           0        0.938260   -0.207652   -0.145452
     10          6           0        1.392782   -0.880963    0.932083
     11          8           0        2.671384   -1.082460    1.271583
     12          6           0        3.623208   -0.540474    0.426945
     13          6           0        4.962417   -0.745284    0.804203
     14          6           0        5.297401   -1.509332    2.060298
     15          6           0        5.939929   -0.215015   -0.030605
     16          6           0        5.637106    0.498871   -1.209352
     17          6           0        6.748782    1.049061   -2.071705
     18          6           0        4.302133    0.675596   -1.544789
     19          6           0        3.272520    0.164084   -0.736657
     20          6           0        1.849701    0.365955   -1.124004
     21          8           0        1.500430    0.935040   -2.156894
     22          6           0        0.263473   -1.446016    1.732977
     23          8           0        0.315892   -2.156815    2.725000
     24          7           0       -0.860805   -0.997166    1.078313
     25          6           0       -2.205884   -1.416576    1.459259
     26          6           0       -2.766999   -2.515810    0.576275
     27          6           0       -2.264210   -3.822561    0.667350
     28          6           0       -2.765220   -4.832077   -0.148637
     29          6           0       -3.784051   -4.575488   -1.080311
     30          6           0       -4.331860   -5.683788   -1.949218
     31          6           0       -4.279871   -3.271139   -1.167048
     32          6           0       -3.778833   -2.253968   -0.350378
     33          6           0       -1.266755    1.939515    1.023646
     34          6           0       -1.824869    3.219876    1.015364
     35          1           0       -4.640121    6.933593    0.015349
     36          1           0       -3.721239    7.802673    1.264442
     37          1           0       -3.045819    7.612479   -0.368895
     38          1           0       -3.568133    5.326920    1.627308
     39          1           0       -1.971818    6.006220    1.241363
     40          1           0       -2.659757    3.403385   -2.271772
     41          1           0       -1.656434    1.129414   -2.244831
     42          1           0       -0.941972   -0.770943   -1.015392
     43          1           0        4.866139   -1.030051    2.946648
     44          1           0        6.380772   -1.572472    2.195815
     45          1           0        4.893568   -2.527725    2.028069
     46          1           0        6.983465   -0.361121    0.242127
     47          1           0        7.370329    1.762187   -1.515870
     48          1           0        7.413263    0.250700   -2.424907
     49          1           0        6.350511    1.565990   -2.949634
     50          1           0        4.009231    1.214268   -2.441038
     51          1           0       -2.126152   -1.757261    2.495717
     52          1           0       -2.859259   -0.537874    1.436042
     53          1           0       -1.476875   -4.040984    1.384991
     54          1           0       -2.363400   -5.839465   -0.060754
     55          1           0       -3.527827   -6.230037   -2.456787
     56          1           0       -4.892148   -6.417206   -1.354896
     57          1           0       -5.008700   -5.293821   -2.715996
     58          1           0       -5.067974   -3.044534   -1.881695
     59          1           0       -4.181713   -1.246918   -0.437035
     60          1           0       -0.878434    1.539963    1.956991
     61          1           0       -1.859558    3.789749    1.936630
 ---------------------------------------------------------------------

 The electronic state is 1-A.
 Alpha  occ. eigenvalues --  -19.23421 -19.17561 -19.12120 -19.12072 -14.37015
 Alpha  occ. eigenvalues --  -10.29478 -10.27260 -10.27107 -10.26763 -10.24745
 Alpha  occ. eigenvalues --  -10.24676 -10.24565 -10.22523 -10.21221 -10.20759
 Alpha  occ. eigenvalues --  -10.20611 -10.20606 -10.20130 -10.19629 -10.19461
 Alpha  occ. eigenvalues --  -10.19409 -10.19316 -10.19240 -10.19031 -10.18969
 Alpha  occ. eigenvalues --  -10.18926 -10.18878 -10.18830 -10.18583 -10.18577
 Alpha  occ. eigenvalues --  -10.18554 -10.18489 -10.18362 -10.18351  -1.12624
 Alpha  occ. eigenvalues --   -1.06245  -1.03864  -1.02017  -0.95957  -0.87370
 Alpha  occ. eigenvalues --   -0.85831  -0.85261  -0.83072  -0.79508  -0.78878
 Alpha  occ. eigenvalues --   -0.78341  -0.77322  -0.75409  -0.74465  -0.74085
 Alpha  occ. eigenvalues --   -0.72323  -0.71319  -0.69929  -0.68649  -0.67578
 Alpha  occ. eigenvalues --   -0.64426  -0.63869  -0.63261  -0.60725  -0.60398
 Alpha  occ. eigenvalues --   -0.58310  -0.58159  -0.57794  -0.56050  -0.55021
 Alpha  occ. eigenvalues --   -0.53799  -0.53001  -0.50746  -0.49859  -0.49329
 Alpha  occ. eigenvalues --   -0.48546  -0.48302  -0.47505  -0.46918  -0.46660
 Alpha  occ. eigenvalues --   -0.45567  -0.45287  -0.44903  -0.44365  -0.42996
 Alpha  occ. eigenvalues --   -0.42773  -0.42360  -0.42130  -0.42071  -0.41962
 Alpha  occ. eigenvalues --   -0.41788  -0.41572  -0.41535  -0.41237  -0.40388
 Alpha  occ. eigenvalues --   -0.40062  -0.39965  -0.39668  -0.39394  -0.39124
 Alpha  occ. eigenvalues --   -0.38974  -0.38209  -0.37664  -0.37451  -0.36644
 Alpha  occ. eigenvalues --   -0.36230  -0.35753  -0.35506  -0.34851  -0.34497
 Alpha  occ. eigenvalues --   -0.34422  -0.34029  -0.33362  -0.32393  -0.31320
 Alpha  occ. eigenvalues --   -0.26979  -0.26590  -0.25607  -0.25279  -0.25112
 Alpha  occ. eigenvalues --   -0.24648  -0.24221  -0.23531  -0.23274  -0.21527
 Alpha virt. eigenvalues --   -0.06567  -0.02755  -0.00372  -0.00278   0.00066
 Alpha virt. eigenvalues --    0.00126   0.00960   0.05350   0.09196   0.09432
 Alpha virt. eigenvalues --    0.09627   0.10175   0.10583   0.10700   0.11720

 Mulliken charges:
               1
     1  C   -0.457040
     2  C   -0.029907
     3  O   -0.516863
     4  C    0.383744
     5  C   -0.181383
     6  C   -0.169057
     7  C    0.174713
     8  C   -0.099967
     9  C    0.060259
    10  C    0.200169
    11  O   -0.529945
    12  C    0.215748
    13  C    0.131210
    14  C   -0.517656
    15  C   -0.244507
    16  C    0.197425
    17  C   -0.533175
    18  C   -0.253364
    19  C    0.079045
    20  C    0.404713
    21  O   -0.516345
    22  C    0.608123
    23  O   -0.529920
    24  N   -0.472619
    25  C   -0.247479
    26  C    0.161649
    27  C   -0.183889
    28  C   -0.177270
    29  C    0.179431
    30  C   -0.530586
    31  C   -0.182325
    32  C   -0.188743
    33  C   -0.194201
    34  C   -0.196008
    35  H    0.163800
    36  H    0.148821
    37  H    0.165146
    38  H    0.140459
    39  H    0.142599
    40  H    0.140277
    41  H    0.143160
    42  H    0.179776
    43  H    0.176806
    44  H    0.154948
    45  H    0.178181
    46  H    0.126494
    47  H    0.164469
    48  H    0.164371
    49  H    0.165105
    50  H    0.159555
    51  H    0.189731
    52  H    0.163531
    53  H    0.155441
    54  H    0.125235
    55  H    0.161763
    56  H    0.165105
    57  H    0.155360
    58  H    0.123348
    59  H    0.131187
    60  H    0.136509
    61  H    0.134840
 Sum of Mulliken charges =  -0.00000

 Dipole moment (field-independent basis, Debye):
    X=              0.4988    Y=              1.2852    Z=              0.1743  Tot=              1.3896
 Quadrupole moment (field-independent basis, Debye-Ang):
   XX=           -164.6963   YY=           -179.3823   ZZ=           -202.3122
   XY=             -2.8699   XZ=              0.9593   YZ=             16.9347

 Normal termination of Gaussian 16 at Sat Nov  5 00:09:40 2022.
