 Gaussian 16, Revision B.01,
 Gaussian 16:  ES64L-G16RevB.01 20-Dec-2017

 -------------------------------------------------------------------
 #p b3lyp/6-31g(d) 6D 10F nosymm GFInput td=(50-50,nstate=2) SCF=XQC
 -------------------------------------------------------------------

 ------------------------------
 Gaussian input prepared by ASE
 ------------------------------
 Symbolic Z-matrix:
 Charge =  0 Multiplicity = 1

                          Input orientation:
 ---------------------------------------------------------------------
 Center     Atomic      Atomic             Coordinates (Angstroms)
 Number     Number       Type             X           Y           Z
 ---------------------------------------------------------------------
      1          6           0        5.681906   -3.994744    3.710291
      2          6           0        4.535076   -3.026413    3.478242
      3          8           0        4.356136   -2.902428    2.067826
      4          6           0        3.367823   -2.088049    1.599072
      5          6           0        3.237707   -2.026660    0.203653
      6          6           0        2.265714   -1.219986   -0.372594
      7          6           0        1.399507   -0.456150    0.421322
      8          6           0        0.318498    0.397634   -0.232032
      9          6           0       -1.060958   -0.222445   -0.197004
     10          6           0       -1.907968    0.617604    0.433799
     11          8           0       -3.211118    0.419308    0.664369
     12          6           0       -3.740395   -0.774120    0.207503
     13          6           0       -5.106829   -0.977062    0.470988
     14          6           0       -5.908161    0.063548    1.211770
     15          6           0       -5.665582   -2.166996    0.017700
     16          6           0       -4.925285   -3.145657   -0.678693
     17          6           0       -5.594957   -4.417583   -1.143374
     18          6           0       -3.580150   -2.903187   -0.918951
     19          6           0       -2.962252   -1.719366   -0.481235
     20          6           0       -1.518532   -1.485145   -0.756941
     21          8           0       -0.813362   -2.264021   -1.396313
     22          6           0       -1.216825    1.880838    0.837059
     23          8           0       -1.694148    2.873348    1.365435
     24          7           0        0.089118    1.678180    0.453009
     25          6           0        1.103564    2.722737    0.553318
     26          6           0        1.373965    3.428395   -0.762644
     27          6           0        0.425392    4.311680   -1.299957
     28          6           0        0.661498    4.951737   -2.512619
     29          6           0        1.849542    4.735925   -3.229451
     30          6           0        2.102030    5.449823   -4.537129
     31          6           0        2.790109    3.853718   -2.689330
     32          6           0        2.556624    3.207843   -1.472384
     33          6           0        1.531550   -0.529215    1.808988
     34          6           0        2.506877   -1.332071    2.404843
     35          1           0        6.601571   -3.620496    3.249801
     36          1           0        5.856609   -4.121017    4.784203
     37          1           0        5.453136   -4.973518    3.277350
     38          1           0        4.758754   -2.042017    3.914181
     39          1           0        3.608921   -3.396940    3.940486
     40          1           0        3.909557   -2.621719   -0.406788
     41          1           0        2.164138   -1.195158   -1.454050
     42          1           0        0.609248    0.589065   -1.274606
     43          1           0       -5.494030    0.251740    2.208963
     44          1           0       -6.947005   -0.258771    1.325602
     45          1           0       -5.900560    1.024027    0.683881
     46          1           0       -6.721767   -2.345445    0.210897
     47          1           0       -6.003340   -4.986097   -0.298485
     48          1           0       -6.430723   -4.204697   -1.821489
     49          1           0       -4.890686   -5.065551   -1.673218
     50          1           0       -2.961366   -3.618929   -1.451905
     51          1           0        0.727219    3.428700    1.299408
     52          1           0        2.023633    2.272076    0.940530
     53          1           0       -0.499575    4.493485   -0.757744
     54          1           0       -0.085862    5.634923   -2.911020
     55          1           0        1.256351    5.336132   -5.225884
     56          1           0        2.246982    6.526917   -4.382530
     57          1           0        2.996298    5.064708   -5.037236
     58          1           0        3.718215    3.667032   -3.224999
     59          1           0        3.304619    2.525903   -1.073096
     60          1           0        0.869169    0.053900    2.443649
     61          1           0        2.584370   -1.359275    3.485559
 ---------------------------------------------------------------------

 SCF Done:  E(RB3LYP) =  -1477.03195997     A.U. after   16 cycles

 Excitation energies and oscillator strengths:

 Excited state symmetry could not be determined.
 Excited State   1:      Triplet-?Sym    2.9394 eV  421.81 nm  f=0.0000  <S**2>=2.000
     111 ->121        -0.26130
     117 ->121        -0.11597
     118 ->121         0.20085
     119 ->121         0.46970
     120 ->121        -0.34075
 This state for optimization and/or second-order correction.
 Total Energy, E(TD-HF/TD-DFT) =  -1476.92394074
 Copying the excited state density for this state as the 1-particle RhoCI density.

 Excited state symmetry could not be determined.
 Excited State   2:      Triplet-?Sym    3.0970 eV  400.34 nm  f=0.0000  <S**2>=2.000
     114 ->121         0.14060
     117 ->121         0.55644
     119 ->121         0.24962
     120 ->121         0.23227

 Excited state symmetry could not be determined.
 Excited State   3:      Singlet-?Sym    3.3930 eV  365.42 nm  f=0.0029  <S**2>=0.000
     117 ->121         0.35295
     120 ->121         0.58834

 Excited state symmetry could not be determined.
 Excited State   4:      Singlet-?Sym    3.6495 eV  339.73 nm  f=0.0041  <S**2>=0.000
     114 ->121         0.12486
     117 ->121         0.54820
     120 ->121        -0.38552

 Alpha  occ. eigenvalues --  -19.23421 -19.17561 -19.12120 -19.12072 -14.37015
 Alpha  occ. eigenvalues --  -10.29478 -10.27259 -10.27107 -10.26763 -10.24745
 Alpha  occ. eigenvalues --  -10.24676 -10.24565 -10.22523 -10.21221 -10.20759
 Alpha  occ. eigenvalues --  -10.20611 -10.20606 -10.20130 -10.19629 -10.19461
 Alpha  occ. eigenvalues --  -10.19409 -10.19316 -10.19240 -10.19031 -10.18970
 Alpha  occ. eigenvalues --  -10.18926 -10.18878 -10.18830 -10.18583 -10.18577
 Alpha  occ. eigenvalues --  -10.18554 -10.18489 -10.18362 -10.18351  -1.12624
 Alpha  occ. eigenvalues --   -1.06245  -1.03864  -1.02017  -0.95957  -0.87370
 Alpha  occ. eigenvalues --   -0.85831  -0.85261  -0.83072  -0.79508  -0.78878
 Alpha  occ. eigenvalues --   -0.78341  -0.77322  -0.75409  -0.74465  -0.74085
 Alpha  occ. eigenvalues --   -0.72323  -0.71319  -0.69929  -0.68649  -0.67578
 Alpha  occ. eigenvalues --   -0.64426  -0.63869  -0.63261  -0.60725  -0.60398
 Alpha  occ. eigenvalues --   -0.58310  -0.58159  -0.57794  -0.56050  -0.55021
 Alpha  occ. eigenvalues --   -0.53799  -0.53001  -0.50746  -0.49859  -0.49329
 Alpha  occ. eigenvalues --   -0.48546  -0.48302  -0.47505  -0.46918  -0.46660
 Alpha  occ. eigenvalues --   -0.45567  -0.45287  -0.44903  -0.44365  -0.42996
 Alpha  occ. eigenvalues --   -0.42773  -0.42360  -0.42130  -0.42071  -0.41962
 Alpha  occ. eigenvalues --   -0.41788  -0.41572  -0.41535  -0.41237  -0.40388
 Alpha  occ. eigenvalues --   -0.40062  -0.39965  -0.39668  -0.39394  -0.39124
 Alpha  occ. eigenvalues --   -0.38974  -0.38209  -0.37664  -0.37451  -0.36644
 Alpha  occ. eigenvalues --   -0.36230  -0.35753  -0.35506  -0.34851  -0.34497
 Alpha  occ. eigenvalues --   -0.34422  -0.34029  -0.33362  -0.32393  -0.31320
 Alpha  occ. eigenvalues --   -0.26979  -0.26590  -0.25607  -0.25279  -0.25112
 Alpha  occ. eigenvalues --   -0.24648  -0.24221  -0.23531  -0.23274  -0.21527
 Alpha virt. eigenvalues --   -0.06567  -0.02755  -0.00372  -0.00278   0.00066
 Alpha virt. eigenvalues --    0.00126   0.00960   0.05350   0.09195   0.09431
 Alpha virt. eigenvalues --    0.09627   0.10175   0.10583   0.10700   0.11720

 Mulliken charges:
               1
     1  C   -0.457043
     2  C   -0.029910
     3  O   -0.516859
     4  C    0.383750
     5  C   -0.181390
     6  C   -0.169043
     7  C    0.174695
     8  C   -0.099940
     9  C    0.060229
    10  C    0.200203
    11  O   -0.529942
    12  C    0.215740
    13  C    0.131206
    14  C   -0.517656
    15  C   -0.244504
    16  C    0.197421
    17  C   -0.533171
    18  C   -0.253356
    19  C    0.079037
    20  C    0.404723
    21  O   -0.516346
    22  C    0.608097
    23  O   -0.529922
    24  N   -0.472601
    25  C   -0.247501
    26  C    0.161652
    27  C   -0.183894
    28  C   -0.177256
    29  C    0.179433
    30  C   -0.530594
    31  C   -0.182336
    32  C   -0.188725
    33  C   -0.194208
    34  C   -0.196008
    35  H    0.163801
    36  H    0.148822
    37  H    0.165147
    38  H    0.140460
    39  H    0.142599
    40  H    0.140278
    41  H    0.143159
    42  H    0.179775
    43  H    0.176806
    44  H    0.154947
    45  H    0.178182
    46  H    0.126495
    47  H    0.164469
    48  H    0.164371
    49  H    0.165105
    50  H    0.159555
    51  H    0.189732
    52  H    0.163535
    53  H    0.155441
    54  H    0.125234
    55  H    0.161763
    56  H    0.165106
    57  H    0.155361
    58  H    0.123348
    59  H    0.131182
    60  H    0.136509
    61  H    0.134839
 Sum of Mulliken charges =  -0.00000

 Dipole moment (field-independent basis, Debye):
    X=             -0.0229    Y=             -1.1477    Z=              0.7831  Tot=              1.3896
 Quadrupole moment (field-independent basis, Debye-Ang):
   XX=           -167.6655   YY=           -196.1173   ZZ=           -182.7081
   XY=             10.4386   XZ=              7.4694   YZ=            -17.0435

 Normal termination of Gaussian 16 at Sat Nov  5 10:07:09 2022.
