 Gaussian 16, Revision B.01,
 Gaussian 16:  ES64L-G16RevB.01 20-Dec-2017

 -----------------------------
 #p b3lyp/6-31g(d) opt SCF=XQC
 -----------------------------

 ------------------------------
 Gaussian input prepared by ASE
 ------------------------------
 Symbolic Z-matrix:
 Charge =  0 Multiplicity = 1

 SCF Done:  E(RB3LYP) =  -1165.90459242     A.U. after   16 cycles
 SCF Done:  E(RB3LYP) =  -1165.90901814     A.U. after   12 cycles
 SCF Done:  E(RB3LYP) =  -1165.90953722     A.U. after   12 cycles
 SCF Done:  E(RB3LYP) =  -1165.90979282     A.U. after   12 cycles
 SCF Done:  E(RB3LYP) =  -1165.90985783     A.U. after   11 cycles
 SCF Done:  E(RB3LYP) =  -1165.90988503     A.U. after   11 cycles
 SCF Done:  E(RB3LYP) =  -1165.90990758     A.U. after   10 cycles
 SCF Done:  E(RB3LYP) =  -1165.90991930     A.U. after   10 cycles
 SCF Done:  E(RB3LYP) =  -1165.90992509     A.U. after   10 cycles
 SCF Done:  E(RB3LYP) =  -1165.90992962     A.U. after   10 cycles
 SCF Done:  E(RB3LYP) =  -1165.90993510     A.U. after   10 cycles
 SCF Done:  E(RB3LYP) =  -1165.90994012     A.U. after   10 cycles
 SCF Done:  E(RB3LYP) =  -1165.90994329     A.U. after    9 cycles
 SCF Done:  E(RB3LYP) =  -1165.90994573     A.U. after   10 cycles
 SCF Done:  E(RB3LYP) =  -1165.90994666     A.U. after    8 cycles
 SCF Done:  E(RB3LYP) =  -1165.90994680     A.U. after    8 cycles
 Optimization completed.
    -- Stationary point found.

                         Standard orientation:
 ---------------------------------------------------------------------
 Center     Atomic      Atomic             Coordinates (Angstroms)
 Number     Number       Type             X           Y           Z
 ---------------------------------------------------------------------
      1          8           0        2.419576   -2.240164   -0.347046
      2          6           0        2.745804   -1.062497   -0.186707
      3          6           0        4.146673   -0.702328    0.118752
      4          6           0        5.135372   -1.698186    0.218714
      5          6           0        6.448410   -1.364106    0.507942
      6          6           0        6.798474   -0.016767    0.705045
      7          6           0        5.842305    0.984643    0.613056
      8          6           0        4.519409    0.632438    0.319249
      9          8           0        3.616781    1.648779    0.240617
     10          6           0        2.304290    1.379734   -0.051071
     11          6           0        1.479990    2.509282   -0.110830
     12          6           0        0.133547    2.355799   -0.383826
     13          6           0       -0.395617    1.076774   -0.603632
     14          6           0        0.418536   -0.067603   -0.571558
     15          6           0        1.807523    0.081592   -0.274073
     16          6           0       -0.230867   -1.330868   -0.906873
     17          6           0       -1.569601   -1.396874   -1.008982
     18          6           0       -2.445747   -0.225418   -0.670069
     19          6           0       -3.763497   -0.101255   -1.495791
     20          6           0       -4.861483   -0.100062   -0.457757
     21          6           0       -6.238887   -0.000574   -0.589869
     22          6           0       -7.044620   -0.066585    0.556090
     23          6           0       -6.459836   -0.228603    1.813850
     24          6           0       -5.070805   -0.316101    1.961587
     25          6           0       -4.283942   -0.247047    0.812754
     26          7           0       -2.889545   -0.282315    0.716921
     27          8           0       -1.719024    1.012986   -0.912915
     28          1           0        4.827247   -2.726605    0.061238
     29          1           0        7.206354   -2.138112    0.582793
     30          1           0        7.827411    0.248230    0.932208
     31          1           0        6.089347    2.030770    0.761591
     32          1           0        1.916820    3.485691    0.069227
     33          1           0       -0.534331    3.209616   -0.430358
     34          1           0        0.392147   -2.198347   -1.073479
     35          1           0       -2.070107   -2.325735   -1.269295
     36          1           0       -3.719758    0.823332   -2.079777
     37          1           0       -3.859509   -0.931040   -2.205785
     38          1           0       -6.692467    0.113289   -1.571819
     39          1           0       -8.124540    0.003105    0.463603
     40          1           0       -7.090173   -0.283093    2.697678
     41          1           0       -4.620086   -0.428624    2.943883
     42          1           0       -2.352807   -0.851413    1.358589
 ---------------------------------------------------------------------

 The electronic state is 1-A.
 Alpha  occ. eigenvalues --  -19.22063 -19.17798 -19.12487 -14.34685 -10.29123
 Alpha  occ. eigenvalues --  -10.27430 -10.26984 -10.26855 -10.25465 -10.22069
 Alpha  occ. eigenvalues --  -10.21268 -10.21172 -10.20923 -10.20539 -10.20474
 Alpha  occ. eigenvalues --  -10.20342 -10.20331 -10.20141 -10.19846 -10.19714
 Alpha  occ. eigenvalues --  -10.19616 -10.19386 -10.18655 -10.18594 -10.18515
 Alpha  occ. eigenvalues --  -10.18290 -10.17788  -1.11317  -1.07148  -1.02534
 Alpha  occ. eigenvalues --   -0.94819  -0.87559  -0.86323  -0.83816  -0.81167
 Alpha  occ. eigenvalues --   -0.79115  -0.78512  -0.77040  -0.75606  -0.74648
 Alpha  occ. eigenvalues --   -0.72743  -0.70221  -0.66933  -0.65462  -0.63219
 Alpha  occ. eigenvalues --   -0.62072  -0.60765  -0.60684  -0.58684  -0.57904
 Alpha  occ. eigenvalues --   -0.56143  -0.54055  -0.53142  -0.51698  -0.51312
 Alpha  occ. eigenvalues --   -0.49256  -0.48334  -0.47432  -0.46947  -0.46829
 Alpha  occ. eigenvalues --   -0.45637  -0.44421  -0.44088  -0.44055  -0.43429
 Alpha  occ. eigenvalues --   -0.42781  -0.42064  -0.41753  -0.40916  -0.40611
 Alpha  occ. eigenvalues --   -0.40130  -0.39518  -0.39334  -0.38720  -0.37358
 Alpha  occ. eigenvalues --   -0.37215  -0.36663  -0.36391  -0.35032  -0.34458
 Alpha  occ. eigenvalues --   -0.33998  -0.33359  -0.31323  -0.30380  -0.29808
 Alpha  occ. eigenvalues --   -0.26337  -0.25468  -0.24650  -0.24572  -0.24081
 Alpha  occ. eigenvalues --   -0.21031  -0.19842
 Alpha virt. eigenvalues --   -0.07181  -0.02837  -0.01673   0.00036   0.00305
 Alpha virt. eigenvalues --    0.02070   0.04801   0.06556   0.08637   0.09225
 Alpha virt. eigenvalues --    0.10049   0.10365   0.11263   0.12725   0.14201

 Mulliken charges:
               1
     1  O   -0.520574
     2  C    0.390890
     3  C    0.055485
     4  C   -0.173074
     5  C   -0.134809
     6  C   -0.128314
     7  C   -0.182484
     8  C    0.302178
     9  O   -0.556777
    10  C    0.284385
    11  C   -0.187692
    12  C   -0.171968
    13  C    0.334832
    14  C    0.018590
    15  C    0.006646
    16  C   -0.119798
    17  C   -0.200495
    18  C    0.440339
    19  C   -0.407953
    20  C    0.119800
    21  C   -0.208968
    22  C   -0.137926
    23  C   -0.139696
    24  C   -0.184500
    25  C    0.326707
    26  N   -0.678173
    27  O   -0.559985
    28  H    0.166634
    29  H    0.138798
    30  H    0.142081
    31  H    0.149309
    32  H    0.152761
    33  H    0.154616
    34  H    0.191639
    35  H    0.145897
    36  H    0.187081
    37  H    0.165799
    38  H    0.124346
    39  H    0.122319
    40  H    0.125918
    41  H    0.124567
    42  H    0.321569
 Sum of Mulliken charges =  -0.00000

 Dipole moment (field-independent basis, Debye):
    X=              1.1242    Y=              0.9809    Z=              0.5225  Tot=              1.5808
 Quadrupole moment (field-independent basis, Debye-Ang):
   XX=           -130.8062   YY=           -150.5374   ZZ=           -148.6908
   XY=              6.8187   XZ=              5.4054   YZ=             -0.8130

 Normal termination of Gaussian 16 at Fri Nov  4 22:56:51 2022.
