 Gaussian 16, Revision B.01,
 Gaussian 16:  ES64L-G16RevB.01 20-Dec-2017

 -------------------------------------------------------------------
 #p b3lyp/6-31g(d) 6D 10F nosymm GFInput td=(50-50,nstate=2) SCF=XQC
 -------------------------------------------------------------------

 ------------------------------
 Gaussian input prepared by ASE
 ------------------------------
 Symbolic Z-matrix:
 Charge =  0 Multiplicity = 1

                          Input orientation:
 ---------------------------------------------------------------------
 Center     Atomic      Atomic             Coordinates (Angstroms)
 Number     Number       Type             X           Y           Z
 ---------------------------------------------------------------------
      1          8           0       -2.622588   -1.632662    1.544738
      2          6           0       -2.967048   -0.802329    0.701573
      3          6           0       -4.362566   -0.753994    0.216134
      4          6           0       -5.325748   -1.647749    0.718861
      5          6           0       -6.633588   -1.607000    0.263639
      6          6           0       -7.004013   -0.664341   -0.711499
      7          6           0       -6.073146    0.227764   -1.224506
      8          6           0       -4.755252    0.175696   -0.754538
      9          8           0       -3.877682    1.069566   -1.288145
     10          6           0       -2.571840    1.082166   -0.870149
     11          6           0       -1.774176    2.051920   -1.488396
     12          6           0       -0.436121    2.146824   -1.154337
     13          6           0        0.110951    1.279399   -0.199076
     14          6           0       -0.677315    0.314867    0.450375
     15          6           0       -2.056857    0.200132    0.098606
     16          6           0       -0.014820   -0.465757    1.490435
     17          6           0        1.320175   -0.404148    1.635297
     18          6           0        2.183856    0.361289    0.674587
     19          6           0        3.466517    1.009057    1.281940
     20          6           0        4.602751    0.428983    0.472265
     21          6           0        5.971786    0.642213    0.542052
     22          6           0        6.821532   -0.067939   -0.318414
     23          6           0        6.288301   -0.976843   -1.234787
     24          6           0        4.907991   -1.190363   -1.324471
     25          6           0        4.076925   -0.475310   -0.463211
     26          7           0        2.680941   -0.500861   -0.390091
     27          8           0        1.422742    1.466787    0.109498
     28          1           0       -5.002385   -2.361435    1.469510
     29          1           0       -7.371816   -2.299525    0.656825
     30          1           0       -8.028924   -0.630163   -1.070563
     31          1           0       -6.336191    0.963368   -1.977612
     32          1           0       -2.224182    2.705442   -2.228004
     33          1           0        0.211530    2.882440   -1.619789
     34          1           0       -0.625433   -1.082301    2.134988
     35          1           0        1.829765   -0.968944    2.411425
     36          1           0        3.381389    2.096322    1.190175
     37          1           0        3.552895    0.777826    2.350080
     38          1           0        6.385385    1.341614    1.265031
     39          1           0        7.895484    0.085935   -0.267544
     40          1           0        6.952650   -1.527055   -1.896114
     41          1           0        4.497236   -1.888790   -2.048482
     42          1           0        2.180890   -1.362097   -0.568753
 ---------------------------------------------------------------------

 SCF Done:  E(RB3LYP) =  -1165.90994511     A.U. after   16 cycles

 Excitation energies and oscillator strengths:

 Excited state symmetry could not be determined.
 Excited State   1:      Triplet-?Sym    2.3944 eV  517.82 nm  f=0.0000  <S**2>=2.000
      88 -> 93        -0.10773
      88 -> 94        -0.12430
      91 -> 93         0.58807
      91 -> 94         0.19002
      92 -> 93         0.26161
 This state for optimization and/or second-order correction.
 Total Energy, E(TD-HF/TD-DFT) =  -1165.82195373
 Copying the excited state density for this state as the 1-particle RhoCI density.

 Excited state symmetry could not be determined.
 Excited State   2:      Triplet-?Sym    2.8360 eV  437.17 nm  f=0.0000  <S**2>=2.000
      88 -> 93        -0.22320
      89 -> 93         0.12343
      90 -> 93        -0.10134
      91 -> 93        -0.34425
      92 -> 93         0.49376
      92 -> 94         0.12296

 Excited state symmetry could not be determined.
 Excited State   3:      Singlet-?Sym    2.9738 eV  416.92 nm  f=0.0751  <S**2>=0.000
      92 -> 93         0.70141

 Excited state symmetry could not be determined.
 Excited State   4:      Singlet-?Sym    3.3270 eV  372.66 nm  f=0.0802  <S**2>=0.000
      91 -> 93         0.69529

 Alpha  occ. eigenvalues --  -19.22063 -19.17798 -19.12487 -14.34685 -10.29123
 Alpha  occ. eigenvalues --  -10.27430 -10.26984 -10.26855 -10.25466 -10.22069
 Alpha  occ. eigenvalues --  -10.21268 -10.21172 -10.20923 -10.20539 -10.20474
 Alpha  occ. eigenvalues --  -10.20342 -10.20331 -10.20141 -10.19846 -10.19714
 Alpha  occ. eigenvalues --  -10.19616 -10.19386 -10.18655 -10.18594 -10.18515
 Alpha  occ. eigenvalues --  -10.18290 -10.17787  -1.11317  -1.07148  -1.02534
 Alpha  occ. eigenvalues --   -0.94819  -0.87559  -0.86323  -0.83816  -0.81167
 Alpha  occ. eigenvalues --   -0.79115  -0.78512  -0.77040  -0.75606  -0.74648
 Alpha  occ. eigenvalues --   -0.72743  -0.70221  -0.66933  -0.65462  -0.63219
 Alpha  occ. eigenvalues --   -0.62072  -0.60765  -0.60684  -0.58684  -0.57904
 Alpha  occ. eigenvalues --   -0.56143  -0.54055  -0.53142  -0.51698  -0.51312
 Alpha  occ. eigenvalues --   -0.49256  -0.48334  -0.47432  -0.46947  -0.46829
 Alpha  occ. eigenvalues --   -0.45637  -0.44421  -0.44088  -0.44055  -0.43429
 Alpha  occ. eigenvalues --   -0.42781  -0.42064  -0.41753  -0.40916  -0.40611
 Alpha  occ. eigenvalues --   -0.40130  -0.39518  -0.39334  -0.38720  -0.37358
 Alpha  occ. eigenvalues --   -0.37215  -0.36663  -0.36391  -0.35032  -0.34458
 Alpha  occ. eigenvalues --   -0.33998  -0.33359  -0.31323  -0.30380  -0.29808
 Alpha  occ. eigenvalues --   -0.26337  -0.25468  -0.24650  -0.24572  -0.24081
 Alpha  occ. eigenvalues --   -0.21031  -0.19842
 Alpha virt. eigenvalues --   -0.07181  -0.02837  -0.01673   0.00037   0.00305
 Alpha virt. eigenvalues --    0.02070   0.04801   0.06556   0.08637   0.09225
 Alpha virt. eigenvalues --    0.10049   0.10365   0.11263   0.12725   0.14201

 Mulliken charges:
               1
     1  O   -0.520580
     2  C    0.390897
     3  C    0.055477
     4  C   -0.173073
     5  C   -0.134812
     6  C   -0.128311
     7  C   -0.182483
     8  C    0.302188
     9  O   -0.556777
    10  C    0.284370
    11  C   -0.187686
    12  C   -0.171968
    13  C    0.334811
    14  C    0.018604
    15  C    0.006657
    16  C   -0.119800
    17  C   -0.200505
    18  C    0.440354
    19  C   -0.407964
    20  C    0.119811
    21  C   -0.208962
    22  C   -0.137930
    23  C   -0.139702
    24  C   -0.184486
    25  C    0.326704
    26  N   -0.678183
    27  O   -0.559981
    28  H    0.166633
    29  H    0.138798
    30  H    0.142081
    31  H    0.149308
    32  H    0.152761
    33  H    0.154615
    34  H    0.191637
    35  H    0.145899
    36  H    0.187082
    37  H    0.165798
    38  H    0.124345
    39  H    0.122319
    40  H    0.125918
    41  H    0.124566
    42  H    0.321568
 Sum of Mulliken charges =  -0.00000

 Dipole moment (field-independent basis, Debye):
    X=             -1.1240    Y=              0.4240    Z=             -1.0277  Tot=              1.5809
 Quadrupole moment (field-independent basis, Debye-Ang):
   XX=           -130.4266   YY=           -149.1957   ZZ=           -149.7597
   XY=             -1.6362   XZ=              8.9986   YZ=              1.3577

 Normal termination of Gaussian 16 at Sat Nov  5 09:48:46 2022.
