 Gaussian 16, Revision B.01,
 Gaussian 16:  ES64L-G16RevB.01 20-Dec-2017

 -----------------------------
 #p b3lyp/6-31g(d) opt SCF=XQC
 -----------------------------

 ------------------------------
 Gaussian input prepared by ASE
 ------------------------------
 Symbolic Z-matrix:
 Charge =  0 Multiplicity = 1

 SCF Done:  E(RB3LYP) =  -1660.97657481     A.U. after   16 cycles
 SCF Done:  E(RB3LYP) =  -1660.98132671     A.U. after   15 cycles
 SCF Done:  E(RB3LYP) =  -1660.98006897     A.U. after   15 cycles
 SCF Done:  E(RB3LYP) =  -1660.98257835     A.U. after   13 cycles
 SCF Done:  E(RB3LYP) =  -1660.98388677     A.U. after   13 cycles
 SCF Done:  E(RB3LYP) =  -1660.98430289     A.U. after   12 cycles
 SCF Done:  E(RB3LYP) =  -1660.98436771     A.U. after   11 cycles
 SCF Done:  E(RB3LYP) =  -1660.98439838     A.U. after   11 cycles
 SCF Done:  E(RB3LYP) =  -1660.98440878     A.U. after   11 cycles
 SCF Done:  E(RB3LYP) =  -1660.98441113     A.U. after    8 cycles
 SCF Done:  E(RB3LYP) =  -1660.98441162     A.U. after    8 cycles
 SCF Done:  E(RB3LYP) =  -1660.98441174     A.U. after    7 cycles
 SCF Done:  E(RB3LYP) =  -1660.98441176     A.U. after    7 cycles
 Optimization completed.
    -- Stationary point found.

                         Standard orientation:
 ---------------------------------------------------------------------
 Center     Atomic      Atomic             Coordinates (Angstroms)
 Number     Number       Type             X           Y           Z
 ---------------------------------------------------------------------
      1          6           0        4.163673   -5.151140    1.308972
      2          8           0        4.292803   -4.324334    0.161653
      3          6           0        3.656191   -3.120870    0.155737
      4          6           0        2.866717   -2.633461    1.204853
      5          6           0        2.260901   -1.381730    1.087061
      6          6           0        2.429007   -0.623077   -0.067969
      7          7           0        1.811642    0.678590   -0.174017
      8          6           0        0.516746    0.829800   -0.652996
      9         16           0       -0.287971   -0.699130   -1.111691
     10          6           0       -1.897102   -0.074146   -1.806799
     11          6           0       -3.082037   -0.806407   -1.233177
     12          6           0       -3.655211   -1.829732   -1.964490
     13          6           0       -4.769043   -2.555081   -1.481933
     14          6           0       -5.308571   -2.249418   -0.255859
     15          6           0       -4.759773   -1.204769    0.535968
     16          6           0       -5.312219   -0.872878    1.801841
     17          6           0       -4.779442    0.141463    2.563935
     18          6           0       -3.665994    0.870850    2.086333
     19          6           0       -3.104675    0.575633    0.862584
     20          6           0       -3.628824   -0.466949    0.049341
     21          7           0       -0.092789    1.964798   -0.763529
     22          6           0        0.578369    3.118066   -0.392374
     23          6           0       -0.075419    4.360325   -0.510545
     24          6           0        0.579126    5.526853   -0.145597
     25          6           0        1.897104    5.490140    0.344861
     26          6           0        2.552631    4.274674    0.466663
     27          6           0        1.900177    3.086573    0.100831
     28          6           0        2.591039    1.801283    0.233108
     29          8           0        3.728320    1.647162    0.647194
     30          6           0        3.225760   -1.106238   -1.111891
     31          6           0        3.833014   -2.347831   -1.003354
     32          1           0        4.748483   -6.047860    1.097256
     33          1           0        3.117678   -5.433336    1.486219
     34          1           0        4.563439   -4.660275    2.205751
     35          1           0        2.719572   -3.209981    2.110289
     36          1           0        1.652681   -0.995513    1.899093
     37          1           0       -1.843865   -0.227232   -2.887122
     38          1           0       -1.903600    1.000211   -1.611744
     39          1           0       -3.240445   -2.083377   -2.937437
     40          1           0       -5.192342   -3.352134   -2.086910
     41          1           0       -6.165245   -2.799934    0.125770
     42          1           0       -6.170084   -1.438533    2.158276
     43          1           0       -5.212071    0.385328    3.530514
     44          1           0       -3.249257    1.672512    2.690297
     45          1           0       -2.251341    1.150042    0.516797
     46          1           0       -1.091833    4.373795   -0.891442
     47          1           0        0.067062    6.480896   -0.240358
     48          1           0        2.397801    6.411791    0.626699
     49          1           0        3.568897    4.208287    0.841616
     50          1           0        3.364837   -0.503633   -2.003954
     51          1           0        4.453335   -2.742924   -1.801107
 ---------------------------------------------------------------------

 The electronic state is 1-A.
 Alpha  occ. eigenvalues --  -88.89305 -19.18503 -19.12007 -14.39857 -14.33104
 Alpha  occ. eigenvalues --  -10.30155 -10.29640 -10.25666 -10.24614 -10.23455
 Alpha  occ. eigenvalues --  -10.22972 -10.21888 -10.20279 -10.20245 -10.20095
 Alpha  occ. eigenvalues --  -10.20083 -10.19996 -10.19809 -10.19724 -10.19683
 Alpha  occ. eigenvalues --  -10.19604 -10.19421 -10.19269 -10.19220 -10.19211
 Alpha  occ. eigenvalues --  -10.19149 -10.19087 -10.18999 -10.18937 -10.18876
 Alpha  occ. eigenvalues --  -10.18550  -7.95389  -5.91903  -5.91475  -5.90907
 Alpha  occ. eigenvalues --   -1.07132  -1.04689  -0.98995  -0.92072  -0.87375
 Alpha  occ. eigenvalues --   -0.85667  -0.85047  -0.82485  -0.80496  -0.77607
 Alpha  occ. eigenvalues --   -0.76939  -0.75967  -0.75126  -0.74314  -0.73872
 Alpha  occ. eigenvalues --   -0.72004  -0.70556  -0.67919  -0.65303  -0.62727
 Alpha  occ. eigenvalues --   -0.62301  -0.61549  -0.61148  -0.60484  -0.59634
 Alpha  occ. eigenvalues --   -0.57236  -0.55667  -0.54975  -0.53176  -0.51390
 Alpha  occ. eigenvalues --   -0.50705  -0.50262  -0.49900  -0.49225  -0.47493
 Alpha  occ. eigenvalues --   -0.47394  -0.46028  -0.45512  -0.45376  -0.44874
 Alpha  occ. eigenvalues --   -0.44169  -0.43710  -0.43341  -0.43168  -0.42268
 Alpha  occ. eigenvalues --   -0.41925  -0.41654  -0.40997  -0.40423  -0.40284
 Alpha  occ. eigenvalues --   -0.39310  -0.38546  -0.38419  -0.37931  -0.37530
 Alpha  occ. eigenvalues --   -0.36920  -0.36827  -0.36185  -0.36162  -0.34314
 Alpha  occ. eigenvalues --   -0.33564  -0.33402  -0.32870  -0.32584  -0.31788
 Alpha  occ. eigenvalues --   -0.29204  -0.28077  -0.27571  -0.26130  -0.26042
 Alpha  occ. eigenvalues --   -0.25761  -0.25254  -0.24208  -0.22643  -0.21724
 Alpha  occ. eigenvalues --   -0.21219
 Alpha virt. eigenvalues --   -0.04182  -0.03888  -0.02912  -0.00890  -0.00774
 Alpha virt. eigenvalues --   -0.00477   0.02434   0.03088   0.04399   0.07392
 Alpha virt. eigenvalues --    0.07675   0.08665   0.09175   0.10008   0.10277

 Mulliken charges:
               1
     1  C   -0.218904
     2  O   -0.504853
     3  C    0.392162
     4  C   -0.208375
     5  C   -0.108883
     6  C    0.213095
     7  N   -0.599953
     8  C    0.303648
     9  S    0.178034
    10  C   -0.546567
    11  C    0.122254
    12  C   -0.196646
    13  C   -0.129689
    14  C   -0.189695
    15  C    0.140919
    16  C   -0.196685
    17  C   -0.130421
    18  C   -0.144752
    19  C   -0.198092
    20  C    0.082041
    21  N   -0.557234
    22  C    0.246671
    23  C   -0.154364
    24  C   -0.129477
    25  C   -0.137450
    26  C   -0.178562
    27  C    0.055873
    28  C    0.571616
    29  O   -0.499101
    30  C   -0.102926
    31  C   -0.186383
    32  H    0.173468
    33  H    0.155876
    34  H    0.156972
    35  H    0.140391
    36  H    0.148905
    37  H    0.188284
    38  H    0.234855
    39  H    0.127269
    40  H    0.131227
    41  H    0.130176
    42  H    0.129102
    43  H    0.129679
    44  H    0.131587
    45  H    0.161335
    46  H    0.141454
    47  H    0.137436
    48  H    0.136422
    49  H    0.164812
    50  H    0.146464
    51  H    0.146983
 Sum of Mulliken charges =  -0.00000

 Dipole moment (field-independent basis, Debye):
    X=             -1.8101    Y=             -1.5943    Z=              0.5574  Tot=              2.4756
 Quadrupole moment (field-independent basis, Debye-Ang):
   XX=           -185.6369   YY=           -157.8474   ZZ=           -172.9300
   XY=             -5.5049   XZ=             -0.2078   YZ=             -4.4926

 Normal termination of Gaussian 16 at Fri Nov  4 23:02:03 2022.
