 Gaussian 16, Revision B.01,
 Gaussian 16:  ES64L-G16RevB.01 20-Dec-2017

 -------------------------------------------------------------------
 #p b3lyp/6-31g(d) 6D 10F nosymm GFInput td=(50-50,nstate=2) SCF=XQC
 -------------------------------------------------------------------

 ------------------------------
 Gaussian input prepared by ASE
 ------------------------------
 Symbolic Z-matrix:
 Charge =  0 Multiplicity = 1

                          Input orientation:
 ---------------------------------------------------------------------
 Center     Atomic      Atomic             Coordinates (Angstroms)
 Number     Number       Type             X           Y           Z
 ---------------------------------------------------------------------
      1          6           0       -3.595884    5.672258   -0.642344
      2          8           0       -3.852884    4.536522   -1.455165
      3          6           0       -3.376218    3.327825   -1.048378
      4          6           0       -2.635073    3.117774    0.121265
      5          6           0       -2.197366    1.830913    0.437681
      6          6           0       -2.484419    0.761341   -0.405839
      7          7           0       -2.041436   -0.569815   -0.061584
      8          6           0       -0.786453   -1.034774   -0.432897
      9         16           0        0.198513    0.140796   -1.351305
     10          6           0        1.699965   -0.878745   -1.762718
     11          6           0        2.980264   -0.155739   -1.434975
     12          6           0        3.665334    0.486501   -2.449247
     13          6           0        4.872431    1.182039   -2.206847
     14          6           0        5.392595    1.232323   -0.936146
     15          6           0        4.730164    0.587018    0.142848
     16          6           0        5.260564    0.624271    1.460069
     17          6           0        4.617316   -0.004557    2.501382
     18          6           0        3.410180   -0.702283    2.264999
     19          6           0        2.867115   -0.758785    0.999423
     20          6           0        3.504413   -0.119341   -0.099684
     21          7           0       -0.329935   -2.210545   -0.148075
     22          6           0       -1.136009   -3.080770    0.566898
     23          6           0       -0.649528   -4.365024    0.880969
     24          6           0       -1.440957   -5.251821    1.594857
     25          6           0       -2.733289   -4.887199    2.014248
     26          6           0       -3.224861   -3.626582    1.712405
     27          6           0       -2.432755   -2.719634    0.990514
     28          6           0       -2.950193   -1.385745    0.674668
     29          8           0       -4.049814   -0.959624    0.987530
     30          6           0       -3.233223    0.970064   -1.569352
     31          6           0       -3.673841    2.244571   -1.891188
     32          1           0       -4.064887    6.515586   -1.152018
     33          1           0       -2.519001    5.861170   -0.543383
     34          1           0       -4.037388    5.560487    0.356433
     35          1           0       -2.397150    3.937242    0.788877
     36          1           0       -1.627680    1.660320    1.345892
     37          1           0        1.645298   -1.085657   -2.833963
     38          1           0        1.572425   -1.819866   -1.223870
     39          1           0        3.267243    0.455260   -3.460949
     40          1           0        5.382375    1.673542   -3.030773
     41          1           0        6.320264    1.763851   -0.737386
     42          1           0        6.190855    1.161483    1.630087
     43          1           0        5.034245    0.031447    3.504271
     44          1           0        2.906131   -1.199268    3.089647
     45          1           0        1.940405   -1.301244    0.842451
     46          1           0        0.348960   -4.633214    0.550129
     47          1           0       -1.057547   -6.240711    1.832515
     48          1           0       -3.342404   -5.592089    2.572533
     49          1           0       -4.216531   -3.310885    2.020173
     50          1           0       -3.466228    0.129589   -2.215542
     51          1           0       -4.254103    2.429727   -2.789142
 ---------------------------------------------------------------------

 SCF Done:  E(RB3LYP) =  -1660.98441016     A.U. after   16 cycles

 Excitation energies and oscillator strengths:

 Excited state symmetry could not be determined.
 Excited State   1:      Triplet-?Sym    2.6697 eV  464.41 nm  f=0.0000  <S**2>=2.000
     108 ->115        -0.11332
     108 ->116         0.11353
     110 ->112        -0.22986
     111 ->112         0.62259
 This state for optimization and/or second-order correction.
 Total Energy, E(TD-HF/TD-DFT) =  -1660.88630056
 Copying the excited state density for this state as the 1-particle RhoCI density.

 Excited state symmetry could not be determined.
 Excited State   2:      Triplet-?Sym    3.2626 eV  380.02 nm  f=0.0000  <S**2>=2.000
     106 ->113         0.27679
     107 ->114        -0.11869
     110 ->112        -0.10950
     110 ->114         0.53071
     111 ->114         0.23547

 Excited state symmetry could not be determined.
 Excited State   3:      Singlet-?Sym    4.1641 eV  297.74 nm  f=0.1370  <S**2>=0.000
     110 ->112         0.38542
     110 ->113        -0.21782
     111 ->112         0.49560
     111 ->113        -0.19346

 Excited state symmetry could not be determined.
 Excited State   4:      Singlet-?Sym    4.2095 eV  294.53 nm  f=0.0105  <S**2>=0.000
     110 ->112         0.25088
     110 ->113         0.43279
     111 ->112         0.17720
     111 ->113         0.43562

 Alpha  occ. eigenvalues --  -88.89304 -19.18503 -19.12007 -14.39857 -14.33105
 Alpha  occ. eigenvalues --  -10.30155 -10.29640 -10.25666 -10.24615 -10.23455
 Alpha  occ. eigenvalues --  -10.22972 -10.21888 -10.20279 -10.20245 -10.20095
 Alpha  occ. eigenvalues --  -10.20083 -10.19996 -10.19809 -10.19724 -10.19683
 Alpha  occ. eigenvalues --  -10.19604 -10.19421 -10.19269 -10.19220 -10.19211
 Alpha  occ. eigenvalues --  -10.19149 -10.19087 -10.18999 -10.18937 -10.18876
 Alpha  occ. eigenvalues --  -10.18550  -7.95389  -5.91903  -5.91475  -5.90907
 Alpha  occ. eigenvalues --   -1.07133  -1.04689  -0.98995  -0.92072  -0.87375
 Alpha  occ. eigenvalues --   -0.85667  -0.85046  -0.82485  -0.80496  -0.77607
 Alpha  occ. eigenvalues --   -0.76939  -0.75967  -0.75126  -0.74314  -0.73872
 Alpha  occ. eigenvalues --   -0.72004  -0.70556  -0.67919  -0.65303  -0.62727
 Alpha  occ. eigenvalues --   -0.62301  -0.61549  -0.61148  -0.60484  -0.59634
 Alpha  occ. eigenvalues --   -0.57236  -0.55667  -0.54975  -0.53176  -0.51390
 Alpha  occ. eigenvalues --   -0.50705  -0.50262  -0.49900  -0.49225  -0.47493
 Alpha  occ. eigenvalues --   -0.47394  -0.46028  -0.45512  -0.45376  -0.44874
 Alpha  occ. eigenvalues --   -0.44169  -0.43710  -0.43341  -0.43168  -0.42268
 Alpha  occ. eigenvalues --   -0.41925  -0.41654  -0.40997  -0.40423  -0.40284
 Alpha  occ. eigenvalues --   -0.39310  -0.38546  -0.38419  -0.37930  -0.37530
 Alpha  occ. eigenvalues --   -0.36920  -0.36827  -0.36185  -0.36162  -0.34314
 Alpha  occ. eigenvalues --   -0.33564  -0.33402  -0.32870  -0.32584  -0.31788
 Alpha  occ. eigenvalues --   -0.29204  -0.28077  -0.27571  -0.26130  -0.26042
 Alpha  occ. eigenvalues --   -0.25761  -0.25254  -0.24208  -0.22643  -0.21724
 Alpha  occ. eigenvalues --   -0.21219
 Alpha virt. eigenvalues --   -0.04182  -0.03888  -0.02912  -0.00890  -0.00774
 Alpha virt. eigenvalues --   -0.00477   0.02434   0.03088   0.04399   0.07392
 Alpha virt. eigenvalues --    0.07675   0.08665   0.09175   0.10008   0.10277

 Mulliken charges:
               1
     1  C   -0.218901
     2  O   -0.504859
     3  C    0.392161
     4  C   -0.208377
     5  C   -0.108873
     6  C    0.213091
     7  N   -0.599964
     8  C    0.303657
     9  S    0.178050
    10  C   -0.546559
    11  C    0.122246
    12  C   -0.196644
    13  C   -0.129687
    14  C   -0.189702
    15  C    0.140919
    16  C   -0.196691
    17  C   -0.130414
    18  C   -0.144753
    19  C   -0.198101
    20  C    0.082054
    21  N   -0.557258
    22  C    0.246709
    23  C   -0.154376
    24  C   -0.129481
    25  C   -0.137439
    26  C   -0.178567
    27  C    0.055848
    28  C    0.571618
    29  O   -0.499093
    30  C   -0.102933
    31  C   -0.186373
    32  H    0.173468
    33  H    0.155876
    34  H    0.156971
    35  H    0.140391
    36  H    0.148905
    37  H    0.188281
    38  H    0.234855
    39  H    0.127270
    40  H    0.131227
    41  H    0.130176
    42  H    0.129103
    43  H    0.129678
    44  H    0.131588
    45  H    0.161334
    46  H    0.141455
    47  H    0.137436
    48  H    0.136421
    49  H    0.164812
    50  H    0.146463
    51  H    0.146982
 Sum of Mulliken charges =  -0.00000

 Dipole moment (field-independent basis, Debye):
    X=              2.0104    Y=              1.4440    Z=              0.0428  Tot=              2.4756
 Quadrupole moment (field-independent basis, Debye-Ang):
   XX=           -187.1655   YY=           -156.1883   ZZ=           -174.0037
   XY=             -1.6963   XZ=              1.3916   YZ=             -1.6379

 Normal termination of Gaussian 16 at Sat Nov  5 09:52:51 2022.
