 Gaussian 16, Revision B.01,
 Gaussian 16:  ES64L-G16RevB.01 20-Dec-2017

 -------------------------------------------------------------------
 #p b3lyp/6-31g(d) 6D 10F nosymm GFInput td=(50-50,nstate=2) SCF=XQC
 -------------------------------------------------------------------

 ------------------------------
 Gaussian input prepared by ASE
 ------------------------------
 Symbolic Z-matrix:
 Charge =  0 Multiplicity = 1

                          Input orientation:
 ---------------------------------------------------------------------
 Center     Atomic      Atomic             Coordinates (Angstroms)
 Number     Number       Type             X           Y           Z
 ---------------------------------------------------------------------
      1          6           0       -6.531589   -3.135950   -0.740380
      2          6           0       -5.660401   -3.160288    0.528851
      3          6           0       -4.500146   -2.189928    0.463826
      4          6           0       -4.642740   -0.864093    0.893328
      5          6           0       -3.591071    0.045117    0.807333
      6          6           0       -2.366187   -0.362520    0.270728
      7          7           0       -1.288858    0.570409    0.170644
      8          6           0       -1.375168    1.873448   -0.332459
      9          7           0       -2.450437    2.455175   -0.787943
     10          6           0       -2.247551    3.735163   -1.231436
     11          6           0       -3.345482    4.465722   -1.750332
     12          6           0       -3.172258    5.755528   -2.201795
     13          6           0       -1.895990    6.371211   -2.154045
     14          6           0       -0.809628    5.688041   -1.656009
     15          6           0       -0.950647    4.357170   -1.182626
     16          7           0        0.150955    3.712469   -0.696614
     17          6           0       -0.061820    2.483170   -0.276662
     18          6           0        0.810196    1.490895    0.290795
     19          6           0        2.202429    1.474859    0.613327
     20          8           0        3.029300    2.358073    0.432185
     21          7           0        2.612789    0.216208    1.225673
     22          6           0        4.031924    0.175307    1.655261
     23          6           0        4.956174   -0.573711    0.715579
     24          6           0        5.050842   -0.202907   -0.633863
     25          6           0        5.922604   -0.875040   -1.489271
     26          6           0        6.719500   -1.917665   -1.008319
     27          6           0        6.642171   -2.282230    0.335547
     28          6           0        5.762915   -1.613513    1.190569
     29          6           0        1.749275   -0.832788    1.406497
     30          6           0        2.227991   -2.155600    1.964475
     31          6           0        2.366436   -3.220154    0.859093
     32          7           0        0.471528   -0.794117    1.084341
     33          6           0        0.033539    0.358501    0.544059
     34          6           0       -2.204103   -1.678207   -0.172456
     35          6           0       -3.262085   -2.577867   -0.064523
     36          1           0       -7.361158   -3.847728   -0.658824
     37          1           0       -5.942472   -3.399271   -1.625992
     38          1           0       -6.953432   -2.138618   -0.907626
     39          1           0       -6.286174   -2.925315    1.399162
     40          1           0       -5.279536   -4.177533    0.684806
     41          1           0       -5.591407   -0.536369    1.312601
     42          1           0       -3.718362    1.066587    1.145618
     43          1           0       -4.313121    3.973795   -1.778020
     44          1           0       -4.019082    6.308678   -2.598868
     45          1           0       -1.778873    7.389486   -2.514511
     46          1           0        0.178749    6.134664   -1.608057
     47          1           0        4.327272    1.225089    1.704142
     48          1           0        4.082776   -0.238520    2.664267
     49          1           0        4.452809    0.625221   -1.002904
     50          1           0        5.986907   -0.577850   -2.532595
     51          1           0        7.399819   -2.438066   -1.677011
     52          1           0        7.262096   -3.087470    0.720680
     53          1           0        5.709426   -1.901491    2.238680
     54          1           0        3.170782   -2.059486    2.503617
     55          1           0        1.467089   -2.480636    2.680891
     56          1           0        1.412881   -3.351521    0.339619
     57          1           0        2.655698   -4.179959    1.299906
     58          1           0        3.129062   -2.937502    0.127529
     59          1           0       -1.253953   -1.994273   -0.586490
     60          1           0       -3.122199   -3.601806   -0.403992
 ---------------------------------------------------------------------

 SCF Done:  E(RB3LYP) =  -1469.19065586     A.U. after   17 cycles

 Excitation energies and oscillator strengths:

 Excited state symmetry could not be determined.
 Excited State   1:      Triplet-?Sym    2.3963 eV  517.40 nm  f=0.0000  <S**2>=2.000
     118 ->122         0.13650
     121 ->122         0.65552
 This state for optimization and/or second-order correction.
 Total Energy, E(TD-HF/TD-DFT) =  -1469.10259396
 Copying the excited state density for this state as the 1-particle RhoCI density.

 Excited state symmetry could not be determined.
 Excited State   2:      Triplet-?Sym    2.8398 eV  436.60 nm  f=0.0000  <S**2>=2.000
     118 ->122        -0.16796
     120 ->122         0.66241

 Excited state symmetry could not be determined.
 Excited State   3:      Singlet-?Sym    3.3010 eV  375.60 nm  f=0.0405  <S**2>=0.000
     120 ->122        -0.16239
     121 ->122         0.67611

 Excited state symmetry could not be determined.
 Excited State   4:      Singlet-?Sym    3.4981 eV  354.43 nm  f=0.0066  <S**2>=0.000
     116 ->122        -0.11485
     118 ->122        -0.21611
     119 ->122         0.64286

 Alpha  occ. eigenvalues --  -19.11918 -14.40463 -14.39898 -14.33973 -14.33909
 Alpha  occ. eigenvalues --  -14.33405 -10.29792 -10.29358 -10.27681 -10.26417
 Alpha  occ. eigenvalues --  -10.23696 -10.23458 -10.23374 -10.22526 -10.22103
 Alpha  occ. eigenvalues --  -10.20974 -10.20663 -10.19910 -10.19754 -10.19662
 Alpha  occ. eigenvalues --  -10.19615 -10.19544 -10.19520 -10.19369 -10.19284
 Alpha  occ. eigenvalues --  -10.19276 -10.19190 -10.19069 -10.19035 -10.19016
 Alpha  occ. eigenvalues --  -10.19013 -10.18983 -10.18700 -10.18564 -10.17920
 Alpha  occ. eigenvalues --   -1.04721  -1.02316  -0.99027  -0.95899  -0.91700
 Alpha  occ. eigenvalues --   -0.90419  -0.86379  -0.86002  -0.83954  -0.81873
 Alpha  occ. eigenvalues --   -0.79503  -0.78232  -0.77226  -0.75016  -0.75002
 Alpha  occ. eigenvalues --   -0.74434  -0.73762  -0.72628  -0.70724  -0.69113
 Alpha  occ. eigenvalues --   -0.65775  -0.65488  -0.63590  -0.61745  -0.61414
 Alpha  occ. eigenvalues --   -0.61197  -0.60761  -0.59851  -0.58847  -0.57980
 Alpha  occ. eigenvalues --   -0.56437  -0.54627  -0.52662  -0.51820  -0.51253
 Alpha  occ. eigenvalues --   -0.50656  -0.49731  -0.48407  -0.47730  -0.47375
 Alpha  occ. eigenvalues --   -0.46671  -0.46333  -0.45704  -0.45436  -0.45169
 Alpha  occ. eigenvalues --   -0.44806  -0.44280  -0.43706  -0.42793  -0.42631
 Alpha  occ. eigenvalues --   -0.42518  -0.42185  -0.41907  -0.41660  -0.41418
 Alpha  occ. eigenvalues --   -0.40949  -0.40367  -0.39755  -0.39251  -0.38000
 Alpha  occ. eigenvalues --   -0.37382  -0.36750  -0.36519  -0.36316  -0.35807
 Alpha  occ. eigenvalues --   -0.35638  -0.35614  -0.35293  -0.34919  -0.34565
 Alpha  occ. eigenvalues --   -0.34120  -0.33824  -0.33722  -0.31922  -0.30649
 Alpha  occ. eigenvalues --   -0.28884  -0.28239  -0.26817  -0.26287  -0.25621
 Alpha  occ. eigenvalues --   -0.25254  -0.24898  -0.24162  -0.23792  -0.21984
 Alpha  occ. eigenvalues --   -0.21188
 Alpha virt. eigenvalues --   -0.07117  -0.02506  -0.01495  -0.00997  -0.00732
 Alpha virt. eigenvalues --   -0.00407  -0.00165   0.01905   0.02134   0.07574
 Alpha virt. eigenvalues --    0.08646   0.09714   0.10020   0.10262   0.10471

 Mulliken charges:
               1
     1  C   -0.433705
     2  C   -0.342568
     3  C    0.189673
     4  C   -0.202561
     5  C   -0.123329
     6  C    0.281553
     7  N   -0.708146
     8  C    0.538503
     9  N   -0.573706
    10  C    0.277438
    11  C   -0.169707
    12  C   -0.135988
    13  C   -0.135768
    14  C   -0.170085
    15  C    0.267008
    16  N   -0.567187
    17  C    0.214444
    18  C    0.027245
    19  C    0.581481
    20  O   -0.522950
    21  N   -0.524850
    22  C   -0.268832
    23  C    0.169080
    24  C   -0.182066
    25  C   -0.128789
    26  C   -0.128356
    27  C   -0.128393
    28  C   -0.190729
    29  C    0.514984
    30  C   -0.322085
    31  C   -0.452565
    32  N   -0.558566
    33  C    0.480367
    34  C   -0.122979
    35  C   -0.204039
    36  H    0.144579
    37  H    0.150405
    38  H    0.151700
    39  H    0.144576
    40  H    0.143573
    41  H    0.127954
    42  H    0.153106
    43  H    0.141571
    44  H    0.133288
    45  H    0.133738
    46  H    0.150266
    47  H    0.223567
    48  H    0.164379
    49  H    0.166196
    50  H    0.137907
    51  H    0.133730
    52  H    0.132873
    53  H    0.124179
    54  H    0.150544
    55  H    0.179519
    56  H    0.169184
    57  H    0.153076
    58  H    0.172417
    59  H    0.147937
    60  H    0.125911
 Sum of Mulliken charges =  -0.00000

 Dipole moment (field-independent basis, Debye):
    X=             -0.2236    Y=             -4.5148    Z=              1.2138  Tot=              4.6805
 Quadrupole moment (field-independent basis, Debye-Ang):
   XX=           -181.6918   YY=           -193.7187   ZZ=           -193.2872
   XY=            -16.4086   XZ=              3.0320   YZ=             -5.1598

 Normal termination of Gaussian 16 at Sat Nov  5 10:00:23 2022.
