 Gaussian 16, Revision B.01,
 Gaussian 16:  ES64L-G16RevB.01 20-Dec-2017

 -----------------------------
 #p b3lyp/6-31g(d) opt SCF=XQC
 -----------------------------

 ------------------------------
 Gaussian input prepared by ASE
 ------------------------------
 Symbolic Z-matrix:
 Charge =  0 Multiplicity = 1

 SCF Done:  E(RB3LYP) =  -1469.17991036     A.U. after   16 cycles
 SCF Done:  E(RB3LYP) =  -1469.18865550     A.U. after   13 cycles
 SCF Done:  E(RB3LYP) =  -1469.18980160     A.U. after   11 cycles
 SCF Done:  E(RB3LYP) =  -1469.19037257     A.U. after   12 cycles
 SCF Done:  E(RB3LYP) =  -1469.19057567     A.U. after   12 cycles
 SCF Done:  E(RB3LYP) =  -1469.19063223     A.U. after   12 cycles
 SCF Done:  E(RB3LYP) =  -1469.19064809     A.U. after   10 cycles
 SCF Done:  E(RB3LYP) =  -1469.19065438     A.U. after   10 cycles
 SCF Done:  E(RB3LYP) =  -1469.19065713     A.U. after   10 cycles
 SCF Done:  E(RB3LYP) =  -1469.19065879     A.U. after   10 cycles
 SCF Done:  E(RB3LYP) =  -1469.19065901     A.U. after    7 cycles
 Optimization completed.
    -- Stationary point found.

                         Standard orientation:
 ---------------------------------------------------------------------
 Center     Atomic      Atomic             Coordinates (Angstroms)
 Number     Number       Type             X           Y           Z
 ---------------------------------------------------------------------
      1          6           0       -5.586704    4.958074    1.298853
      2          6           0       -4.598385    5.043496    0.121383
      3          6           0       -3.730710    3.809647   -0.008140
      4          6           0       -4.148444    2.709739   -0.768628
      5          6           0       -3.372416    1.557318   -0.867488
      6          6           0       -2.153830    1.483235   -0.186303
      7          7           0       -1.360611    0.298457   -0.276389
      8          6           0       -1.824509   -1.013490   -0.127841
      9          7           0       -3.055150   -1.374414    0.111603
     10          6           0       -3.228352   -2.728648    0.222380
     11          6           0       -4.524971   -3.237369    0.483919
     12          6           0       -4.730053   -4.594664    0.598456
     13          6           0       -3.649852   -5.501945    0.456278
     14          6           0       -2.378505   -5.039268    0.202211
     15          6           0       -2.129752   -3.647138    0.078553
     16          7           0       -0.854668   -3.227315   -0.173005
     17          6           0       -0.706245   -1.923290   -0.274483
     18          6           0        0.443586   -1.097929   -0.526864
     19          6           0        1.823497   -1.381881   -0.767310
     20          8           0        2.378923   -2.471822   -0.778451
     21          7           0        2.600506   -0.172991   -1.017120
     22          6           0        4.024637   -0.415898   -1.353290
     23          6           0        4.993031   -0.184485   -0.210079
     24          6           0        4.838646   -0.872118    1.002678
     25          6           0        5.747024   -0.678708    2.042340
     26          6           0        6.827271    0.193658    1.882748
     27          6           0        6.996151    0.869494    0.674615
     28          6           0        6.081369    0.681201   -0.364161
     29          6           0        2.050977    1.081623   -0.965053
     30          6           0        2.903504    2.319357   -1.142682
     31          6           0        3.175540    3.018128    0.203433
     32          7           0        0.775619    1.313727   -0.725256
     33          6           0        0.006561    0.228196   -0.519252
     34          6           0       -1.721423    2.565220    0.585738
     35          6           0       -2.503403    3.715549    0.660671
     36          1           0       -6.198631    5.865267    1.362201
     37          1           0       -5.055212    4.838468    2.249598
     38          1           0       -6.259267    4.100565    1.185132
     39          1           0       -5.159837    5.195866   -0.809102
     40          1           0       -3.961580    5.927988    0.249128
     41          1           0       -5.094801    2.756753   -1.302821
     42          1           0       -3.710183    0.716324   -1.461359
     43          1           0       -5.336746   -2.524018    0.589917
     44          1           0       -5.727201   -4.976655    0.799779
     45          1           0       -3.831113   -6.569165    0.549665
     46          1           0       -1.533225   -5.711128    0.089224
     47          1           0        4.053516   -1.464711   -1.654651
     48          1           0        4.291011    0.193148   -2.219338
     49          1           0        4.015700   -1.571371    1.118595
     50          1           0        5.616500   -1.217774    2.976874
     51          1           0        7.535009    0.340472    2.694137
     52          1           0        7.836298    1.545240    0.538361
     53          1           0        6.220551    1.209872   -1.305153
     54          1           0        3.847820    2.102165   -1.642543
     55          1           0        2.333696    2.995283   -1.787907
     56          1           0        2.231861    3.275754    0.692799
     57          1           0        3.742326    3.940235    0.037042
     58          1           0        3.755815    2.377795    0.874202
     59          1           0       -0.775941    2.508141    1.111963
     60          1           0       -2.153042    4.555185    1.256922
 ---------------------------------------------------------------------

 The electronic state is 1-A.
 Alpha  occ. eigenvalues --  -19.11918 -14.40463 -14.39898 -14.33973 -14.33909
 Alpha  occ. eigenvalues --  -14.33405 -10.29792 -10.29358 -10.27681 -10.26417
 Alpha  occ. eigenvalues --  -10.23696 -10.23458 -10.23374 -10.22526 -10.22103
 Alpha  occ. eigenvalues --  -10.20974 -10.20663 -10.19910 -10.19754 -10.19662
 Alpha  occ. eigenvalues --  -10.19615 -10.19544 -10.19520 -10.19369 -10.19284
 Alpha  occ. eigenvalues --  -10.19276 -10.19190 -10.19069 -10.19035 -10.19016
 Alpha  occ. eigenvalues --  -10.19013 -10.18983 -10.18700 -10.18565 -10.17920
 Alpha  occ. eigenvalues --   -1.04721  -1.02316  -0.99027  -0.95899  -0.91700
 Alpha  occ. eigenvalues --   -0.90419  -0.86379  -0.86001  -0.83954  -0.81873
 Alpha  occ. eigenvalues --   -0.79503  -0.78232  -0.77225  -0.75016  -0.75002
 Alpha  occ. eigenvalues --   -0.74434  -0.73762  -0.72628  -0.70724  -0.69113
 Alpha  occ. eigenvalues --   -0.65775  -0.65488  -0.63590  -0.61745  -0.61414
 Alpha  occ. eigenvalues --   -0.61197  -0.60761  -0.59851  -0.58847  -0.57980
 Alpha  occ. eigenvalues --   -0.56437  -0.54627  -0.52662  -0.51820  -0.51253
 Alpha  occ. eigenvalues --   -0.50656  -0.49732  -0.48407  -0.47730  -0.47375
 Alpha  occ. eigenvalues --   -0.46671  -0.46333  -0.45704  -0.45436  -0.45169
 Alpha  occ. eigenvalues --   -0.44806  -0.44280  -0.43706  -0.42793  -0.42631
 Alpha  occ. eigenvalues --   -0.42518  -0.42185  -0.41907  -0.41660  -0.41418
 Alpha  occ. eigenvalues --   -0.40949  -0.40367  -0.39755  -0.39251  -0.38000
 Alpha  occ. eigenvalues --   -0.37382  -0.36750  -0.36519  -0.36316  -0.35807
 Alpha  occ. eigenvalues --   -0.35638  -0.35614  -0.35293  -0.34919  -0.34565
 Alpha  occ. eigenvalues --   -0.34120  -0.33824  -0.33722  -0.31922  -0.30649
 Alpha  occ. eigenvalues --   -0.28884  -0.28239  -0.26817  -0.26287  -0.25621
 Alpha  occ. eigenvalues --   -0.25254  -0.24898  -0.24162  -0.23792  -0.21984
 Alpha  occ. eigenvalues --   -0.21188
 Alpha virt. eigenvalues --   -0.07117  -0.02506  -0.01495  -0.00996  -0.00732
 Alpha virt. eigenvalues --   -0.00407  -0.00165   0.01905   0.02134   0.07574
 Alpha virt. eigenvalues --    0.08646   0.09714   0.10020   0.10262   0.10471

 Mulliken charges:
               1
     1  C   -0.433699
     2  C   -0.342565
     3  C    0.189668
     4  C   -0.202554
     5  C   -0.123331
     6  C    0.281551
     7  N   -0.708149
     8  C    0.538481
     9  N   -0.573700
    10  C    0.277459
    11  C   -0.169705
    12  C   -0.135997
    13  C   -0.135763
    14  C   -0.170083
    15  C    0.266992
    16  N   -0.567166
    17  C    0.214422
    18  C    0.027269
    19  C    0.581480
    20  O   -0.522952
    21  N   -0.524849
    22  C   -0.268846
    23  C    0.169094
    24  C   -0.182062
    25  C   -0.128794
    26  C   -0.128351
    27  C   -0.128396
    28  C   -0.190729
    29  C    0.514955
    30  C   -0.322080
    31  C   -0.452561
    32  N   -0.558561
    33  C    0.480369
    34  C   -0.122975
    35  C   -0.204044
    36  H    0.144577
    37  H    0.150403
    38  H    0.151698
    39  H    0.144576
    40  H    0.143571
    41  H    0.127954
    42  H    0.153110
    43  H    0.141567
    44  H    0.133290
    45  H    0.133739
    46  H    0.150265
    47  H    0.223568
    48  H    0.164380
    49  H    0.166195
    50  H    0.137907
    51  H    0.133729
    52  H    0.132872
    53  H    0.124176
    54  H    0.150548
    55  H    0.179519
    56  H    0.169183
    57  H    0.153076
    58  H    0.172413
    59  H    0.147943
    60  H    0.125911
 Sum of Mulliken charges =  -0.00000

 Dipole moment (field-independent basis, Debye):
    X=              1.0443    Y=              4.5623    Z=             -0.0287  Tot=              4.6804
 Quadrupole moment (field-independent basis, Debye-Ang):
   XX=           -173.7846   YY=           -195.1369   ZZ=           -195.7197
   XY=             12.4610   XZ=              0.9518   YZ=             -3.7435

 Normal termination of Gaussian 16 at Fri Nov  4 23:04:36 2022.
