 Gaussian 16, Revision B.01,
 Gaussian 16:  ES64L-G16RevB.01 20-Dec-2017

 -----------------------------
 #p b3lyp/6-31g(d) opt SCF=XQC
 -----------------------------

 ------------------------------
 Gaussian input prepared by ASE
 ------------------------------
 Symbolic Z-matrix:
 Charge =  0 Multiplicity = 1

 SCF Done:  E(RB3LYP) =  -1144.37548438     A.U. after   15 cycles
 SCF Done:  E(RB3LYP) =  -1144.38098794     A.U. after   12 cycles
 SCF Done:  E(RB3LYP) =  -1144.38120216     A.U. after   10 cycles
 SCF Done:  E(RB3LYP) =  -1144.38124254     A.U. after   10 cycles
 SCF Done:  E(RB3LYP) =  -1144.38125113     A.U. after    9 cycles
 SCF Done:  E(RB3LYP) =  -1144.38126561     A.U. after   10 cycles
 SCF Done:  E(RB3LYP) =  -1144.38129558     A.U. after   11 cycles
 SCF Done:  E(RB3LYP) =  -1144.38104647     A.U. after   14 cycles
 SCF Done:  E(RB3LYP) =  -1144.38141358     A.U. after   11 cycles
 SCF Done:  E(RB3LYP) =  -1144.38150336     A.U. after   12 cycles
 SCF Done:  E(RB3LYP) =  -1144.38177602     A.U. after   10 cycles
 SCF Done:  E(RB3LYP) =  -1144.38178104     A.U. after   10 cycles
 SCF Done:  E(RB3LYP) =  -1144.38178203     A.U. after   10 cycles
 SCF Done:  E(RB3LYP) =  -1144.38178240     A.U. after    7 cycles
 SCF Done:  E(RB3LYP) =  -1144.38178362     A.U. after    9 cycles
 SCF Done:  E(RB3LYP) =  -1144.38178657     A.U. after   11 cycles
 SCF Done:  E(RB3LYP) =  -1144.38178804     A.U. after   10 cycles
 SCF Done:  E(RB3LYP) =  -1144.38178898     A.U. after    9 cycles
 SCF Done:  E(RB3LYP) =  -1144.38178922     A.U. after    7 cycles
 SCF Done:  E(RB3LYP) =  -1144.38178925     A.U. after    7 cycles
 Optimization completed.
    -- Stationary point found.

                         Standard orientation:
 ---------------------------------------------------------------------
 Center     Atomic      Atomic             Coordinates (Angstroms)
 Number     Number       Type             X           Y           Z
 ---------------------------------------------------------------------
      1          6           0        8.691690   -0.472636    0.145664
      2          6           0        8.318492    0.742157   -0.430709
      3          6           0        6.973592    1.097756   -0.524543
      4          6           0        5.992429    0.236145   -0.020553
      5          7           0        4.620993    0.592668   -0.088997
      6          6           0        4.078932    1.843086   -0.208023
      7          6           0        2.713763    1.690187   -0.211867
      8          6           0        2.497402    0.288918   -0.084166
      9          6           0        1.222422   -0.446743   -0.040408
     10          6           0        1.210235   -1.850952   -0.039709
     11          6           0       -0.000000   -2.539401   -0.000008
     12          6           0       -1.210235   -1.850952    0.039697
     13          6           0       -1.222422   -0.446743    0.040404
     14          6           0       -2.497402    0.288918    0.084168
     15          6           0       -2.713762    1.690186    0.211878
     16          6           0       -4.078931    1.843086    0.208035
     17          7           0       -4.620993    0.592670    0.088999
     18          6           0       -5.992429    0.236146    0.020553
     19          6           0       -6.358001   -0.985943   -0.555505
     20          6           0       -7.704665   -1.333726   -0.630696
     21          6           0       -8.691690   -0.472638   -0.145664
     22          6           0       -8.318495    0.742167    0.430684
     23          6           0       -6.973595    1.097768    0.524518
     24          7           0       -3.662417   -0.361676    0.008494
     25          6           0       -0.000000    0.237281    0.000001
     26          7           0        3.662417   -0.361677   -0.008498
     27          6           0        6.358003   -0.985931    0.555531
     28          6           0        7.704668   -1.333713    0.630720
     29          1           0        9.740328   -0.747920    0.211335
     30          1           0        9.074613    1.415729   -0.824491
     31          1           0        6.693130    2.028159   -1.007491
     32          1           0        4.694232    2.728589   -0.252811
     33          1           0        1.979975    2.477982   -0.294822
     34          1           0        2.153251   -2.385759   -0.073303
     35          1           0       -0.000001   -3.626350   -0.000012
     36          1           0       -2.153252   -2.385759    0.073288
     37          1           0       -1.979975    2.477980    0.294839
     38          1           0       -4.694229    2.728590    0.252830
     39          1           0       -5.582444   -1.641725   -0.931855
     40          1           0       -7.982936   -2.283555   -1.079038
     41          1           0       -9.740327   -0.747925   -0.211335
     42          1           0       -9.074618    1.415748    0.824446
     43          1           0       -6.693139    2.028183    1.007446
     44          1           0        0.000000    1.322831    0.000004
     45          1           0        5.582449   -1.641705    0.931900
     46          1           0        7.982943   -2.283532    1.079082
 ---------------------------------------------------------------------

 The electronic state is 1-A.
 Alpha  occ. eigenvalues --  -14.42014 -14.42014 -14.34493 -14.34493 -10.24033
 Alpha  occ. eigenvalues --  -10.24033 -10.22508 -10.22508 -10.21336 -10.21336
 Alpha  occ. eigenvalues --  -10.20024 -10.20024 -10.19833 -10.19833 -10.19606
 Alpha  occ. eigenvalues --  -10.19606 -10.19379 -10.19377 -10.19329 -10.19329
 Alpha  occ. eigenvalues --  -10.19285 -10.19285 -10.18510 -10.18464 -10.18464
 Alpha  occ. eigenvalues --  -10.18107 -10.17845 -10.17839  -1.05138  -1.05136
 Alpha  occ. eigenvalues --   -0.88086  -0.87835  -0.85349  -0.83298  -0.82079
 Alpha  occ. eigenvalues --   -0.78817  -0.78773  -0.76115  -0.75163  -0.75063
 Alpha  occ. eigenvalues --   -0.75023  -0.72355  -0.71846  -0.64290  -0.63701
 Alpha  occ. eigenvalues --   -0.63310  -0.62626  -0.60592  -0.59963  -0.58172
 Alpha  occ. eigenvalues --   -0.56951  -0.56824  -0.54922  -0.54730  -0.53991
 Alpha  occ. eigenvalues --   -0.50881  -0.49726  -0.48777  -0.46972  -0.46418
 Alpha  occ. eigenvalues --   -0.46154  -0.46131  -0.45232  -0.44902  -0.44514
 Alpha  occ. eigenvalues --   -0.43708  -0.42951  -0.42770  -0.42709  -0.42678
 Alpha  occ. eigenvalues --   -0.42220  -0.40886  -0.39775  -0.39540  -0.37821
 Alpha  occ. eigenvalues --   -0.37129  -0.36671  -0.36617  -0.35998  -0.35305
 Alpha  occ. eigenvalues --   -0.35242  -0.34242  -0.33700  -0.31042  -0.28995
 Alpha  occ. eigenvalues --   -0.28804  -0.28777  -0.26211  -0.25796  -0.25712
 Alpha  occ. eigenvalues --   -0.25394  -0.24475  -0.23988  -0.21321  -0.20277
 Alpha virt. eigenvalues --   -0.03662  -0.02477  -0.00809  -0.00802  -0.00043
 Alpha virt. eigenvalues --    0.00028   0.03994   0.04512   0.07494   0.08529
 Alpha virt. eigenvalues --    0.08697   0.09437   0.11410   0.11459   0.11997

 Mulliken charges:
               1
     1  C   -0.122338
     2  C   -0.142158
     3  C   -0.166580
     4  C    0.328866
     5  N   -0.353713
     6  C    0.080898
     7  C   -0.286616
     8  C    0.287749
     9  C    0.118180
    10  C   -0.172077
    11  C   -0.134987
    12  C   -0.172077
    13  C    0.118180
    14  C    0.287750
    15  C   -0.286616
    16  C    0.080898
    17  N   -0.353715
    18  C    0.328868
    19  C   -0.146813
    20  C   -0.141025
    21  C   -0.122338
    22  C   -0.142158
    23  C   -0.166580
    24  N   -0.389983
    25  C   -0.243164
    26  N   -0.389983
    27  C   -0.146813
    28  C   -0.141025
    29  H    0.132675
    30  H    0.135248
    31  H    0.137523
    32  H    0.165666
    33  H    0.139792
    34  H    0.151763
    35  H    0.128838
    36  H    0.151762
    37  H    0.139792
    38  H    0.165666
    39  H    0.169276
    40  H    0.137473
    41  H    0.132675
    42  H    0.135248
    43  H    0.137522
    44  H    0.121703
    45  H    0.169276
    46  H    0.137473
 Sum of Mulliken charges =  -0.00000

 Dipole moment (field-independent basis, Debye):
    X=              0.0000    Y=              2.8361    Z=              0.0000  Tot=              2.8361
 Quadrupole moment (field-independent basis, Debye-Ang):
   XX=           -115.0849   YY=           -141.4065   ZZ=           -165.9955
   XY=             -0.0000   XZ=             -1.1353   YZ=             -0.0001

 1\1\GINC-NODE93\FOpt\RB3LYP\6-31G(d)\C24H18N4\WYKGROUP\04-Nov-2022\0\\
 #p b3lyp/6-31g(d) opt SCF=XQC\\Gaussian input prepared by ASE\\0,1\C,-
 8.6646713912,0.6911529652,-0.3328441122\C,-8.3172515592,-0.6594327367,
 -0.3820524724\C,-6.9847795529,-1.0525043791,-0.2636262357\C,-5.9910327
 16,-0.0847447716,-0.0766269757\N,-4.6331049654,-0.4695138975,0.0669535
 192\C,-4.1365431249,-1.6814536526,0.4621367812\C,-2.7673165252,-1.5708
 915209,0.4706507115\C,-2.5010270022,-0.2325218955,0.0650282516\C,-1.20
 07259575,0.4363849174,-0.1095209459\C,-1.1331626092,1.7331939512,-0.64

 Normal termination of Gaussian 16 at Fri Nov  4 10:05:07 2022.
