 Gaussian 16, Revision B.01,
 Gaussian 16:  ES64L-G16RevB.01 20-Dec-2017

 -------------------------------------------------------------------
 #p b3lyp/6-31g(d) 6D 10F nosymm GFInput td=(50-50,nstate=2) SCF=XQC
 -------------------------------------------------------------------

 ------------------------------
 Gaussian input prepared by ASE
 ------------------------------
 Symbolic Z-matrix:
 Charge =  0 Multiplicity = 1

                          Input orientation:
 ---------------------------------------------------------------------
 Center     Atomic      Atomic             Coordinates (Angstroms)
 Number     Number       Type             X           Y           Z
 ---------------------------------------------------------------------
      1          6           0       -8.664671    0.691153   -0.332844
      2          6           0       -8.317252   -0.659433   -0.382052
      3          6           0       -6.984780   -1.052504   -0.263626
      4          6           0       -5.991033   -0.084745   -0.076627
      5          7           0       -4.633105   -0.469514    0.066954
      6          6           0       -4.136543   -1.681454    0.462137
      7          6           0       -2.767317   -1.570892    0.470651
      8          6           0       -2.501027   -0.232522    0.065028
      9          6           0       -1.200726    0.436385   -0.109521
     10          6           0       -1.133163    1.733194   -0.644007
     11          6           0        0.100791    2.358329   -0.807626
     12          6           0        1.280400    1.711887   -0.445904
     13          6           0        1.237117    0.415095    0.091136
     14          6           0        2.479346   -0.274777    0.477956
     15          6           0        2.635021   -1.524575    1.141614
     16          6           0        3.992178   -1.696420    1.266803
     17          7           0        4.587447   -0.598819    0.707815
     18          6           0        5.973518   -0.325081    0.579340
     19          6           0        6.409491    0.575101   -0.399733
     20          6           0        7.770750    0.838712   -0.532376
     21          6           0        8.703106    0.208156    0.294702
     22          6           0        8.259796   -0.685027    1.270871
     23          6           0        6.899255   -0.948755    1.423794
     24          7           0        3.671209    0.272179    0.219966
     25          6           0       -0.008802   -0.205962    0.251790
     26          7           0       -3.641534    0.422182   -0.173440
     27          6           0       -6.330542    1.272294   -0.030071
     28          6           0       -7.664348    1.651043   -0.162813
     29          1           0       -9.703401    0.992938   -0.431342
     30          1           0       -9.083236   -1.416137   -0.527478
     31          1           0       -6.722415   -2.102693   -0.339899
     32          1           0       -4.784066   -2.503231    0.726924
     33          1           0       -2.062492   -2.345877    0.732503
     34          1           0       -2.052274    2.234377   -0.927689
     35          1           0        0.143692    3.362136   -1.222341
     36          1           0        2.241728    2.198502   -0.570322
     37          1           0        1.868010   -2.204660    1.480914
     38          1           0        4.569799   -2.510184    1.677727
     39          1           0        5.675882    1.053160   -1.037271
     40          1           0        8.103773    1.538238   -1.294203
     41          1           0        9.763566    0.414829    0.183137
     42          1           0        8.972613   -1.172440    1.930267
     43          1           0        6.563451   -1.617060    2.210021
     44          1           0       -0.051648   -1.208477    0.665971
     45          1           0       -5.545169    2.005477    0.107076
     46          1           0       -7.922398    2.705869   -0.125755
 ---------------------------------------------------------------------

 SCF Done:  E(RB3LYP) =  -1144.38179275     A.U. after   15 cycles

 Excitation energies and oscillator strengths:

 Excited state symmetry could not be determined.
 Excited State   1:      Triplet-?Sym    2.9024 eV  427.18 nm  f=0.0000  <S**2>=2.000
      92 ->100        -0.10231
      93 -> 96         0.12356
      94 -> 97        -0.21002
      94 ->100         0.11477
      95 -> 96         0.57568
      95 ->101         0.17275
 This state for optimization and/or second-order correction.
 Total Energy, E(TD-HF/TD-DFT) =  -1144.27513177
 Copying the excited state density for this state as the 1-particle RhoCI density.

 Excited state symmetry could not be determined.
 Excited State   2:      Triplet-?Sym    3.3078 eV  374.83 nm  f=0.0000  <S**2>=2.000
      88 -> 97         0.12706
      89 -> 99        -0.12166
      90 -> 98         0.14227
      91 -> 96         0.10466
      94 -> 96         0.44640
      95 -> 97        -0.41804

 Excited state symmetry could not be determined.
 Excited State   3:      Singlet-?Sym    4.1995 eV  295.23 nm  f=0.0176  <S**2>=0.000
      95 -> 96         0.70145

 Excited state symmetry could not be determined.
 Excited State   4:      Singlet-?Sym    4.2325 eV  292.94 nm  f=0.3923  <S**2>=0.000
      94 -> 96         0.64351
      95 -> 97         0.15327
      95 ->100        -0.16907

 Alpha  occ. eigenvalues --  -14.42014 -14.42014 -14.34493 -14.34493 -10.24033
 Alpha  occ. eigenvalues --  -10.24033 -10.22508 -10.22508 -10.21336 -10.21336
 Alpha  occ. eigenvalues --  -10.20024 -10.20024 -10.19833 -10.19833 -10.19606
 Alpha  occ. eigenvalues --  -10.19606 -10.19379 -10.19377 -10.19329 -10.19329
 Alpha  occ. eigenvalues --  -10.19285 -10.19285 -10.18510 -10.18464 -10.18464
 Alpha  occ. eigenvalues --  -10.18107 -10.17845 -10.17839  -1.05138  -1.05136
 Alpha  occ. eigenvalues --   -0.88086  -0.87835  -0.85349  -0.83298  -0.82079
 Alpha  occ. eigenvalues --   -0.78817  -0.78773  -0.76115  -0.75163  -0.75063
 Alpha  occ. eigenvalues --   -0.75023  -0.72355  -0.71846  -0.64290  -0.63701
 Alpha  occ. eigenvalues --   -0.63310  -0.62626  -0.60592  -0.59963  -0.58172
 Alpha  occ. eigenvalues --   -0.56951  -0.56824  -0.54922  -0.54730  -0.53991
 Alpha  occ. eigenvalues --   -0.50881  -0.49726  -0.48777  -0.46972  -0.46418
 Alpha  occ. eigenvalues --   -0.46154  -0.46131  -0.45232  -0.44902  -0.44514
 Alpha  occ. eigenvalues --   -0.43708  -0.42951  -0.42770  -0.42709  -0.42678
 Alpha  occ. eigenvalues --   -0.42220  -0.40886  -0.39775  -0.39540  -0.37821
 Alpha  occ. eigenvalues --   -0.37129  -0.36671  -0.36617  -0.35998  -0.35305
 Alpha  occ. eigenvalues --   -0.35242  -0.34242  -0.33701  -0.31042  -0.28995
 Alpha  occ. eigenvalues --   -0.28804  -0.28777  -0.26211  -0.25796  -0.25712
 Alpha  occ. eigenvalues --   -0.25394  -0.24475  -0.23988  -0.21321  -0.20277
 Alpha virt. eigenvalues --   -0.03662  -0.02477  -0.00809  -0.00802  -0.00043
 Alpha virt. eigenvalues --    0.00028   0.03994   0.04512   0.07494   0.08529
 Alpha virt. eigenvalues --    0.08697   0.09437   0.11410   0.11459   0.11997

 Mulliken charges:
               1
     1  C   -0.122333
     2  C   -0.142174
     3  C   -0.166552
     4  C    0.328833
     5  N   -0.353704
     6  C    0.080898
     7  C   -0.286614
     8  C    0.287740
     9  C    0.118180
    10  C   -0.172077
    11  C   -0.134983
    12  C   -0.172090
    13  C    0.118190
    14  C    0.287751
    15  C   -0.286611
    16  C    0.080896
    17  N   -0.353714
    18  C    0.328872
    19  C   -0.146813
    20  C   -0.141027
    21  C   -0.122338
    22  C   -0.142158
    23  C   -0.166583
    24  N   -0.389984
    25  C   -0.243160
    26  N   -0.389981
    27  C   -0.146802
    28  C   -0.141030
    29  H    0.132676
    30  H    0.135249
    31  H    0.137521
    32  H    0.165665
    33  H    0.139792
    34  H    0.151764
    35  H    0.128837
    36  H    0.151762
    37  H    0.139792
    38  H    0.165665
    39  H    0.169276
    40  H    0.137473
    41  H    0.132675
    42  H    0.135248
    43  H    0.137522
    44  H    0.121703
    45  H    0.169276
    46  H    0.137473
 Sum of Mulliken charges =  -0.00000

 Dipole moment (field-independent basis, Debye):
    X=             -0.1120    Y=             -2.6192    Z=              1.0821  Tot=              2.8361
 Quadrupole moment (field-independent basis, Debye-Ang):
   XX=           -115.2949   YY=           -145.0885   ZZ=           -161.8237
   XY=              0.2421   XZ=              3.2774   YZ=             -9.1281

 Normal termination of Gaussian 16 at Sat Nov  5 09:52:36 2022.
