 Gaussian 16, Revision B.01,
 Gaussian 16:  ES64L-G16RevB.01 20-Dec-2017

 -----------------------------
 #p b3lyp/6-31g(d) opt SCF=XQC
 -----------------------------

 ------------------------------
 Gaussian input prepared by ASE
 ------------------------------
 Symbolic Z-matrix:
 Charge =  0 Multiplicity = 1

 SCF Done:  E(RB3LYP) =  -1229.45207367     A.U. after   15 cycles
 SCF Done:  E(RB3LYP) =  -1229.45690343     A.U. after   12 cycles
 SCF Done:  E(RB3LYP) =  -1229.45708610     A.U. after   12 cycles
 SCF Done:  E(RB3LYP) =  -1229.45716148     A.U. after   11 cycles
 SCF Done:  E(RB3LYP) =  -1229.45710494     A.U. after   11 cycles
 SCF Done:  E(RB3LYP) =  -1229.45721840     A.U. after   11 cycles
 SCF Done:  E(RB3LYP) =  -1229.45724140     A.U. after   11 cycles
 SCF Done:  E(RB3LYP) =  -1229.45725009     A.U. after   11 cycles
 SCF Done:  E(RB3LYP) =  -1229.45725434     A.U. after    9 cycles
 SCF Done:  E(RB3LYP) =  -1229.45725644     A.U. after   10 cycles
 SCF Done:  E(RB3LYP) =  -1229.45725689     A.U. after    8 cycles
 SCF Done:  E(RB3LYP) =  -1229.45725694     A.U. after    7 cycles
 SCF Done:  E(RB3LYP) =  -1229.45725695     A.U. after    6 cycles
 Optimization completed.
    -- Stationary point found.

                         Standard orientation:
 ---------------------------------------------------------------------
 Center     Atomic      Atomic             Coordinates (Angstroms)
 Number     Number       Type             X           Y           Z
 ---------------------------------------------------------------------
      1          8           0       -7.522957    1.765534    0.471427
      2          6           0       -7.330682    0.653754    0.014516
      3          6           0       -6.021358   -0.028319   -0.019468
      4          6           0       -5.909720   -1.313599   -0.564017
      5          6           0       -4.678638   -1.958191   -0.593948
      6          6           0       -3.519911   -1.338143   -0.085599
      7          6           0       -2.250643   -2.062388   -0.152549
      8          6           0       -1.024375   -1.572799    0.136192
      9          6           0        0.230139   -2.331137    0.086594
     10          6           0        0.212410   -3.743118    0.273812
     11          6           0        1.368456   -4.476438    0.289958
     12          6           0        2.628068   -3.852852    0.091192
     13          6           0        3.827439   -4.611018    0.080599
     14          6           0        5.043975   -4.011698   -0.153077
     15          6           0        5.100784   -2.621927   -0.404220
     16          6           0        3.954865   -1.856954   -0.387579
     17          6           0        2.681600   -2.432935   -0.112989
     18          6           0        1.459725   -1.670527   -0.080155
     19          6           0        1.458279   -0.204855   -0.264585
     20          6           0        2.225880    0.675263    0.411144
     21          6           0        2.227381    2.133304    0.258256
     22          6           0        2.904841    2.911766    1.216359
     23          6           0        2.927211    4.299066    1.126116
     24          6           0        2.277665    4.948709    0.069462
     25          6           0        2.306748    6.422769   -0.027640
     26          8           0        1.778005    7.070008   -0.912278
     27          6           0        1.606463    4.182729   -0.899439
     28          6           0        1.584723    2.800947   -0.808502
     29          6           0       -3.649091   -0.043699    0.468642
     30          6           0       -4.874729    0.599392    0.498430
     31          1           0       -8.169790    0.066396   -0.421554
     32          1           0       -6.793425   -1.806885   -0.963734
     33          1           0       -4.600657   -2.955501   -1.019767
     34          1           0       -2.333726   -3.090752   -0.500982
     35          1           0       -0.934790   -0.529874    0.427940
     36          1           0       -0.737408   -4.234810    0.458329
     37          1           0        1.335742   -5.549629    0.461399
     38          1           0        3.763434   -5.683121    0.251067
     39          1           0        5.955044   -4.603502   -0.163235
     40          1           0        6.056295   -2.152920   -0.622997
     41          1           0        4.019402   -0.798796   -0.609227
     42          1           0        0.732268    0.178258   -0.979820
     43          1           0        2.897017    0.292707    1.178575
     44          1           0        3.410706    2.414627    2.040288
     45          1           0        3.452122    4.886005    1.877063
     46          1           0        2.864759    6.929777    0.791218
     47          1           0        1.115951    4.699767   -1.718602
     48          1           0        1.079043    2.225862   -1.578338
     49          1           0       -2.780018    0.452752    0.889358
     50          1           0       -4.977394    1.592698    0.924818
 ---------------------------------------------------------------------

 The electronic state is 1-A.
 Alpha  occ. eigenvalues --  -19.14491 -19.14275 -10.27471 -10.27264 -10.22258
 Alpha  occ. eigenvalues --  -10.22042 -10.21632 -10.21361 -10.21301 -10.21214
 Alpha  occ. eigenvalues --  -10.21168 -10.21089 -10.21077 -10.20875 -10.20857
 Alpha  occ. eigenvalues --  -10.20798 -10.20781 -10.20764 -10.20726 -10.20683
 Alpha  occ. eigenvalues --  -10.20630 -10.20528 -10.20488 -10.20450 -10.20127
 Alpha  occ. eigenvalues --  -10.20059 -10.19966 -10.19891 -10.19858 -10.19675
 Alpha  occ. eigenvalues --   -1.03938  -1.03717  -0.88771  -0.87711  -0.87504
 Alpha  occ. eigenvalues --   -0.84369  -0.81961  -0.80852  -0.78857  -0.76986
 Alpha  occ. eigenvalues --   -0.76430  -0.76210  -0.75117  -0.73443  -0.72212
 Alpha  occ. eigenvalues --   -0.67120  -0.65984  -0.63541  -0.63092  -0.62814
 Alpha  occ. eigenvalues --   -0.62145  -0.60609  -0.57922  -0.57820  -0.57116
 Alpha  occ. eigenvalues --   -0.56988  -0.52940  -0.52193  -0.51635  -0.51208
 Alpha  occ. eigenvalues --   -0.49943  -0.48500  -0.48000  -0.47606  -0.46997
 Alpha  occ. eigenvalues --   -0.45973  -0.45144  -0.44799  -0.44064  -0.43761
 Alpha  occ. eigenvalues --   -0.43541  -0.43253  -0.42734  -0.42241  -0.42068
 Alpha  occ. eigenvalues --   -0.41093  -0.40847  -0.40655  -0.40415  -0.40013
 Alpha  occ. eigenvalues --   -0.39352  -0.38114  -0.37520  -0.37444  -0.37249
 Alpha  occ. eigenvalues --   -0.36641  -0.35526  -0.35234  -0.34903  -0.34453
 Alpha  occ. eigenvalues --   -0.33317  -0.31406  -0.30960  -0.29044  -0.26995
 Alpha  occ. eigenvalues --   -0.26781  -0.26482  -0.25549  -0.25350  -0.24678
 Alpha  occ. eigenvalues --   -0.23149  -0.20799
 Alpha virt. eigenvalues --   -0.08991  -0.07290  -0.04496  -0.02827  -0.01996
 Alpha virt. eigenvalues --   -0.01457  -0.00765   0.01450   0.03139   0.06447
 Alpha virt. eigenvalues --    0.06829   0.08615   0.09268   0.09411   0.09445

 Mulliken charges:
               1
     1  O   -0.408967
     2  C    0.191693
     3  C    0.098451
     4  C   -0.180875
     5  C   -0.200088
     6  C    0.183033
     7  C   -0.179733
     8  C   -0.197256
     9  C    0.115494
    10  C   -0.187874
    11  C   -0.192955
    12  C    0.143244
    13  C   -0.196709
    14  C   -0.130924
    15  C   -0.137572
    16  C   -0.197924
    17  C    0.080795
    18  C    0.015978
    19  C   -0.217784
    20  C   -0.173014
    21  C    0.177962
    22  C   -0.198689
    23  C   -0.180317
    24  C    0.098018
    25  C    0.192554
    26  O   -0.407432
    27  C   -0.161599
    28  C   -0.181808
    29  C   -0.180995
    30  C   -0.162824
    31  H    0.100821
    32  H    0.141783
    33  H    0.136498
    34  H    0.134509
    35  H    0.147931
    36  H    0.135077
    37  H    0.134826
    38  H    0.133306
    39  H    0.134479
    40  H    0.133665
    41  H    0.145356
    42  H    0.153712
    43  H    0.146258
    44  H    0.139390
    45  H    0.143076
    46  H    0.102128
    47  H    0.166607
    48  H    0.141313
    49  H    0.141557
    50  H    0.165825
 Sum of Mulliken charges =  -0.00000

 Dipole moment (field-independent basis, Debye):
    X=              3.4842    Y=             -5.9538    Z=              0.7723  Tot=              6.9415
 Quadrupole moment (field-independent basis, Debye-Ang):
   XX=           -176.0238   YY=           -187.2499   ZZ=           -172.7123
   XY=             17.1445   XZ=             13.4021   YZ=             11.3327

 1\1\GINC-NODE40\FOpt\RB3LYP\6-31G(d)\C28H20O2\WYKGROUP\04-Nov-2022\0\\
 #p b3lyp/6-31g(d) opt SCF=XQC\\Gaussian input prepared by ASE\\0,1\O,5
 .9961664149,5.0405659353,1.098487716\C,6.216022847,3.9225718646,1.5269
 069404\C,5.3479436556,2.7489770307,1.3037006739\C,5.696522859,1.502276
 0073,1.8377149262\C,4.8821185741,0.3959987467,1.625929622\C,3.69214846
 95,0.5006749482,0.8785733381\C,2.8711388743,-0.6963631923,0.6966535653
 \C,1.6351592056,-0.7538789218,0.1527327445\C,0.8451758328,-1.974187661
 9,-0.0424902386\C,1.5039975258,-3.2278238197,-0.1954788849\C,0.8028279

 Normal termination of Gaussian 16 at Fri Nov  4 23:01:00 2022.
