 Gaussian 16, Revision B.01,
 Gaussian 16:  ES64L-G16RevB.01 20-Dec-2017

 -------------------------------------------------------------------
 #p b3lyp/6-31g(d) 6D 10F nosymm GFInput td=(50-50,nstate=2) SCF=XQC
 -------------------------------------------------------------------

 ------------------------------
 Gaussian input prepared by ASE
 ------------------------------
 Symbolic Z-matrix:
 Charge =  0 Multiplicity = 1

                          Input orientation:
 ---------------------------------------------------------------------
 Center     Atomic      Atomic             Coordinates (Angstroms)
 Number     Number       Type             X           Y           Z
 ---------------------------------------------------------------------
      1          8           0        5.996166    5.040566    1.098488
      2          6           0        6.216023    3.922572    1.526907
      3          6           0        5.347944    2.748977    1.303701
      4          6           0        5.696523    1.502276    1.837715
      5          6           0        4.882119    0.395999    1.625930
      6          6           0        3.692148    0.500675    0.878573
      7          6           0        2.871139   -0.696363    0.696654
      8          6           0        1.635159   -0.753879    0.152733
      9          6           0        0.845176   -1.974188   -0.042490
     10          6           0        1.503998   -3.227824   -0.195479
     11          6           0        0.802828   -4.379056   -0.435248
     12          6           0       -0.614552   -4.364770   -0.511549
     13          6           0       -1.348426   -5.558730   -0.733597
     14          6           0       -2.724146   -5.550584   -0.766424
     15          6           0       -3.420263   -4.338167   -0.558508
     16          6           0       -2.735282   -3.160303   -0.353497
     17          6           0       -1.311644   -3.120377   -0.349474
     18          6           0       -0.555439   -1.911444   -0.144638
     19          6           0       -1.219890   -0.601006    0.008558
     20          6           0       -2.144308   -0.083617   -0.827019
     21          6           0       -2.801970    1.220947   -0.705148
     22          6           0       -3.548521    1.705092   -1.796562
     23          6           0       -4.182049    2.941444   -1.738948
     24          6           0       -4.093065    3.727539   -0.583698
     25          6           0       -4.771135    5.038870   -0.522384
     26          8           0       -4.754346    5.783902    0.439757
     27          6           0       -3.359490    3.251232    0.516759
     28          6           0       -2.728754    2.019643    0.458232
     29          6           0        3.356977    1.763786    0.338512
     30          6           0        4.167198    2.866389    0.549346
     31          1           0        7.124066    3.717007    2.137193
     32          1           0        6.610498    1.403161    2.419835
     33          1           0        5.159586   -0.567944    2.045281
     34          1           0        3.318981   -1.614454    1.073996
     35          1           0        1.164348    0.170527   -0.170758
     36          1           0        2.588718   -3.255491   -0.171431
     37          1           0        1.326182   -5.321640   -0.576088
     38          1           0       -0.798133   -6.487128   -0.867070
     39          1           0       -3.275195   -6.472033   -0.932733
     40          1           0       -4.506887   -4.335852   -0.549780
     41          1           0       -3.289961   -2.248395   -0.169795
     42          1           0       -0.882796    0.001450    0.850485
     43          1           0       -2.423143   -0.658543   -1.708742
     44          1           0       -3.621409    1.100901   -2.697420
     45          1           0       -4.751854    3.302535   -2.592696
     46          1           0       -5.322623    5.318643   -1.447885
     47          1           0       -3.307772    3.867215    1.409422
     48          1           0       -2.184662    1.659738    1.326284
     49          1           0        2.458611    1.873474   -0.261206
     50          1           0        3.913330    3.837229    0.134589
 ---------------------------------------------------------------------

 SCF Done:  E(RB3LYP) =  -1229.45725689     A.U. after   15 cycles

 Excitation energies and oscillator strengths:

 Excited state symmetry could not be determined.
 Excited State   1:      Triplet-?Sym    1.9000 eV  652.56 nm  f=0.0000  <S**2>=2.000
     101 ->104        -0.15163
     102 ->103         0.63113
     102 ->105        -0.16113
 This state for optimization and/or second-order correction.
 Total Energy, E(TD-HF/TD-DFT) =  -1229.38743487
 Copying the excited state density for this state as the 1-particle RhoCI density.

 Excited state symmetry could not be determined.
 Excited State   2:      Triplet-?Sym    2.3971 eV  517.22 nm  f=0.0000  <S**2>=2.000
      97 ->103        -0.11490
     100 ->103         0.23372
     100 ->104         0.20490
     101 ->103        -0.39120
     102 ->104         0.42979

 Excited state symmetry could not be determined.
 Excited State   3:      Singlet-?Sym    2.8763 eV  431.06 nm  f=0.4945  <S**2>=0.000
     102 ->103         0.69976

 Excited state symmetry could not be determined.
 Excited State   4:      Singlet-?Sym    3.2262 eV  384.31 nm  f=0.0360  <S**2>=0.000
     101 ->103         0.37743
     102 ->104         0.58259

 Alpha  occ. eigenvalues --  -19.14491 -19.14275 -10.27471 -10.27264 -10.22258
 Alpha  occ. eigenvalues --  -10.22042 -10.21632 -10.21361 -10.21301 -10.21214
 Alpha  occ. eigenvalues --  -10.21168 -10.21089 -10.21077 -10.20875 -10.20857
 Alpha  occ. eigenvalues --  -10.20798 -10.20781 -10.20764 -10.20725 -10.20683
 Alpha  occ. eigenvalues --  -10.20630 -10.20528 -10.20488 -10.20450 -10.20127
 Alpha  occ. eigenvalues --  -10.20059 -10.19966 -10.19891 -10.19858 -10.19676
 Alpha  occ. eigenvalues --   -1.03938  -1.03717  -0.88771  -0.87711  -0.87504
 Alpha  occ. eigenvalues --   -0.84369  -0.81960  -0.80852  -0.78857  -0.76986
 Alpha  occ. eigenvalues --   -0.76430  -0.76210  -0.75117  -0.73443  -0.72212
 Alpha  occ. eigenvalues --   -0.67120  -0.65984  -0.63541  -0.63092  -0.62814
 Alpha  occ. eigenvalues --   -0.62145  -0.60609  -0.57922  -0.57820  -0.57116
 Alpha  occ. eigenvalues --   -0.56988  -0.52940  -0.52193  -0.51635  -0.51208
 Alpha  occ. eigenvalues --   -0.49943  -0.48500  -0.48000  -0.47606  -0.46997
 Alpha  occ. eigenvalues --   -0.45973  -0.45144  -0.44799  -0.44064  -0.43761
 Alpha  occ. eigenvalues --   -0.43541  -0.43253  -0.42734  -0.42241  -0.42068
 Alpha  occ. eigenvalues --   -0.41093  -0.40847  -0.40655  -0.40415  -0.40013
 Alpha  occ. eigenvalues --   -0.39352  -0.38114  -0.37520  -0.37444  -0.37249
 Alpha  occ. eigenvalues --   -0.36641  -0.35526  -0.35234  -0.34903  -0.34453
 Alpha  occ. eigenvalues --   -0.33317  -0.31406  -0.30960  -0.29044  -0.26995
 Alpha  occ. eigenvalues --   -0.26781  -0.26482  -0.25549  -0.25350  -0.24678
 Alpha  occ. eigenvalues --   -0.23149  -0.20799
 Alpha virt. eigenvalues --   -0.08991  -0.07290  -0.04496  -0.02827  -0.01996
 Alpha virt. eigenvalues --   -0.01457  -0.00765   0.01450   0.03139   0.06447
 Alpha virt. eigenvalues --    0.06829   0.08615   0.09268   0.09411   0.09445

 Mulliken charges:
               1
     1  O   -0.408966
     2  C    0.191686
     3  C    0.098448
     4  C   -0.180872
     5  C   -0.200080
     6  C    0.183020
     7  C   -0.179737
     8  C   -0.197255
     9  C    0.115504
    10  C   -0.187874
    11  C   -0.192957
    12  C    0.143251
    13  C   -0.196710
    14  C   -0.130923
    15  C   -0.137574
    16  C   -0.197926
    17  C    0.080788
    18  C    0.015980
    19  C   -0.217785
    20  C   -0.173018
    21  C    0.177973
    22  C   -0.198697
    23  C   -0.180317
    24  C    0.098020
    25  C    0.192556
    26  O   -0.407432
    27  C   -0.161606
    28  C   -0.181805
    29  C   -0.180990
    30  C   -0.162817
    31  H    0.100822
    32  H    0.141782
    33  H    0.136498
    34  H    0.134508
    35  H    0.147928
    36  H    0.135077
    37  H    0.134826
    38  H    0.133305
    39  H    0.134480
    40  H    0.133665
    41  H    0.145357
    42  H    0.153711
    43  H    0.146258
    44  H    0.139391
    45  H    0.143075
    46  H    0.102129
    47  H    0.166607
    48  H    0.141312
    49  H    0.141558
    50  H    0.165826
 Sum of Mulliken charges =  -0.00000

 Dipole moment (field-independent basis, Debye):
    X=             -0.3639    Y=             -6.7972    Z=             -1.3603  Tot=              6.9415
 Quadrupole moment (field-independent basis, Debye-Ang):
   XX=           -171.4605   YY=           -200.6445   ZZ=           -167.0386
   XY=             -6.7189   XZ=             16.7810   YZ=             -8.3606

 Normal termination of Gaussian 16 at Sat Nov  5 09:51:33 2022.
