 Gaussian 16, Revision B.01,
 Gaussian 16:  ES64L-G16RevB.01 20-Dec-2017

 -----------------------------
 #p b3lyp/6-31g(d) opt SCF=XQC
 -----------------------------

 ------------------------------
 Gaussian input prepared by ASE
 ------------------------------
 Symbolic Z-matrix:
 Charge =  0 Multiplicity = 1

 SCF Done:  E(RB3LYP) =  -1490.13100683     A.U. after   15 cycles
 SCF Done:  E(RB3LYP) =  -1490.13753744     A.U. after   12 cycles
 SCF Done:  E(RB3LYP) =  -1490.13540265     A.U. after   14 cycles
 SCF Done:  E(RB3LYP) =  -1490.13683780     A.U. after   12 cycles
 SCF Done:  E(RB3LYP) =  -1490.13848314     A.U. after   10 cycles
 SCF Done:  E(RB3LYP) =  -1490.13875348     A.U. after   11 cycles
 SCF Done:  E(RB3LYP) =  -1490.13847843     A.U. after   11 cycles
 SCF Done:  E(RB3LYP) =  -1490.13876567     A.U. after   11 cycles
 SCF Done:  E(RB3LYP) =  -1490.13886300     A.U. after   10 cycles
 SCF Done:  E(RB3LYP) =  -1490.13889077     A.U. after   11 cycles
 SCF Done:  E(RB3LYP) =  -1490.13893546     A.U. after   10 cycles
 SCF Done:  E(RB3LYP) =  -1490.13894388     A.U. after   10 cycles
 SCF Done:  E(RB3LYP) =  -1490.13895095     A.U. after    9 cycles
 SCF Done:  E(RB3LYP) =  -1490.13895991     A.U. after   10 cycles
 SCF Done:  E(RB3LYP) =  -1490.13896983     A.U. after   10 cycles
 SCF Done:  E(RB3LYP) =  -1490.13897293     A.U. after    9 cycles
 SCF Done:  E(RB3LYP) =  -1490.13897356     A.U. after    8 cycles
 SCF Done:  E(RB3LYP) =  -1490.13897389     A.U. after    8 cycles
 SCF Done:  E(RB3LYP) =  -1490.13897397     A.U. after    7 cycles
 SCF Done:  E(RB3LYP) =  -1490.13897402     A.U. after    7 cycles
 Optimization completed.
    -- Stationary point found.

                         Standard orientation:
 ---------------------------------------------------------------------
 Center     Atomic      Atomic             Coordinates (Angstroms)
 Number     Number       Type             X           Y           Z
 ---------------------------------------------------------------------
      1          6           0        6.122152   -5.226390    1.084266
      2          6           0        5.897135   -4.547656    0.111884
      3          6           0        5.636060   -3.730326   -1.077197
      4          8           0        5.009062   -2.479315   -0.793288
      5          6           0        3.667085   -2.446810   -0.517219
      6          6           0        2.867118   -3.601605   -0.327584
      7          6           0        1.514106   -3.468713   -0.103661
      8          6           0        0.905657   -2.191620   -0.041311
      9          7           0       -0.446334   -2.113554    0.102768
     10          6           0       -0.973944   -0.901118    0.096984
     11          6           0       -2.441750   -0.768365    0.138787
     12          7           0       -3.072401    0.340424   -0.211096
     13          6           0       -4.409339    0.049197   -0.092373
     14          6           0       -5.519890    0.875991   -0.343392
     15          6           0       -6.783885    0.334697   -0.138866
     16          8           0       -7.960630    1.009067   -0.338213
     17          6           0       -7.883670    2.351179   -0.783661
     18          6           0       -6.946301   -1.002863    0.305217
     19          6           0       -5.858482   -1.824664    0.553743
     20          6           0       -4.583785   -1.281449    0.349493
     21          7           0       -3.306676   -1.794449    0.498617
     22          6           0       -3.013025   -3.135766    0.984847
     23          7           0       -0.282981    0.271406    0.052883
     24          6           0        1.033192    0.230561   -0.042109
     25          6           0        1.720071    1.548452   -0.016430
     26          6           0        2.926832    1.765334    0.669214
     27          6           0        3.508546    3.030413    0.702813
     28          6           0        2.915528    4.121510    0.051348
     29          6           0        3.551308    5.504342    0.074918
     30          6           0        4.933299    5.511307   -0.605871
     31          6           0        3.635945    6.071491    1.504969
     32          6           0        1.703484    3.900868   -0.617512
     33          6           0        1.106561    2.644051   -0.643539
     34          6           0        1.726871   -1.028836   -0.167593
     35          6           0        3.103647   -1.183867   -0.435552
     36          1           0        6.320734   -5.818914    1.948925
     37          1           0        5.044209   -4.295598   -1.810622
     38          1           0        6.581797   -3.458281   -1.556023
     39          1           0        3.310550   -4.590187   -0.352257
     40          1           0        0.879204   -4.340778    0.015919
     41          1           0       -5.362120    1.892864   -0.680910
     42          1           0       -7.351431    2.986883   -0.062865
     43          1           0       -7.384884    2.425588   -1.759717
     44          1           0       -8.914972    2.697473   -0.877869
     45          1           0       -7.959389   -1.367423    0.441414
     46          1           0       -6.008104   -2.848174    0.884544
     47          1           0       -3.883880   -3.495635    1.538524
     48          1           0       -2.148029   -3.116582    1.645804
     49          1           0       -2.796346   -3.820561    0.159558
     50          1           0        3.396352    0.951604    1.212905
     51          1           0        4.435385    3.167219    1.254291
     52          1           0        2.896055    6.169288   -0.503948
     53          1           0        5.646055    4.875717   -0.067005
     54          1           0        4.870294    5.143544   -1.635798
     55          1           0        5.345647    6.527019   -0.630062
     56          1           0        4.293084    5.462494    2.137113
     57          1           0        4.039022    7.091137    1.491435
     58          1           0        2.649064    6.100075    1.979219
     59          1           0        1.215371    4.731915   -1.121979
     60          1           0        0.154523    2.493091   -1.141676
     61          1           0        3.739941   -0.324670   -0.606784
 ---------------------------------------------------------------------

 The electronic state is 1-A.
 Alpha  occ. eigenvalues --  -19.19431 -19.16421 -14.38172 -14.33039 -14.32616
 Alpha  occ. eigenvalues --  -14.29985 -10.28243 -10.26349 -10.25842 -10.24622
 Alpha  occ. eigenvalues --  -10.24110 -10.23341 -10.23185 -10.22972 -10.22016
 Alpha  occ. eigenvalues --  -10.21193 -10.20859 -10.20716 -10.20615 -10.20306
 Alpha  occ. eigenvalues --  -10.20242 -10.19789 -10.19651 -10.19546 -10.19536
 Alpha  occ. eigenvalues --  -10.19489 -10.19246 -10.18794 -10.18746 -10.18584
 Alpha  occ. eigenvalues --  -10.18493 -10.17789 -10.17638 -10.17572 -10.17255
 Alpha  occ. eigenvalues --   -1.07969  -1.04960  -1.00783  -0.97763  -0.89450
 Alpha  occ. eigenvalues --   -0.87806  -0.86424  -0.85222  -0.83077  -0.80455
 Alpha  occ. eigenvalues --   -0.79756  -0.77858  -0.76001  -0.74312  -0.74240
 Alpha  occ. eigenvalues --   -0.73461  -0.73339  -0.71356  -0.71048  -0.68736
 Alpha  occ. eigenvalues --   -0.68281  -0.66707  -0.64698  -0.63039  -0.60962
 Alpha  occ. eigenvalues --   -0.60506  -0.59073  -0.58580  -0.57366  -0.56235
 Alpha  occ. eigenvalues --   -0.55958  -0.54399  -0.53680  -0.52669  -0.51201
 Alpha  occ. eigenvalues --   -0.50439  -0.50144  -0.49794  -0.48762  -0.48305
 Alpha  occ. eigenvalues --   -0.46654  -0.46511  -0.45552  -0.45314  -0.45216
 Alpha  occ. eigenvalues --   -0.44789  -0.44348  -0.43746  -0.43404  -0.42915
 Alpha  occ. eigenvalues --   -0.42557  -0.42207  -0.41353  -0.41264  -0.41163
 Alpha  occ. eigenvalues --   -0.41008  -0.39917  -0.39848  -0.38967  -0.38594
 Alpha  occ. eigenvalues --   -0.38493  -0.38315  -0.37621  -0.36203  -0.35513
 Alpha  occ. eigenvalues --   -0.35198  -0.35060  -0.34696  -0.34083  -0.33215
 Alpha  occ. eigenvalues --   -0.32525  -0.32264  -0.32164  -0.31559  -0.29762
 Alpha  occ. eigenvalues --   -0.29298  -0.29047  -0.28577  -0.27826  -0.26442
 Alpha  occ. eigenvalues --   -0.25802  -0.24932  -0.24478  -0.23790  -0.22311
 Alpha  occ. eigenvalues --   -0.20627  -0.19107
 Alpha virt. eigenvalues --   -0.06877  -0.03966  -0.01045   0.00033   0.00966
 Alpha virt. eigenvalues --    0.01481   0.03140   0.03812   0.04457   0.06358
 Alpha virt. eigenvalues --    0.08840   0.09208   0.10137   0.10803   0.11139

 Mulliken charges:
               1
     1  C   -0.453674
     2  C    0.315831
     3  C   -0.185606
     4  O   -0.512444
     5  C    0.384231
     6  C   -0.180520
     7  C   -0.169922
     8  C    0.273921
     9  N   -0.582307
    10  C    0.416928
    11  C    0.475573
    12  N   -0.550637
    13  C    0.234078
    14  C   -0.265169
    15  C    0.371590
    16  O   -0.515958
    17  C   -0.209520
    18  C   -0.190097
    19  C   -0.170689
    20  C    0.336691
    21  N   -0.587665
    22  C   -0.303581
    23  N   -0.500718
    24  C    0.190290
    25  C    0.100356
    26  C   -0.176931
    27  C   -0.197681
    28  C    0.197011
    29  C   -0.161946
    30  C   -0.439458
    31  C   -0.439567
    32  C   -0.207006
    33  C   -0.142331
    34  C    0.114755
    35  C   -0.273807
    36  H    0.202376
    37  H    0.178013
    38  H    0.196096
    39  H    0.152921
    40  H    0.146239
    41  H    0.138930
    42  H    0.150865
    43  H    0.150295
    44  H    0.163891
    45  H    0.135137
    46  H    0.130507
    47  H    0.158753
    48  H    0.186732
    49  H    0.175171
    50  H    0.144041
    51  H    0.127810
    52  H    0.131391
    53  H    0.143531
    54  H    0.150576
    55  H    0.142849
    56  H    0.143715
    57  H    0.142591
    58  H    0.153485
    59  H    0.129032
    60  H    0.168145
    61  H    0.162888
 Sum of Mulliken charges =  -0.00000

 Dipole moment (field-independent basis, Debye):
    X=              4.1154    Y=             -2.4685    Z=              0.0837  Tot=              4.7997
 Quadrupole moment (field-independent basis, Debye-Ang):
   XX=           -186.0957   YY=           -163.7855   ZZ=           -198.3371
   XY=             -9.4651   XZ=              0.1114   YZ=             -6.3610

 Normal termination of Gaussian 16 at Fri Nov  4 23:23:46 2022.
