 Gaussian 16, Revision B.01,
 Gaussian 16:  ES64L-G16RevB.01 20-Dec-2017

 -------------------------------------------------------------------
 #p b3lyp/6-31g(d) 6D 10F nosymm GFInput td=(50-50,nstate=2) SCF=XQC
 -------------------------------------------------------------------

 ------------------------------
 Gaussian input prepared by ASE
 ------------------------------
 Symbolic Z-matrix:
 Charge =  0 Multiplicity = 1

                          Input orientation:
 ---------------------------------------------------------------------
 Center     Atomic      Atomic             Coordinates (Angstroms)
 Number     Number       Type             X           Y           Z
 ---------------------------------------------------------------------
      1          6           0       -4.730052    6.573783    1.157644
      2          6           0       -4.630443    5.906903    0.156548
      3          6           0       -4.520018    5.106541   -1.067105
      4          8           0       -4.149039    3.746922   -0.837824
      5          6           0       -2.841389    3.443919   -0.561393
      6          6           0       -1.835608    4.413158   -0.319649
      7          6           0       -0.535974    4.011868   -0.099736
      8          6           0       -0.185999    2.639813   -0.092978
      9          7           0        1.124013    2.295903    0.049592
     10          6           0        1.407830    1.005777   -0.008982
     11          6           0        2.821954    0.590295    0.029173
     12          7           0        3.230326   -0.603313   -0.368423
     13          6           0        4.597071   -0.581236   -0.234877
     14          6           0        5.529714   -1.595396   -0.520497
     15          6           0        6.872271   -1.317805   -0.290288
     16          8           0        7.898748   -2.197571   -0.517445
     17          6           0        7.568787   -3.479071   -1.021919
     18          6           0        7.285214   -0.057216    0.212753
     19          6           0        6.373937    0.947765    0.495696
     20          6           0        5.020506    0.670347    0.265662
     21          7           0        3.864928    1.413488    0.435355
     22          6           0        3.830696    2.764046    0.979964
     23          7           0        0.504116   -0.008168   -0.105951
     24          6           0       -0.778427    0.290223   -0.201074
     25          6           0       -1.706881   -0.870008   -0.234752
     26          6           0       -2.939645   -0.879017    0.438771
     27          6           0       -3.754805   -2.008138    0.415502
     28          6           0       -3.376911   -3.164141   -0.282657
     29          6           0       -4.267737   -4.397809   -0.321234
     30          6           0       -5.618193   -4.108327   -1.003795
     31          6           0       -4.474574   -4.999004    1.082208
     32          6           0       -2.138408   -3.153191   -0.939237
     33          6           0       -1.309995   -2.035432   -0.908745
     34          6           0       -1.214805    1.664119   -0.271817
     35          6           0       -2.533042    2.093596   -0.534781
     36          1           0       -4.819272    7.155691    2.047349
     37          1           0       -3.822887    5.577896   -1.773905
     38          1           0       -5.495609    5.043209   -1.558950
     39          1           0       -2.079714    5.468909   -0.301269
     40          1           0        0.254010    4.738877    0.059267
     41          1           0        5.182126   -2.547130   -0.902891
     42          1           0        6.916683   -4.030435   -0.330758
     43          1           0        7.074854   -3.413596   -2.001079
     44          1           0        8.514798   -4.013684   -1.129757
     45          1           0        8.348181    0.098552    0.366499
     46          1           0        6.714877    1.907869    0.871660
     47          1           0        4.749008    2.924706    1.550355
     48          1           0        2.971650    2.883866    1.638092
     49          1           0        3.758511    3.512711    0.185429
     50          1           0       -3.248794   -0.014108    1.017186
     51          1           0       -4.696122   -1.986951    0.958962
     52          1           0       -3.747293   -5.151242   -0.927925
     53          1           0       -6.200317   -3.370837   -0.438451
     54          1           0       -5.475069   -3.715636   -2.016355
     55          1           0       -6.218488   -5.023244   -1.073510
     56          1           0       -5.008196   -4.302344    1.739648
     57          1           0       -5.066639   -5.920027    1.022981
     58          1           0       -3.516566   -5.238104    1.556251
     59          1           0       -1.814750   -4.040356   -1.479203
     60          1           0       -0.341759   -2.049912   -1.398251
     61          1           0       -3.321389    1.381696   -0.744818
 ---------------------------------------------------------------------

 SCF Done:  E(RB3LYP) =  -1490.13896780     A.U. after   15 cycles

 Excitation energies and oscillator strengths:

 Excited state symmetry could not be determined.
 Excited State   1:      Triplet-?Sym    2.3219 eV  533.97 nm  f=0.0000  <S**2>=2.000
     120 ->123         0.27837
     121 ->123         0.34901
     122 ->123         0.48646
     122 ->124         0.12361
 This state for optimization and/or second-order correction.
 Total Energy, E(TD-HF/TD-DFT) =  -1490.05363788
 Copying the excited state density for this state as the 1-particle RhoCI density.

 Excited state symmetry could not be determined.
 Excited State   2:      Triplet-?Sym    2.8096 eV  441.29 nm  f=0.0000  <S**2>=2.000
     120 ->123        -0.22150
     121 ->123        -0.40054
     121 ->124        -0.16512
     122 ->123         0.42362
     122 ->124         0.21243
     122 ->127        -0.10714

 Excited state symmetry could not be determined.
 Excited State   3:      Singlet-?Sym    2.9230 eV  424.16 nm  f=0.0953  <S**2>=0.000
     122 ->123         0.69953

 Excited state symmetry could not be determined.
 Excited State   4:      Singlet-?Sym    3.3018 eV  375.50 nm  f=0.0850  <S**2>=0.000
     121 ->123         0.68161
     122 ->124        -0.11030

 Alpha  occ. eigenvalues --  -19.19431 -19.16421 -14.38172 -14.33039 -14.32617
 Alpha  occ. eigenvalues --  -14.29985 -10.28242 -10.26349 -10.25842 -10.24622
 Alpha  occ. eigenvalues --  -10.24110 -10.23341 -10.23185 -10.22972 -10.22016
 Alpha  occ. eigenvalues --  -10.21193 -10.20859 -10.20716 -10.20614 -10.20306
 Alpha  occ. eigenvalues --  -10.20242 -10.19789 -10.19651 -10.19546 -10.19536
 Alpha  occ. eigenvalues --  -10.19489 -10.19246 -10.18794 -10.18746 -10.18584
 Alpha  occ. eigenvalues --  -10.18493 -10.17788 -10.17638 -10.17572 -10.17255
 Alpha  occ. eigenvalues --   -1.07969  -1.04960  -1.00784  -0.97763  -0.89451
 Alpha  occ. eigenvalues --   -0.87806  -0.86424  -0.85222  -0.83077  -0.80454
 Alpha  occ. eigenvalues --   -0.79756  -0.77858  -0.76001  -0.74312  -0.74240
 Alpha  occ. eigenvalues --   -0.73461  -0.73339  -0.71356  -0.71048  -0.68736
 Alpha  occ. eigenvalues --   -0.68281  -0.66707  -0.64698  -0.63039  -0.60962
 Alpha  occ. eigenvalues --   -0.60506  -0.59073  -0.58580  -0.57366  -0.56235
 Alpha  occ. eigenvalues --   -0.55958  -0.54399  -0.53680  -0.52668  -0.51201
 Alpha  occ. eigenvalues --   -0.50439  -0.50144  -0.49794  -0.48762  -0.48305
 Alpha  occ. eigenvalues --   -0.46654  -0.46511  -0.45552  -0.45314  -0.45216
 Alpha  occ. eigenvalues --   -0.44789  -0.44348  -0.43746  -0.43404  -0.42915
 Alpha  occ. eigenvalues --   -0.42557  -0.42207  -0.41353  -0.41264  -0.41163
 Alpha  occ. eigenvalues --   -0.41008  -0.39917  -0.39848  -0.38967  -0.38594
 Alpha  occ. eigenvalues --   -0.38493  -0.38315  -0.37621  -0.36203  -0.35513
 Alpha  occ. eigenvalues --   -0.35198  -0.35060  -0.34696  -0.34083  -0.33215
 Alpha  occ. eigenvalues --   -0.32525  -0.32264  -0.32164  -0.31559  -0.29762
 Alpha  occ. eigenvalues --   -0.29298  -0.29047  -0.28576  -0.27826  -0.26443
 Alpha  occ. eigenvalues --   -0.25802  -0.24931  -0.24478  -0.23790  -0.22311
 Alpha  occ. eigenvalues --   -0.20627  -0.19107
 Alpha virt. eigenvalues --   -0.06878  -0.03966  -0.01045   0.00033   0.00966
 Alpha virt. eigenvalues --    0.01481   0.03140   0.03812   0.04457   0.06358
 Alpha virt. eigenvalues --    0.08840   0.09208   0.10137   0.10803   0.11139

 Mulliken charges:
               1
     1  C   -0.453683
     2  C    0.315860
     3  C   -0.185633
     4  O   -0.512445
     5  C    0.384236
     6  C   -0.180525
     7  C   -0.169924
     8  C    0.273922
     9  N   -0.582309
    10  C    0.416911
    11  C    0.475573
    12  N   -0.550629
    13  C    0.234078
    14  C   -0.265166
    15  C    0.371577
    16  O   -0.515956
    17  C   -0.209514
    18  C   -0.190091
    19  C   -0.170699
    20  C    0.336723
    21  N   -0.587688
    22  C   -0.303579
    23  N   -0.500706
    24  C    0.190286
    25  C    0.100359
    26  C   -0.176925
    27  C   -0.197688
    28  C    0.197019
    29  C   -0.161955
    30  C   -0.439469
    31  C   -0.439553
    32  C   -0.206993
    33  C   -0.142345
    34  C    0.114759
    35  C   -0.273803
    36  H    0.202374
    37  H    0.178014
    38  H    0.196096
    39  H    0.152920
    40  H    0.146244
    41  H    0.138930
    42  H    0.150864
    43  H    0.150292
    44  H    0.163891
    45  H    0.135136
    46  H    0.130508
    47  H    0.158752
    48  H    0.186730
    49  H    0.175171
    50  H    0.144040
    51  H    0.127811
    52  H    0.131391
    53  H    0.143533
    54  H    0.150578
    55  H    0.142852
    56  H    0.143712
    57  H    0.142587
    58  H    0.153483
    59  H    0.129031
    60  H    0.168145
    61  H    0.162890
 Sum of Mulliken charges =  -0.00000

 Dipole moment (field-independent basis, Debye):
    X=             -3.5624    Y=              3.2110    Z=              0.1864  Tot=              4.7996
 Quadrupole moment (field-independent basis, Debye-Ang):
   XX=           -190.8629   YY=           -159.6156   ZZ=           -197.7641
   XY=             -4.8715   XZ=              1.5908   YZ=              7.3848

 Normal termination of Gaussian 16 at Sat Nov  5 09:53:17 2022.
