 Gaussian 16, Revision B.01,
 Gaussian 16:  ES64L-G16RevB.01 20-Dec-2017

 -------------------------------------------------------------------
 #p b3lyp/6-31g(d) 6D 10F nosymm GFInput td=(50-50,nstate=2) SCF=XQC
 -------------------------------------------------------------------

 ------------------------------
 Gaussian input prepared by ASE
 ------------------------------
 Symbolic Z-matrix:
 Charge =  0 Multiplicity = 1

                          Input orientation:
 ---------------------------------------------------------------------
 Center     Atomic      Atomic             Coordinates (Angstroms)
 Number     Number       Type             X           Y           Z
 ---------------------------------------------------------------------
      1          6           0       -7.286204    1.481869   -0.991679
      2          6           0       -6.977221    0.692495    0.294503
      3          6           0       -7.210217    1.629780    1.503770
      4          6           0       -7.957776   -0.502043    0.375119
      5          6           0       -5.530815    0.169108    0.328250
      6          6           0       -4.615574    0.392450   -0.709055
      7          6           0       -3.307455   -0.090930   -0.644135
      8          6           0       -2.867125   -0.819241    0.466397
      9          6           0       -1.484118   -1.388153    0.612927
     10          8           0       -1.264426   -2.352795    1.339089
     11          7           0       -0.509129   -0.733482   -0.109494
     12          6           0        0.871481   -1.015490   -0.213243
     13          6           0        1.462986   -2.144506    0.401113
     14          6           0        2.828578   -2.401771    0.269839
     15          6           0        3.565907   -1.502868   -0.482357
     16          8           0        4.909802   -1.506260   -0.778196
     17          6           0        5.082002   -0.385159   -1.556838
     18          6           0        6.474093   -0.091055   -2.013428
     19          6           0        7.367706    0.434824   -0.896476
     20          6           0        8.491334   -0.283970   -0.478182
     21          6           0        9.312305    0.208319    0.538871
     22          6           0        9.014122    1.425840    1.150612
     23          6           0        7.890926    2.148656    0.740440
     24          6           0        7.073369    1.656100   -0.275656
     25          7           0        4.011400    0.311161   -1.779329
     26          6           0        3.004130   -0.379763   -1.099181
     27          6           0        1.641717   -0.121621   -0.972257
     28          6           0       -3.780914   -1.069125    1.499558
     29          6           0       -5.078138   -0.577613    1.431948
     30          1           0       -7.171751    0.862826   -1.888801
     31          1           0       -6.640643    2.361357   -1.096598
     32          1           0       -8.322864    1.835591   -0.966207
     33          1           0       -6.533479    2.491155    1.469185
     34          1           0       -7.048061    1.115394    2.456604
     35          1           0       -8.240295    2.006197    1.499107
     36          1           0       -7.820901   -1.082236    1.293475
     37          1           0       -8.994192   -0.143757    0.358464
     38          1           0       -7.819232   -1.181552   -0.473423
     39          1           0       -4.915695    0.942694   -1.593623
     40          1           0       -2.651770    0.076166   -1.495674
     41          1           0       -0.798093    0.120190   -0.565725
     42          1           0        0.835774   -2.803794    0.983169
     43          1           0        3.282381   -3.266716    0.741580
     44          1           0        6.910980   -1.001855   -2.438036
     45          1           0        6.392419    0.646299   -2.818261
     46          1           0        8.727024   -1.234733   -0.950784
     47          1           0       10.182998   -0.361690    0.852207
     48          1           0        9.651653    1.810217    1.942247
     49          1           0        7.651516    3.097884    1.212542
     50          1           0        6.196172    2.216758   -0.589931
     51          1           0        1.197689    0.747442   -1.450359
     52          1           0       -3.450636   -1.655400    2.350776
     53          1           0       -5.753744   -0.783194    2.257393
 ---------------------------------------------------------------------

 SCF Done:  E(RB3LYP) =  -1227.10666918     A.U. after   15 cycles

 Excitation energies and oscillator strengths:

 Excited state symmetry could not be determined.
 Excited State   1:      Triplet-?Sym    3.3225 eV  373.17 nm  f=0.0000  <S**2>=2.000
     101 ->103        -0.13642
     101 ->104        -0.34659
     101 ->107        -0.10153
     102 ->103         0.48589
     102 ->108        -0.24518
 This state for optimization and/or second-order correction.
 Total Energy, E(TD-HF/TD-DFT) =  -1226.98457081
 Copying the excited state density for this state as the 1-particle RhoCI density.

 Excited state symmetry could not be determined.
 Excited State   2:      Triplet-?Sym    3.5067 eV  353.57 nm  f=0.0000  <S**2>=2.000
      96 ->105        -0.19299
      97 ->103         0.21430
      97 ->105        -0.23016
      99 ->103         0.17233
     100 ->103         0.46038
     101 ->104         0.19292
     102 ->108         0.13144

 Excited state symmetry could not be determined.
 Excited State   3:      Singlet-?Sym    4.2145 eV  294.19 nm  f=0.4905  <S**2>=0.000
     102 ->103         0.69183

 Excited state symmetry could not be determined.
 Excited State   4:      Singlet-?Sym    4.4832 eV  276.55 nm  f=0.0170  <S**2>=0.000
     101 ->103         0.29444
     101 ->108        -0.13569
     102 ->103        -0.12132
     102 ->104         0.59422

 Alpha  occ. eigenvalues --  -19.21906 -19.11733 -14.37715 -14.33074 -10.29454
 Alpha  occ. eigenvalues --  -10.28513 -10.24187 -10.23986 -10.21834 -10.21114
 Alpha  occ. eigenvalues --  -10.21050 -10.20462 -10.20413 -10.20321 -10.20316
 Alpha  occ. eigenvalues --  -10.19911 -10.19683 -10.19587 -10.19451 -10.19351
 Alpha  occ. eigenvalues --  -10.19156 -10.19114 -10.19098 -10.19017 -10.18913
 Alpha  occ. eigenvalues --  -10.18755 -10.18063 -10.18021 -10.17974  -1.12371
 Alpha  occ. eigenvalues --   -1.03647  -0.94223  -0.92399  -0.86817  -0.86034
 Alpha  occ. eigenvalues --   -0.84808  -0.82142  -0.79475  -0.76271  -0.75236
 Alpha  occ. eigenvalues --   -0.74766  -0.74451  -0.73829  -0.70196  -0.69112
 Alpha  occ. eigenvalues --   -0.68914  -0.65682  -0.62779  -0.62216  -0.60817
 Alpha  occ. eigenvalues --   -0.60675  -0.59692  -0.58522  -0.57376  -0.55489
 Alpha  occ. eigenvalues --   -0.54881  -0.52435  -0.51515  -0.50356  -0.48847
 Alpha  occ. eigenvalues --   -0.47832  -0.47235  -0.46210  -0.45791  -0.45467
 Alpha  occ. eigenvalues --   -0.45407  -0.44661  -0.44396  -0.43491  -0.43068
 Alpha  occ. eigenvalues --   -0.42756  -0.42525  -0.42054  -0.42018  -0.41258
 Alpha  occ. eigenvalues --   -0.41108  -0.39958  -0.39651  -0.39388  -0.38575
 Alpha  occ. eigenvalues --   -0.38261  -0.37210  -0.37010  -0.35862  -0.35768
 Alpha  occ. eigenvalues --   -0.35680  -0.35362  -0.34688  -0.34197  -0.33509
 Alpha  occ. eigenvalues --   -0.32997  -0.32453  -0.32255  -0.29807  -0.28805
 Alpha  occ. eigenvalues --   -0.25947  -0.25656  -0.25083  -0.24718  -0.24574
 Alpha  occ. eigenvalues --   -0.23510  -0.21291
 Alpha virt. eigenvalues --   -0.04025  -0.02532  -0.00921  -0.00415   0.00112
 Alpha virt. eigenvalues --    0.01513   0.04178   0.06928   0.07406   0.07811
 Alpha virt. eigenvalues --    0.09435   0.10737   0.11305   0.12069   0.12253

 Mulliken charges:
               1
     1  C   -0.458358
     2  C    0.013910
     3  C   -0.440009
     4  C   -0.440054
     5  C    0.187588
     6  C   -0.200845
     7  C   -0.190736
     8  C    0.065184
     9  C    0.574654
    10  O   -0.513628
    11  N   -0.743442
    12  C    0.363386
    13  C   -0.181699
    14  C   -0.198346
    15  C    0.333486
    16  O   -0.505492
    17  C    0.526432
    18  C   -0.438765
    19  C    0.167178
    20  C   -0.184942
    21  C   -0.127051
    22  C   -0.128531
    23  C   -0.127308
    24  C   -0.173461
    25  N   -0.521736
    26  C    0.242532
    27  C   -0.265631
    28  C   -0.155857
    29  C   -0.193461
    30  H    0.147104
    31  H    0.145847
    32  H    0.144700
    33  H    0.148450
    34  H    0.145810
    35  H    0.141946
    36  H    0.146091
    37  H    0.141627
    38  H    0.150077
    39  H    0.132234
    40  H    0.128774
    41  H    0.336221
    42  H    0.193345
    43  H    0.152035
    44  H    0.171863
    45  H    0.189662
    46  H    0.127544
    47  H    0.131650
    48  H    0.131005
    49  H    0.132733
    50  H    0.145328
    51  H    0.136008
    52  H    0.161734
    53  H    0.133218
 Sum of Mulliken charges =  -0.00000

 Dipole moment (field-independent basis, Debye):
    X=             -1.0915    Y=              2.1223    Z=             -0.9886  Tot=              2.5832
 Quadrupole moment (field-independent basis, Debye-Ang):
   XX=           -133.3939   YY=           -170.7560   ZZ=           -167.0555
   XY=             -9.3137   XZ=              2.1753   YZ=              3.3457

 Normal termination of Gaussian 16 at Sat Nov  5 09:54:27 2022.
