 Gaussian 16, Revision B.01,
 Gaussian 16:  ES64L-G16RevB.01 20-Dec-2017

 -----------------------------
 #p b3lyp/6-31g(d) opt SCF=XQC
 -----------------------------

 ------------------------------
 Gaussian input prepared by ASE
 ------------------------------
 Symbolic Z-matrix:
 Charge =  0 Multiplicity = 1

 SCF Done:  E(RB3LYP) =  -1227.09980924     A.U. after   15 cycles
 SCF Done:  E(RB3LYP) =  -1227.10605896     A.U. after   12 cycles
 SCF Done:  E(RB3LYP) =  -1227.10645524     A.U. after   12 cycles
 SCF Done:  E(RB3LYP) =  -1227.10654103     A.U. after   12 cycles
 SCF Done:  E(RB3LYP) =  -1227.10661874     A.U. after   10 cycles
 SCF Done:  E(RB3LYP) =  -1227.10664264     A.U. after   10 cycles
 SCF Done:  E(RB3LYP) =  -1227.10665700     A.U. after   10 cycles
 SCF Done:  E(RB3LYP) =  -1227.10666352     A.U. after    9 cycles
 SCF Done:  E(RB3LYP) =  -1227.10666856     A.U. after   10 cycles
 SCF Done:  E(RB3LYP) =  -1227.10666993     A.U. after    9 cycles
 SCF Done:  E(RB3LYP) =  -1227.10667023     A.U. after    8 cycles
 SCF Done:  E(RB3LYP) =  -1227.10667025     A.U. after    8 cycles
 SCF Done:  E(RB3LYP) =  -1227.10667023     A.U. after    7 cycles
 SCF Done:  E(RB3LYP) =  -1227.10667020     A.U. after    7 cycles
 SCF Done:  E(RB3LYP) =  -1227.10667017     A.U. after    7 cycles
 SCF Done:  E(RB3LYP) =  -1227.10667018     A.U. after    7 cycles
 SCF Done:  E(RB3LYP) =  -1227.10667019     A.U. after    6 cycles
 Optimization completed.
    -- Stationary point found.

                         Standard orientation:
 ---------------------------------------------------------------------
 Center     Atomic      Atomic             Coordinates (Angstroms)
 Number     Number       Type             X           Y           Z
 ---------------------------------------------------------------------
      1          6           0       -7.878560    1.938640   -1.084624
      2          6           0       -7.648334    0.946020    0.070603
      3          6           0       -7.944540    1.677611    1.401825
      4          6           0       -8.638968   -0.230700   -0.099335
      5          6           0       -6.209357    0.402214    0.098636
      6          6           0       -5.234979    0.777345   -0.835931
      7          6           0       -3.935607    0.270038   -0.778331
      8          6           0       -3.563842   -0.635769    0.221125
      9          6           0       -2.194881   -1.241867    0.349307
     10          8           0       -2.022810   -2.314977    0.919338
     11          7           0       -1.176302   -0.493311   -0.201375
     12          6           0        0.206283   -0.775622   -0.273033
     13          6           0        0.754971   -1.998362    0.180658
     14          6           0        2.124284   -2.251558    0.085093
     15          6           0        2.908750   -1.253599   -0.468236
     16          8           0        4.267321   -1.229241   -0.685670
     17          6           0        4.490423    0.000812   -1.260125
     18          6           0        5.908070    0.344082   -1.584674
     19          6           0        6.739446    0.667698   -0.349052
     20          6           0        7.833024   -0.126525    0.007977
     21          6           0        8.597392    0.181301    1.135685
     22          6           0        8.271943    1.287522    1.920449
     23          6           0        7.178355    2.084385    1.572101
     24          6           0        6.417339    1.776088    0.445482
     25          7           0        3.438450    0.740217   -1.425009
     26          6           0        2.389846   -0.036741   -0.923675
     27          6           0        1.023961    0.217979   -0.832075
     28          6           0       -4.536692   -1.036433    1.147358
     29          6           0       -5.824985   -0.520832    1.089040
     30          1           0       -7.716663    1.472059   -2.063006
     31          1           0       -7.222846    2.813580   -1.008624
     32          1           0       -8.912862    2.299209   -1.059291
     33          1           0       -7.261831    2.522770    1.545879
     34          1           0       -7.840201    1.012724    2.265433
     35          1           0       -8.970413    2.065370    1.401543
     36          1           0       -8.558286   -0.954520    0.718168
     37          1           0       -9.670589    0.141218   -0.114741
     38          1           0       -8.456157   -0.765202   -1.038398
     39          1           0       -5.480747    1.468602   -1.634093
     40          1           0       -3.231314    0.563411   -1.553487
     41          1           0       -1.433627    0.427476   -0.527470
     42          1           0        0.091594   -2.733927    0.611610
     43          1           0        2.545223   -3.188491    0.433767
     44          1           0        6.363112   -0.492074   -2.127353
     45          1           0        5.876938    1.203653   -2.261641
     46          1           0        8.089710   -0.991247   -0.599658
     47          1           0        9.445341   -0.445227    1.399583
     48          1           0        8.865426    1.528326    2.798327
     49          1           0        6.917976    2.947730    2.178787
     50          1           0        5.562896    2.393642    0.178771
     51          1           0        0.613170    1.159861   -1.185801
     52          1           0       -4.259123   -1.758273    1.908461
     53          1           0       -6.547902   -0.847626    1.831107
 ---------------------------------------------------------------------

 The electronic state is 1-A.
 Alpha  occ. eigenvalues --  -19.21906 -19.11733 -14.37715 -14.33074 -10.29454
 Alpha  occ. eigenvalues --  -10.28513 -10.24187 -10.23986 -10.21834 -10.21114
 Alpha  occ. eigenvalues --  -10.21050 -10.20462 -10.20413 -10.20321 -10.20316
 Alpha  occ. eigenvalues --  -10.19911 -10.19683 -10.19587 -10.19451 -10.19351
 Alpha  occ. eigenvalues --  -10.19155 -10.19114 -10.19098 -10.19017 -10.18913
 Alpha  occ. eigenvalues --  -10.18755 -10.18063 -10.18021 -10.17974  -1.12371
 Alpha  occ. eigenvalues --   -1.03647  -0.94223  -0.92399  -0.86817  -0.86034
 Alpha  occ. eigenvalues --   -0.84808  -0.82142  -0.79475  -0.76272  -0.75236
 Alpha  occ. eigenvalues --   -0.74766  -0.74451  -0.73829  -0.70196  -0.69112
 Alpha  occ. eigenvalues --   -0.68914  -0.65682  -0.62779  -0.62216  -0.60817
 Alpha  occ. eigenvalues --   -0.60675  -0.59692  -0.58522  -0.57376  -0.55490
 Alpha  occ. eigenvalues --   -0.54881  -0.52435  -0.51515  -0.50356  -0.48847
 Alpha  occ. eigenvalues --   -0.47832  -0.47235  -0.46210  -0.45791  -0.45467
 Alpha  occ. eigenvalues --   -0.45407  -0.44661  -0.44396  -0.43491  -0.43068
 Alpha  occ. eigenvalues --   -0.42756  -0.42525  -0.42054  -0.42018  -0.41258
 Alpha  occ. eigenvalues --   -0.41108  -0.39958  -0.39651  -0.39388  -0.38575
 Alpha  occ. eigenvalues --   -0.38261  -0.37210  -0.37010  -0.35862  -0.35768
 Alpha  occ. eigenvalues --   -0.35680  -0.35362  -0.34688  -0.34197  -0.33509
 Alpha  occ. eigenvalues --   -0.32997  -0.32453  -0.32255  -0.29807  -0.28805
 Alpha  occ. eigenvalues --   -0.25947  -0.25656  -0.25083  -0.24718  -0.24574
 Alpha  occ. eigenvalues --   -0.23510  -0.21291
 Alpha virt. eigenvalues --   -0.04025  -0.02532  -0.00921  -0.00415   0.00112
 Alpha virt. eigenvalues --    0.01513   0.04178   0.06928   0.07406   0.07812
 Alpha virt. eigenvalues --    0.09436   0.10737   0.11305   0.12069   0.12253

 Mulliken charges:
               1
     1  C   -0.458362
     2  C    0.013893
     3  C   -0.439994
     4  C   -0.440052
     5  C    0.187590
     6  C   -0.200849
     7  C   -0.190725
     8  C    0.065171
     9  C    0.574659
    10  O   -0.513629
    11  N   -0.743455
    12  C    0.363410
    13  C   -0.181718
    14  C   -0.198345
    15  C    0.333500
    16  O   -0.505498
    17  C    0.526433
    18  C   -0.438784
    19  C    0.167221
    20  C   -0.184966
    21  C   -0.127041
    22  C   -0.128535
    23  C   -0.127294
    24  C   -0.173483
    25  N   -0.521739
    26  C    0.242532
    27  C   -0.265634
    28  C   -0.155852
    29  C   -0.193462
    30  H    0.147105
    31  H    0.145848
    32  H    0.144703
    33  H    0.148448
    34  H    0.145809
    35  H    0.141943
    36  H    0.146091
    37  H    0.141627
    38  H    0.150079
    39  H    0.132237
    40  H    0.128774
    41  H    0.336221
    42  H    0.193346
    43  H    0.152036
    44  H    0.171864
    45  H    0.189663
    46  H    0.127543
    47  H    0.131648
    48  H    0.131003
    49  H    0.132731
    50  H    0.145327
    51  H    0.136008
    52  H    0.161734
    53  H    0.133220
 Sum of Mulliken charges =  -0.00000

 Dipole moment (field-independent basis, Debye):
    X=             -1.0205    Y=              2.2711    Z=             -0.6879  Tot=              2.5832
 Quadrupole moment (field-independent basis, Debye-Ang):
   XX=           -132.4995   YY=           -170.5032   ZZ=           -165.9806
   XY=            -11.9782   XZ=              2.8654   YZ=              1.9823

 Normal termination of Gaussian 16 at Fri Nov  4 23:11:46 2022.
