 Gaussian 16, Revision B.01,
 Gaussian 16:  ES64L-G16RevB.01 20-Dec-2017

 -------------------------------------------------------------------
 #p b3lyp/6-31g(d) 6D 10F nosymm GFInput td=(50-50,nstate=2) SCF=XQC
 -------------------------------------------------------------------

 ------------------------------
 Gaussian input prepared by ASE
 ------------------------------
 Symbolic Z-matrix:
 Charge =  0 Multiplicity = 1

                          Input orientation:
 ---------------------------------------------------------------------
 Center     Atomic      Atomic             Coordinates (Angstroms)
 Number     Number       Type             X           Y           Z
 ---------------------------------------------------------------------
      1          6           0        7.236726   -4.655589   -0.671534
      2          8           0        5.860772   -4.994403   -0.653546
      3          6           0        4.950984   -3.975173   -0.572695
      4          6           0        5.268843   -2.617075   -0.505255
      5          6           0        4.263780   -1.647900   -0.424007
      6          6           0        2.915514   -2.025277   -0.404217
      7          7           0        1.802363   -1.158618   -0.343309
      8          6           0        1.664215    0.183754   -0.114835
      9         16           0        2.931423    1.256686    0.151323
     10          6           0        0.273341    0.632014   -0.099208
     11          6           0       -0.331466    1.915758   -0.024649
     12          6           0        0.318621    3.250357   -0.043097
     13          6           0        0.894514    3.763269   -1.218934
     14          6           0        1.426735    5.042885   -1.257977
     15          6           0        1.400413    5.853622   -0.112987
     16          8           0        1.953815    7.096677   -0.253599
     17          6           0        1.987927    7.943684    0.881450
     18          6           0        0.825166    5.366042    1.063825
     19          6           0        0.285811    4.076086    1.083597
     20          6           0       -1.753344    1.789540    0.021044
     21          6           0       -1.987550    0.425310   -0.041475
     22          7           0       -2.974837   -0.536944   -0.041885
     23          6           0       -2.320997   -1.758472   -0.110333
     24          6           0       -2.960489   -3.081883   -0.109199
     25          6           0       -4.148172   -3.343765   -0.811298
     26          6           0       -4.704165   -4.622555   -0.801913
     27          6           0       -4.080619   -5.655424   -0.100751
     28          6           0       -2.891861   -5.405710    0.589537
     29          6           0       -2.334925   -4.129848    0.588406
     30          7           0       -1.007204   -1.612949   -0.146587
     31          7           0       -0.810843   -0.254091   -0.108468
     32          6           0       -4.406624   -0.236092    0.013178
     33          6           0       -4.709756    1.142128    0.618970
     34          6           0       -4.219930    2.357272   -0.205220
     35          6           0       -2.804567    2.853991    0.144084
     36          6           0        2.606878   -3.400350   -0.477104
     37          6           0        3.601980   -4.359128   -0.560331
     38          1           0        7.489336   -4.032450   -1.540128
     39          1           0        7.536473   -4.129403    0.244876
     40          1           0        7.778622   -5.601244   -0.737305
     41          1           0        6.301079   -2.285507   -0.516279
     42          1           0        4.525920   -0.601648   -0.372302
     43          1           0        0.929473   -1.672808   -0.434176
     44          1           0        0.931832    3.140205   -2.107508
     45          1           0        1.876809    5.438429   -2.163311
     46          1           0        2.561937    7.495780    1.703729
     47          1           0        0.977356    8.183686    1.239865
     48          1           0        2.480825    8.862281    0.556670
     49          1           0        0.792862    5.969122    1.964197
     50          1           0       -0.148920    3.701020    2.006342
     51          1           0       -4.623648   -2.560653   -1.392596
     52          1           0       -5.620306   -4.812798   -1.353903
     53          1           0       -4.516066   -6.650681   -0.095201
     54          1           0       -2.400006   -6.205579    1.135772
     55          1           0       -1.416750   -3.927636    1.129929
     56          1           0       -4.820555   -0.271859   -1.004010
     57          1           0       -4.891295   -1.024177    0.596339
     58          1           0       -4.318583    1.191477    1.643574
     59          1           0       -5.802468    1.185327    0.704418
     60          1           0       -4.917266    3.187876   -0.045325
     61          1           0       -4.275130    2.113526   -1.275890
     62          1           0       -2.825798    3.250546    1.170896
     63          1           0       -2.551422    3.709835   -0.493486
     64          1           0        1.565332   -3.715063   -0.467212
     65          1           0        3.357887   -5.415432   -0.615639
 ---------------------------------------------------------------------

 SCF Done:  E(RB3LYP) =  -1927.66143626     A.U. after   16 cycles

 Excitation energies and oscillator strengths:

 Excited state symmetry could not be determined.
 Excited State   1:      Triplet-?Sym    2.4491 eV  506.24 nm  f=0.0000  <S**2>=2.000
     134 ->135         0.19571
     134 ->136         0.66607
 This state for optimization and/or second-order correction.
 Total Energy, E(TD-HF/TD-DFT) =  -1927.57143338
 Copying the excited state density for this state as the 1-particle RhoCI density.

 Excited state symmetry could not be determined.
 Excited State   2:      Triplet-?Sym    2.5288 eV  490.30 nm  f=0.0000  <S**2>=2.000
     132 ->135        -0.20097
     132 ->136        -0.40478
     133 ->136         0.50712

 Excited state symmetry could not be determined.
 Excited State   3:      Singlet-?Sym    2.6902 eV  460.88 nm  f=0.0028  <S**2>=0.000
     134 ->135         0.31619
     134 ->136         0.62490

 Excited state symmetry could not be determined.
 Excited State   4:      Singlet-?Sym    2.9102 eV  426.04 nm  f=0.0010  <S**2>=0.000
     134 ->135         0.63048
     134 ->136        -0.31252

 Alpha  occ. eigenvalues --  -88.79408 -19.16617 -19.16482 -14.42190 -14.41636
 Alpha  occ. eigenvalues --  -14.37936 -14.36165 -10.28405 -10.25878 -10.25792
 Alpha  occ. eigenvalues --  -10.25544 -10.23179 -10.23147 -10.23127 -10.23095
 Alpha  occ. eigenvalues --  -10.23021 -10.21775 -10.21734 -10.21621 -10.21345
 Alpha  occ. eigenvalues --  -10.21310 -10.21250 -10.21237 -10.21077 -10.20062
 Alpha  occ. eigenvalues --  -10.19320 -10.19119 -10.18392 -10.18109 -10.17739
 Alpha  occ. eigenvalues --  -10.17505 -10.17462 -10.17402 -10.17232 -10.17219
 Alpha  occ. eigenvalues --  -10.16866 -10.16727  -7.85661  -5.82180  -5.81692
 Alpha  occ. eigenvalues --   -5.81219  -1.09782  -1.05129  -1.05031  -0.97263
 Alpha  occ. eigenvalues --   -0.94409  -0.91249  -0.87644  -0.83729  -0.83551
 Alpha  occ. eigenvalues --   -0.81861  -0.79972  -0.78948  -0.76787  -0.76448
 Alpha  occ. eigenvalues --   -0.75354  -0.73839  -0.73295  -0.72376  -0.71810
 Alpha  occ. eigenvalues --   -0.69790  -0.69268  -0.68613  -0.67898  -0.64511
 Alpha  occ. eigenvalues --   -0.63181  -0.61596  -0.60890  -0.60374  -0.60141
 Alpha  occ. eigenvalues --   -0.59325  -0.58487  -0.57441  -0.55867  -0.55009
 Alpha  occ. eigenvalues --   -0.53510  -0.52888  -0.51919  -0.51778  -0.51255
 Alpha  occ. eigenvalues --   -0.49846  -0.49162  -0.48894  -0.47021  -0.46779
 Alpha  occ. eigenvalues --   -0.46500  -0.46171  -0.46057  -0.45747  -0.45672
 Alpha  occ. eigenvalues --   -0.45569  -0.44766  -0.44232  -0.44151  -0.43347
 Alpha  occ. eigenvalues --   -0.43102  -0.42008  -0.41107  -0.40749  -0.40500
 Alpha  occ. eigenvalues --   -0.40284  -0.40059  -0.39907  -0.39520  -0.38956
 Alpha  occ. eigenvalues --   -0.38272  -0.37422  -0.36942  -0.36414  -0.36233
 Alpha  occ. eigenvalues --   -0.35751  -0.35537  -0.35228  -0.34850  -0.34540
 Alpha  occ. eigenvalues --   -0.34314  -0.33988  -0.33640  -0.32036  -0.31577
 Alpha  occ. eigenvalues --   -0.31284  -0.31142  -0.30136  -0.30032  -0.27595
 Alpha  occ. eigenvalues --   -0.27253  -0.24281  -0.23675  -0.23386  -0.22051
 Alpha  occ. eigenvalues --   -0.20177  -0.18297  -0.17961  -0.17103
 Alpha virt. eigenvalues --   -0.04974  -0.03222  -0.02314   0.01250   0.01586
 Alpha virt. eigenvalues --    0.02369   0.02692   0.04403   0.06483   0.07301
 Alpha virt. eigenvalues --    0.07736   0.09644   0.10022   0.10387   0.10628

 Mulliken charges:
               1
     1  C   -0.212831
     2  O   -0.512608
     3  C    0.379442
     4  C   -0.215953
     5  C   -0.152545
     6  C    0.371860
     7  N   -0.757782
     8  C    0.180593
     9  S   -0.279909
    10  C    0.284916
    11  C   -0.168417
    12  C    0.098553
    13  C   -0.134964
    14  C   -0.176923
    15  C    0.377208
    16  O   -0.508728
    17  C   -0.211914
    18  C   -0.200393
    19  C   -0.164144
    20  C    0.124753
    21  C    0.544634
    22  N   -0.627043
    23  C    0.444615
    24  C    0.102931
    25  C   -0.168233
    26  C   -0.138363
    27  C   -0.118783
    28  C   -0.137196
    29  C   -0.152300
    30  N   -0.400448
    31  N   -0.449238
    32  C   -0.145802
    33  C   -0.293884
    34  C   -0.277104
    35  C   -0.335212
    36  C   -0.213536
    37  C   -0.178668
    38  H    0.151117
    39  H    0.151605
    40  H    0.164772
    41  H    0.132322
    42  H    0.185509
    43  H    0.397715
    44  H    0.133168
    45  H    0.133595
    46  H    0.153307
    47  H    0.145653
    48  H    0.165444
    49  H    0.124922
    50  H    0.125050
    51  H    0.140610
    52  H    0.141453
    53  H    0.142380
    54  H    0.145708
    55  H    0.163218
    56  H    0.166502
    57  H    0.176014
    58  H    0.162850
    59  H    0.153556
    60  H    0.145740
    61  H    0.142233
    62  H    0.148469
    63  H    0.161786
    64  H    0.135968
    65  H    0.132750
 Sum of Mulliken charges =  -0.00000

 Dipole moment (field-independent basis, Debye):
    X=             -8.3605    Y=             -2.4058    Z=              0.8018  Tot=              8.7366
 Quadrupole moment (field-independent basis, Debye-Ang):
   XX=           -183.2315   YY=           -195.5146   ZZ=           -219.8221
   XY=              1.3897   XZ=              1.1212   YZ=              8.0716

 Normal termination of Gaussian 16 at Sat Nov  5 10:02:28 2022.
