 Gaussian 16, Revision B.01,
 Gaussian 16:  ES64L-G16RevB.01 20-Dec-2017

 -----------------------------
 #p b3lyp/6-31g(d) opt SCF=XQC
 -----------------------------

 ------------------------------
 Gaussian input prepared by ASE
 ------------------------------
 Symbolic Z-matrix:
 Charge =  0 Multiplicity = 1

 SCF Done:  E(RB3LYP) =  -1927.65120267     A.U. after   16 cycles
 SCF Done:  E(RB3LYP) =  -1927.65900092     A.U. after   13 cycles
 SCF Done:  E(RB3LYP) =  -1927.65909946     A.U. after   13 cycles
 SCF Done:  E(RB3LYP) =  -1927.66118886     A.U. after   12 cycles
 SCF Done:  E(RB3LYP) =  -1927.66131247     A.U. after   12 cycles
 SCF Done:  E(RB3LYP) =  -1927.66138480     A.U. after   11 cycles
 SCF Done:  E(RB3LYP) =  -1927.66140611     A.U. after   10 cycles
 SCF Done:  E(RB3LYP) =  -1927.66141523     A.U. after   10 cycles
 SCF Done:  E(RB3LYP) =  -1927.66142061     A.U. after   10 cycles
 SCF Done:  E(RB3LYP) =  -1927.66142452     A.U. after   10 cycles
 SCF Done:  E(RB3LYP) =  -1927.66143048     A.U. after    7 cycles
 SCF Done:  E(RB3LYP) =  -1927.66143066     A.U. after    7 cycles
 SCF Done:  E(RB3LYP) =  -1927.66143077     A.U. after    7 cycles
 SCF Done:  E(RB3LYP) =  -1927.66143089     A.U. after    7 cycles
 SCF Done:  E(RB3LYP) =  -1927.66143105     A.U. after    8 cycles
 SCF Done:  E(RB3LYP) =  -1927.66143125     A.U. after    8 cycles
 SCF Done:  E(RB3LYP) =  -1927.66143146     A.U. after    8 cycles
 SCF Done:  E(RB3LYP) =  -1927.66143171     A.U. after    9 cycles
 SCF Done:  E(RB3LYP) =  -1927.66143187     A.U. after    8 cycles
 SCF Done:  E(RB3LYP) =  -1927.66143193     A.U. after    7 cycles
 Optimization completed.
    -- Stationary point found.

                         Standard orientation:
 ---------------------------------------------------------------------
 Center     Atomic      Atomic             Coordinates (Angstroms)
 Number     Number       Type             X           Y           Z
 ---------------------------------------------------------------------
      1          6           0       -5.118345    6.672981    0.023449
      2          8           0       -5.359404    5.276666    0.047187
      3          6           0       -4.276635    4.439638    0.055979
      4          6           0       -2.942217    4.850936    0.042779
      5          6           0       -1.902678    3.915356    0.052737
      6          6           0       -2.183981    2.543809    0.071578
      7          7           0       -1.240135    1.493960    0.101329
      8          6           0        0.118755    1.443369   -0.053936
      9         16           0        1.113654    2.772733   -0.320029
     10          6           0        0.662688    0.088563    0.011984
     11          6           0        1.987461   -0.425336    0.027245
     12          6           0        3.270882    0.318751    0.084438
     13          6           0        3.679933    0.975198    1.258780
     14          6           0        4.915678    1.598681    1.338803
     15          6           0        5.785465    1.585838    0.237761
     16          8           0        6.977970    2.231772    0.416413
     17          6           0        7.879169    2.282143   -0.675476
     18          6           0        5.401656    0.931808   -0.936319
     19          6           0        4.155091    0.301226   -0.997324
     20          6           0        1.962836   -1.853298    0.035878
     21          6           0        0.616761   -2.181852    0.040303
     22          7           0       -0.273317   -3.234657    0.034817
     23          6           0       -1.539192   -2.667677    0.014469
     24          6           0       -2.813117   -3.399731   -0.025342
     25          6           0       -3.028533   -4.574857    0.712756
     26          6           0       -4.263368   -5.220819    0.663380
     27          6           0       -5.298664   -4.700510   -0.114242
     28          6           0       -5.096066   -3.524721   -0.841206
     29          6           0       -3.863779   -2.878351   -0.800252
     30          7           0       -1.487336   -1.346429    0.001978
     31          7           0       -0.145271   -1.055028    0.023245
     32          6           0        0.128685   -4.642319    0.055787
     33          6           0        1.554614   -4.869474   -0.467179
     34          6           0        2.687722   -4.262283    0.394900
     35          6           0        3.102694   -2.829699    0.010843
     36          6           0       -3.536236    2.140702    0.088976
     37          6           0       -4.564831    3.067175    0.081935
     38          1           0       -4.560861    7.003137    0.910454
     39          1           0       -4.566702    6.973676   -0.877550
     40          1           0       -6.101485    7.148012    0.018930
     41          1           0       -2.684149    5.903885    0.026358
     42          1           0       -0.875880    4.249432    0.042081
     43          1           0       -1.696559    0.590735    0.203546
     44          1           0        3.009848    1.002437    2.112834
     45          1           0        5.230789    2.110800    2.242734
     46          1           0        7.436431    2.790196   -1.542720
     47          1           0        8.207290    1.278134   -0.978162
     48          1           0        8.742949    2.851742   -0.326631
     49          1           0        6.052108    0.907678   -1.803354
     50          1           0        3.860232   -0.194815   -1.918262
     51          1           0       -2.246009   -4.970117    1.352034
     52          1           0       -4.418361   -6.126028    1.243702
     53          1           0       -6.259614   -5.205900   -0.150804
     54          1           0       -5.898267   -3.112972   -1.447027
     55          1           0       -3.697554   -1.969852   -1.369620
     56          1           0        0.068215   -5.017824    1.086626
     57          1           0       -0.592041   -5.204447   -0.544734
     58          1           0        1.630586   -4.515969   -1.503773
     59          1           0        1.678005   -5.958796   -0.503788
     60          1           0        3.571997   -4.904131    0.306383
     61          1           0        2.392343   -4.293038    1.453483
     62          1           0        3.553297   -2.862486   -0.993115
     63          1           0        3.904129   -2.491365    0.678883
     64          1           0       -3.776927    1.079722    0.107763
     65          1           0       -5.603085    2.750507    0.094918
 ---------------------------------------------------------------------

 The electronic state is 1-A.
 Alpha  occ. eigenvalues --  -88.79408 -19.16617 -19.16482 -14.42190 -14.41636
 Alpha  occ. eigenvalues --  -14.37936 -14.36165 -10.28405 -10.25877 -10.25792
 Alpha  occ. eigenvalues --  -10.25544 -10.23179 -10.23147 -10.23127 -10.23095
 Alpha  occ. eigenvalues --  -10.23021 -10.21775 -10.21734 -10.21621 -10.21345
 Alpha  occ. eigenvalues --  -10.21310 -10.21250 -10.21237 -10.21077 -10.20062
 Alpha  occ. eigenvalues --  -10.19320 -10.19119 -10.18392 -10.18109 -10.17739
 Alpha  occ. eigenvalues --  -10.17505 -10.17462 -10.17402 -10.17232 -10.17219
 Alpha  occ. eigenvalues --  -10.16866 -10.16727  -7.85661  -5.82180  -5.81692
 Alpha  occ. eigenvalues --   -5.81219  -1.09782  -1.05129  -1.05031  -0.97263
 Alpha  occ. eigenvalues --   -0.94409  -0.91249  -0.87644  -0.83729  -0.83551
 Alpha  occ. eigenvalues --   -0.81861  -0.79972  -0.78948  -0.76787  -0.76448
 Alpha  occ. eigenvalues --   -0.75354  -0.73839  -0.73295  -0.72376  -0.71810
 Alpha  occ. eigenvalues --   -0.69790  -0.69268  -0.68613  -0.67898  -0.64511
 Alpha  occ. eigenvalues --   -0.63181  -0.61596  -0.60890  -0.60374  -0.60141
 Alpha  occ. eigenvalues --   -0.59325  -0.58487  -0.57441  -0.55867  -0.55009
 Alpha  occ. eigenvalues --   -0.53510  -0.52888  -0.51919  -0.51778  -0.51255
 Alpha  occ. eigenvalues --   -0.49846  -0.49162  -0.48894  -0.47021  -0.46779
 Alpha  occ. eigenvalues --   -0.46500  -0.46171  -0.46057  -0.45747  -0.45672
 Alpha  occ. eigenvalues --   -0.45569  -0.44766  -0.44232  -0.44151  -0.43347
 Alpha  occ. eigenvalues --   -0.43102  -0.42008  -0.41107  -0.40749  -0.40500
 Alpha  occ. eigenvalues --   -0.40284  -0.40059  -0.39907  -0.39520  -0.38956
 Alpha  occ. eigenvalues --   -0.38272  -0.37422  -0.36942  -0.36414  -0.36233
 Alpha  occ. eigenvalues --   -0.35751  -0.35537  -0.35228  -0.34850  -0.34540
 Alpha  occ. eigenvalues --   -0.34314  -0.33988  -0.33640  -0.32036  -0.31577
 Alpha  occ. eigenvalues --   -0.31284  -0.31142  -0.30136  -0.30032  -0.27595
 Alpha  occ. eigenvalues --   -0.27253  -0.24281  -0.23675  -0.23386  -0.22051
 Alpha  occ. eigenvalues --   -0.20177  -0.18297  -0.17961  -0.17103
 Alpha virt. eigenvalues --   -0.04974  -0.03222  -0.02315   0.01250   0.01586
 Alpha virt. eigenvalues --    0.02369   0.02692   0.04403   0.06483   0.07302
 Alpha virt. eigenvalues --    0.07736   0.09644   0.10022   0.10387   0.10628

 Mulliken charges:
               1
     1  C   -0.212824
     2  O   -0.512606
     3  C    0.379444
     4  C   -0.215945
     5  C   -0.152574
     6  C    0.371892
     7  N   -0.757791
     8  C    0.180606
     9  S   -0.279910
    10  C    0.284904
    11  C   -0.168391
    12  C    0.098542
    13  C   -0.134955
    14  C   -0.176929
    15  C    0.377208
    16  O   -0.508725
    17  C   -0.211917
    18  C   -0.200387
    19  C   -0.164154
    20  C    0.124773
    21  C    0.544619
    22  N   -0.627029
    23  C    0.444611
    24  C    0.102907
    25  C   -0.168232
    26  C   -0.138363
    27  C   -0.118779
    28  C   -0.137205
    29  C   -0.152284
    30  N   -0.400440
    31  N   -0.449251
    32  C   -0.145811
    33  C   -0.293880
    34  C   -0.277090
    35  C   -0.335222
    36  C   -0.213540
    37  C   -0.178681
    38  H    0.151116
    39  H    0.151604
    40  H    0.164771
    41  H    0.132322
    42  H    0.185508
    43  H    0.397714
    44  H    0.133167
    45  H    0.133597
    46  H    0.153307
    47  H    0.145653
    48  H    0.165444
    49  H    0.124920
    50  H    0.125052
    51  H    0.140611
    52  H    0.141453
    53  H    0.142380
    54  H    0.145710
    55  H    0.163217
    56  H    0.166502
    57  H    0.176015
    58  H    0.162849
    59  H    0.153556
    60  H    0.145738
    61  H    0.142230
    62  H    0.148470
    63  H    0.161786
    64  H    0.135967
    65  H    0.132751
 Sum of Mulliken charges =  -0.00000

 Dipole moment (field-independent basis, Debye):
    X=             -1.7741    Y=             -8.5360    Z=             -0.5641  Tot=              8.7366
 Quadrupole moment (field-independent basis, Debye-Ang):
   XX=           -195.0797   YY=           -179.3075   ZZ=           -220.2876
   XY=              0.2766   XZ=             -6.5199   YZ=             -2.0623

 Normal termination of Gaussian 16 at Fri Nov  4 10:41:48 2022.
