 Gaussian 16, Revision B.01,
 Gaussian 16:  ES64L-G16RevB.01 20-Dec-2017

 -------------------------------------------------------------------
 #p b3lyp/6-31g(d) 6D 10F nosymm GFInput td=(50-50,nstate=2) SCF=XQC
 -------------------------------------------------------------------

 ------------------------------
 Gaussian input prepared by ASE
 ------------------------------
 Symbolic Z-matrix:
 Charge =  0 Multiplicity = 1

                          Input orientation:
 ---------------------------------------------------------------------
 Center     Atomic      Atomic             Coordinates (Angstroms)
 Number     Number       Type             X           Y           Z
 ---------------------------------------------------------------------
      1          6           0        8.712167   -0.560899   -6.223060
      2          6           0        9.440600   -1.001530   -5.195490
      3          6           0        9.462381   -2.416947   -4.683044
      4          6           0        9.235845   -2.589169   -3.164420
      5          6           0        7.812031   -2.304015   -2.651488
      6          6           0        7.449849   -0.819767   -2.492035
      7          6           0        6.039964   -0.615406   -1.920607
      8          6           0        5.681237    0.864175   -1.781037
      9          8           0        4.343984    1.069086   -1.317117
     10          6           0        4.060544    0.990470    0.014259
     11          6           0        4.993003    0.745944    1.030540
     12          6           0        4.574325    0.714989    2.361327
     13          6           0        3.234791    0.917465    2.719391
     14          6           0        2.767212    0.888537    4.126749
     15          6           0        3.669595    0.984560    5.221402
     16          6           0        3.175793    0.950982    6.504459
     17          6           0        1.785336    0.831952    6.724939
     18          6           0        1.212902    0.794537    8.036745
     19          6           0       -0.135462    0.688316    8.206300
     20          6           0       -1.011728    0.613299    7.076490
     21          6           0       -2.413310    0.492563    7.207046
     22          6           0       -3.206376    0.421737    6.085710
     23          6           0       -2.600022    0.481277    4.801099
     24          6           0       -3.397581    0.411586    3.551857
     25          6           0       -4.785658    0.600306    3.527562
     26          6           0       -5.516272    0.527980    2.340390
     27          6           0       -4.855497    0.259099    1.135896
     28          8           0       -5.463544    0.161265   -0.079749
     29          6           0       -6.877258    0.335714   -0.160629
     30          6           0       -7.284196    0.167386   -1.618762
     31          6           0       -8.800665    0.306204   -1.812072
     32          6           0       -9.292617    0.297737   -3.270977
     33          6           0       -9.066539   -1.014563   -4.052595
     34          6           0       -7.740688   -1.104389   -4.844508
     35          6           0       -7.657278   -0.114799   -5.975488
     36          6           0       -6.709413    0.811631   -6.127230
     37          6           0       -3.463039    0.074047    1.141464
     38          6           0       -2.750977    0.153003    2.326165
     39          7           0       -1.278965    0.585941    4.661854
     40          6           0       -0.490172    0.648338    5.751415
     41          6           0        0.955193    0.759041    5.569694
     42          7           0        1.452532    0.785139    4.318593
     43          6           0        2.309942    1.147370    1.681222
     44          6           0        2.712221    1.187390    0.356886
     45          1           0        8.036799   -1.218004   -6.767825
     46          1           0        8.764623    0.469956   -6.563461
     47          1           0       10.106121   -0.303495   -4.682788
     48          1           0        8.727046   -3.018806   -5.234214
     49          1           0       10.448644   -2.847782   -4.916438
     50          1           0        9.488636   -3.628015   -2.915061
     51          1           0        9.956187   -1.965123   -2.614850
     52          1           0        7.084197   -2.786871   -3.320123
     53          1           0        7.692626   -2.794172   -1.674802
     54          1           0        7.531947   -0.310906   -3.459668
     55          1           0        8.186833   -0.342008   -1.828446
     56          1           0        5.954879   -1.110885   -0.944947
     57          1           0        5.295853   -1.087438   -2.575288
     58          1           0        6.394050    1.393073   -1.134170
     59          1           0        5.706544    1.350802   -2.761205
     60          1           0        6.037771    0.568489    0.803445
     61          1           0        5.319273    0.500716    3.121901
     62          1           0        4.733950    1.105058    5.052617
     63          1           0        3.846393    1.026291    7.357716
     64          1           0        1.877156    0.853069    8.895848
     65          1           0       -0.568657    0.658384    9.203368
     66          1           0       -2.854181    0.445808    8.200452
     67          1           0       -4.279163    0.300486    6.186864
     68          1           0       -5.324407    0.832324    4.441414
     69          1           0       -6.587823    0.688723    2.366410
     70          1           0       -7.382943   -0.407761    0.473497
     71          1           0       -7.153255    1.334786    0.207955
     72          1           0       -6.936874   -0.815253   -1.958037
     73          1           0       -6.754419    0.917450   -2.220033
     74          1           0       -9.130659    1.247361   -1.348394
     75          1           0       -9.309913   -0.497523   -1.259495
     76          1           0       -8.833668    1.131449   -3.819305
     77          1           0      -10.369490    0.509598   -3.248880
     78          1           0       -9.890034   -1.147897   -4.767566
     79          1           0       -9.129355   -1.868912   -3.364069
     80          1           0       -6.879477   -0.973810   -4.179779
     81          1           0       -7.664631   -2.122057   -5.256726
     82          1           0       -8.454538   -0.180547   -6.719395
     83          1           0       -5.894134    0.916964   -5.413826
     84          1           0       -6.704429    1.494545   -6.972821
     85          1           0       -2.965360   -0.132369    0.198822
     86          1           0       -1.675264    0.016117    2.333115
     87          1           0        1.268613    1.295150    1.945458
     88          1           0        2.000341    1.375453   -0.441021
 ---------------------------------------------------------------------

 SCF Done:  E(RB3LYP) =  -1810.69837203     A.U. after   14 cycles

 Excitation energies and oscillator strengths:

 Excited state symmetry could not be determined.
 Excited State   1:      Triplet-?Sym    2.4572 eV  504.58 nm  f=0.0000  <S**2>=2.000
     153 ->159         0.13249
     154 ->158        -0.19467
     156 ->160        -0.17692
     157 ->158         0.61418
 This state for optimization and/or second-order correction.
 Total Energy, E(TD-HF/TD-DFT) =  -1810.60807202
 Copying the excited state density for this state as the 1-particle RhoCI density.

 Excited state symmetry could not be determined.
 Excited State   2:      Triplet-?Sym    2.9148 eV  425.36 nm  f=0.0000  <S**2>=2.000
     156 ->158         0.47361
     157 ->159        -0.32592
     157 ->160        -0.33346

 Excited state symmetry could not be determined.
 Excited State   3:      Singlet-?Sym    3.3715 eV  367.75 nm  f=0.5102  <S**2>=0.000
     157 ->158         0.70056

 Excited state symmetry could not be determined.
 Excited State   4:      Singlet-?Sym    3.5308 eV  351.15 nm  f=0.0160  <S**2>=0.000
     153 ->158        -0.14051
     156 ->158        -0.23061
     157 ->159         0.63785

 Alpha  occ. eigenvalues --  -19.17238 -19.17064 -14.31349 -14.31332 -10.24286
 Alpha  occ. eigenvalues --  -10.24246 -10.23916 -10.23745 -10.22477 -10.22461
 Alpha  occ. eigenvalues --  -10.21916 -10.21882 -10.20115 -10.20107 -10.19808
 Alpha  occ. eigenvalues --  -10.19798 -10.19369 -10.19299 -10.19182 -10.19169
 Alpha  occ. eigenvalues --  -10.18983 -10.18799 -10.18757 -10.18746 -10.18583
 Alpha  occ. eigenvalues --  -10.18567 -10.18550 -10.18442 -10.18377 -10.18298
 Alpha  occ. eigenvalues --  -10.18283 -10.18269 -10.18234 -10.18220 -10.18216
 Alpha  occ. eigenvalues --  -10.18190 -10.18140 -10.17926 -10.17791 -10.17674
 Alpha  occ. eigenvalues --  -10.17640 -10.17557 -10.17509 -10.17462  -1.05886
 Alpha  occ. eigenvalues --   -1.05567  -0.94536  -0.92457  -0.85052  -0.84400
 Alpha  occ. eigenvalues --   -0.83631  -0.81384  -0.81328  -0.80028  -0.79706
 Alpha  occ. eigenvalues --   -0.79066  -0.78858  -0.76531  -0.76000  -0.74902
 Alpha  occ. eigenvalues --   -0.74696  -0.73834  -0.73762  -0.72196  -0.71808
 Alpha  occ. eigenvalues --   -0.69838  -0.69778  -0.65899  -0.65683  -0.64464
 Alpha  occ. eigenvalues --   -0.63438  -0.62608  -0.61559  -0.60900  -0.60218
 Alpha  occ. eigenvalues --   -0.59450  -0.58505  -0.57625  -0.57532  -0.57059
 Alpha  occ. eigenvalues --   -0.57008  -0.55274  -0.54741  -0.54514  -0.53270
 Alpha  occ. eigenvalues --   -0.52673  -0.51543  -0.50912  -0.49101  -0.48781
 Alpha  occ. eigenvalues --   -0.48629  -0.48281  -0.47117  -0.46487  -0.46229
 Alpha  occ. eigenvalues --   -0.45947  -0.45454  -0.44917  -0.44657  -0.44565
 Alpha  occ. eigenvalues --   -0.44500  -0.44259  -0.43828  -0.43622  -0.43190
 Alpha  occ. eigenvalues --   -0.42560  -0.42375  -0.41970  -0.41823  -0.41362
 Alpha  occ. eigenvalues --   -0.41232  -0.40888  -0.40423  -0.40129  -0.39790
 Alpha  occ. eigenvalues --   -0.39672  -0.39041  -0.38711  -0.38295  -0.38068
 Alpha  occ. eigenvalues --   -0.37579  -0.37045  -0.36785  -0.36601  -0.36299
 Alpha  occ. eigenvalues --   -0.36154  -0.35685  -0.35373  -0.35317  -0.34761
 Alpha  occ. eigenvalues --   -0.34363  -0.34185  -0.33859  -0.33788  -0.33512
 Alpha  occ. eigenvalues --   -0.33061  -0.32748  -0.32356  -0.32292  -0.32034
 Alpha  occ. eigenvalues --   -0.31874  -0.31466  -0.31116  -0.31056  -0.30455
 Alpha  occ. eigenvalues --   -0.28858  -0.28148  -0.25099  -0.25085  -0.24725
 Alpha  occ. eigenvalues --   -0.24415  -0.24266  -0.24074  -0.23554  -0.23233
 Alpha  occ. eigenvalues --   -0.20372  -0.19218
 Alpha virt. eigenvalues --   -0.05270  -0.04175  -0.02044   0.00454   0.00920
 Alpha virt. eigenvalues --    0.01968   0.02036   0.02360   0.03584   0.04809
 Alpha virt. eigenvalues --    0.08108   0.08458   0.09022   0.09474   0.09931

 Mulliken charges:
               1
     1  C   -0.345779
     2  C   -0.033887
     3  C   -0.300707
     4  C   -0.266046
     5  C   -0.248792
     6  C   -0.269240
     7  C   -0.282321
     8  C   -0.038171
     9  O   -0.525892
    10  C    0.387289
    11  C   -0.200242
    12  C   -0.194974
    13  C    0.091966
    14  C    0.261987
    15  C   -0.172159
    16  C   -0.165339
    17  C    0.158751
    18  C   -0.197026
    19  C   -0.197172
    20  C    0.159030
    21  C   -0.165449
    22  C   -0.172024
    23  C    0.262633
    24  C    0.091916
    25  C   -0.194120
    26  C   -0.204527
    27  C    0.389371
    28  O   -0.523991
    29  C   -0.029139
    30  C   -0.279174
    31  C   -0.267133
    32  C   -0.257634
    33  C   -0.264541
    34  C   -0.308088
    35  C   -0.037684
    36  C   -0.344112
    37  C   -0.182889
    38  C   -0.169206
    39  N   -0.574499
    40  C    0.222390
    41  C    0.222675
    42  N   -0.574401
    43  C   -0.168600
    44  C   -0.183065
    45  H    0.135910
    46  H    0.138713
    47  H    0.123640
    48  H    0.137963
    49  H    0.146037
    50  H    0.134243
    51  H    0.129510
    52  H    0.131771
    53  H    0.131311
    54  H    0.150958
    55  H    0.123952
    56  H    0.146491
    57  H    0.149112
    58  H    0.138764
    59  H    0.153729
    60  H    0.129837
    61  H    0.126240
    62  H    0.137150
    63  H    0.135906
    64  H    0.130313
    65  H    0.130326
    66  H    0.136040
    67  H    0.137298
    68  H    0.126863
    69  H    0.131325
    70  H    0.137195
    71  H    0.138436
    72  H    0.154742
    73  H    0.150273
    74  H    0.130334
    75  H    0.130480
    76  H    0.144980
    77  H    0.130565
    78  H    0.132587
    79  H    0.131864
    80  H    0.147642
    81  H    0.142277
    82  H    0.122055
    83  H    0.138055
    84  H    0.138057
    85  H    0.137366
    86  H    0.176275
    87  H    0.175608
    88  H    0.137818
 Sum of Mulliken charges =  -0.00000

 Dipole moment (field-independent basis, Debye):
    X=              0.3330    Y=             -0.8318    Z=              0.6311  Tot=              1.0959
 Quadrupole moment (field-independent basis, Debye-Ang):
   XX=           -192.7584   YY=           -264.5401   ZZ=           -226.8859
   XY=             -2.4645   XZ=              0.0923   YZ=              3.1590

 Normal termination of Gaussian 16 at Sat Nov  5 10:01:36 2022.
