 Gaussian 16, Revision B.01,
 Gaussian 16:  ES64L-G16RevB.01 20-Dec-2017

 -----------------------------
 #p b3lyp/6-31g(d) opt SCF=XQC
 -----------------------------

 ------------------------------
 Gaussian input prepared by ASE
 ------------------------------
 Symbolic Z-matrix:
 Charge =  0 Multiplicity = 1

 SCF Done:  E(RB3LYP) =  -1810.68836887     A.U. after   14 cycles
 SCF Done:  E(RB3LYP) =  -1810.69681092     A.U. after   12 cycles
 SCF Done:  E(RB3LYP) =  -1810.69783647     A.U. after   12 cycles
 SCF Done:  E(RB3LYP) =  -1810.69806937     A.U. after   10 cycles
 SCF Done:  E(RB3LYP) =  -1810.69810783     A.U. after   10 cycles
 SCF Done:  E(RB3LYP) =  -1810.69812553     A.U. after    9 cycles
 SCF Done:  E(RB3LYP) =  -1810.69813609     A.U. after    9 cycles
 SCF Done:  E(RB3LYP) =  -1810.69814468     A.U. after   10 cycles
 SCF Done:  E(RB3LYP) =  -1810.69814719     A.U. after    9 cycles
 SCF Done:  E(RB3LYP) =  -1810.69814867     A.U. after    9 cycles
 SCF Done:  E(RB3LYP) =  -1810.69834719     A.U. after   10 cycles
 SCF Done:  E(RB3LYP) =  -1810.69836453     A.U. after    9 cycles
 SCF Done:  E(RB3LYP) =  -1810.69837736     A.U. after    9 cycles
 SCF Done:  E(RB3LYP) =  -1810.69838411     A.U. after    9 cycles
 SCF Done:  E(RB3LYP) =  -1810.69838630     A.U. after    9 cycles
 SCF Done:  E(RB3LYP) =  -1810.69838737     A.U. after    9 cycles
 SCF Done:  E(RB3LYP) =  -1810.69838772     A.U. after    8 cycles
 SCF Done:  E(RB3LYP) =  -1810.69838780     A.U. after    7 cycles
 SCF Done:  E(RB3LYP) =  -1810.69838781     A.U. after    6 cycles
 SCF Done:  E(RB3LYP) =  -1810.69838782     A.U. after    5 cycles
 Optimization completed.
    -- Stationary point found.

                         Standard orientation:
 ---------------------------------------------------------------------
 Center     Atomic      Atomic             Coordinates (Angstroms)
 Number     Number       Type             X           Y           Z
 ---------------------------------------------------------------------
      1          6           0        9.147663   -6.489186   -0.591150
      2          6           0        9.834889   -5.480333   -0.052068
      3          6           0        9.899223   -5.152695    1.415921
      4          6           0        9.591056   -3.686934    1.795100
      5          6           0        8.126113   -3.237330    1.641941
      6          6           0        7.678495   -2.913850    0.208556
      7          6           0        6.228113   -2.415762    0.142464
      8          6           0        5.785377   -2.112325   -1.289051
      9          8           0        4.413831   -1.715737   -1.372926
     10          6           0        4.055337   -0.427083   -1.108476
     11          6           0        4.936451    0.609194   -0.774008
     12          6           0        4.440710    1.894388   -0.550938
     13          6           0        3.073380    2.185761   -0.646153
     14          6           0        2.524184    3.543744   -0.412936
     15          6           0        3.352940    4.699109   -0.404194
     16          6           0        2.785318    5.931752   -0.181493
     17          6           0        1.392172    6.042505    0.025945
     18          6           0        0.744636    7.297892    0.259642
     19          6           0       -0.604152    7.362679    0.445891
     20          6           0       -1.405850    6.176941    0.410604
     21          6           0       -2.804592    6.197750    0.608451
     22          6           0       -3.524079    5.026451    0.566490
     23          6           0       -2.845514    3.803052    0.312957
     24          6           0       -3.561850    2.505027    0.253331
     25          6           0       -4.953874    2.413047    0.123827
     26          6           0       -5.607072    1.180549    0.072011
     27          6           0       -4.862036   -0.001936    0.151868
     28          8           0       -5.390019   -1.257743    0.116240
     29          6           0       -6.803457   -1.409241   -0.005414
     30          6           0       -7.112734   -2.900681   -0.011731
     31          6           0       -8.619997   -3.174807   -0.108321
     32          6           0       -9.022265   -4.652217   -0.269360
     33          6           0       -8.681845   -5.578426    0.918250
     34          6           0       -7.307919   -6.285635    0.845719
     35          6           0       -7.208127   -7.272812   -0.286043
     36          6           0       -6.302192   -7.241698   -1.264847
     37          6           0       -3.464708    0.072271    0.275097
     38          6           0       -2.830200    1.301942    0.320833
     39          7           0       -1.525687    3.766250    0.133407
     40          6           0       -0.808111    4.904744    0.179746
     41          6           0        0.637871    4.834924   -0.016769
     42          7           0        1.207486    3.633181   -0.228036
     43          6           0        2.201925    1.126459   -0.969336
     44          6           0        2.680462   -0.152280   -1.199824
     45          1           0        8.541258   -7.157052    0.017872
     46          1           0        9.166938   -6.690801   -1.658982
     47          1           0       10.431282   -4.839618   -0.705394
     48          1           0        9.230561   -5.823815    1.972003
     49          1           0       10.918751   -5.373314    1.769046
     50          1           0        9.881950   -3.556188    2.845609
     51          1           0       10.243718   -3.015556    1.217488
     52          1           0        7.465815   -4.008983    2.064461
     53          1           0        7.973805   -2.341391    2.260426
     54          1           0        7.792100   -3.800913   -0.425640
     55          1           0        8.348482   -2.147235   -0.209975
     56          1           0        6.110355   -1.519243    0.764587
     57          1           0        5.550189   -3.173303    0.556799
     58          1           0        6.429621   -1.357325   -1.759365
     59          1           0        5.844275   -3.018402   -1.900387
     60          1           0        6.000777    0.431074   -0.673572
     61          1           0        5.148706    2.669054   -0.271709
     62          1           0        4.417830    4.618072   -0.592087
     63          1           0        3.398607    6.830217   -0.173704
     64          1           0        1.352119    8.199577    0.285089
     65          1           0       -1.094358    8.316801    0.624915
     66          1           0       -3.301357    7.145588    0.803992
     67          1           0       -4.593270    5.039905    0.746646
     68          1           0       -5.557888    3.311301    0.037124
     69          1           0       -6.685143    1.155777   -0.037015
     70          1           0       -7.307094   -0.910289    0.836004
     71          1           0       -7.152565   -0.935106   -0.934658
     72          1           0       -6.695142   -3.338982    0.901959
     73          1           0       -6.587398   -3.364681   -0.856428
     74          1           0       -9.025642   -2.617553   -0.965403
     75          1           0       -9.119158   -2.764491    0.782258
     76          1           0       -8.575055   -5.057832   -1.186886
     77          1           0      -10.108057   -4.674690   -0.429298
     78          1           0       -9.452849   -6.357602    0.992701
     79          1           0       -8.741530   -5.010440    1.857268
     80          1           0       -6.496157   -5.554028    0.765777
     81          1           0       -7.154535   -6.818586    1.796399
     82          1           0       -7.954745   -8.070245   -0.283462
     83          1           0       -5.537832   -6.468197   -1.311411
     84          1           0       -6.281823   -7.990860   -2.052098
     85          1           0       -2.901233   -0.853923    0.334470
     86          1           0       -1.751200    1.362666    0.410364
     87          1           0        1.140336    1.337768   -1.035671
     88          1           0        2.009034   -0.965046   -1.459423
 ---------------------------------------------------------------------

 The electronic state is 1-A.
 Alpha  occ. eigenvalues --  -19.17238 -19.17064 -14.31349 -14.31332 -10.24286
 Alpha  occ. eigenvalues --  -10.24246 -10.23916 -10.23745 -10.22477 -10.22461
 Alpha  occ. eigenvalues --  -10.21916 -10.21882 -10.20115 -10.20107 -10.19808
 Alpha  occ. eigenvalues --  -10.19798 -10.19369 -10.19299 -10.19182 -10.19169
 Alpha  occ. eigenvalues --  -10.18983 -10.18799 -10.18757 -10.18746 -10.18583
 Alpha  occ. eigenvalues --  -10.18567 -10.18550 -10.18442 -10.18377 -10.18298
 Alpha  occ. eigenvalues --  -10.18283 -10.18269 -10.18234 -10.18220 -10.18216
 Alpha  occ. eigenvalues --  -10.18190 -10.18139 -10.17926 -10.17791 -10.17674
 Alpha  occ. eigenvalues --  -10.17640 -10.17557 -10.17509 -10.17462  -1.05887
 Alpha  occ. eigenvalues --   -1.05567  -0.94536  -0.92457  -0.85052  -0.84400
 Alpha  occ. eigenvalues --   -0.83631  -0.81384  -0.81328  -0.80028  -0.79706
 Alpha  occ. eigenvalues --   -0.79066  -0.78858  -0.76531  -0.76000  -0.74902
 Alpha  occ. eigenvalues --   -0.74696  -0.73834  -0.73762  -0.72196  -0.71808
 Alpha  occ. eigenvalues --   -0.69838  -0.69778  -0.65899  -0.65683  -0.64464
 Alpha  occ. eigenvalues --   -0.63438  -0.62608  -0.61559  -0.60900  -0.60218
 Alpha  occ. eigenvalues --   -0.59450  -0.58505  -0.57625  -0.57532  -0.57058
 Alpha  occ. eigenvalues --   -0.57008  -0.55274  -0.54741  -0.54514  -0.53269
 Alpha  occ. eigenvalues --   -0.52673  -0.51543  -0.50912  -0.49101  -0.48781
 Alpha  occ. eigenvalues --   -0.48629  -0.48281  -0.47117  -0.46487  -0.46229
 Alpha  occ. eigenvalues --   -0.45947  -0.45454  -0.44917  -0.44658  -0.44565
 Alpha  occ. eigenvalues --   -0.44500  -0.44259  -0.43828  -0.43622  -0.43190
 Alpha  occ. eigenvalues --   -0.42560  -0.42375  -0.41970  -0.41823  -0.41362
 Alpha  occ. eigenvalues --   -0.41232  -0.40888  -0.40423  -0.40129  -0.39790
 Alpha  occ. eigenvalues --   -0.39672  -0.39041  -0.38711  -0.38295  -0.38068
 Alpha  occ. eigenvalues --   -0.37579  -0.37045  -0.36785  -0.36601  -0.36299
 Alpha  occ. eigenvalues --   -0.36154  -0.35685  -0.35373  -0.35317  -0.34761
 Alpha  occ. eigenvalues --   -0.34363  -0.34185  -0.33859  -0.33788  -0.33512
 Alpha  occ. eigenvalues --   -0.33061  -0.32748  -0.32356  -0.32292  -0.32034
 Alpha  occ. eigenvalues --   -0.31874  -0.31466  -0.31116  -0.31056  -0.30455
 Alpha  occ. eigenvalues --   -0.28858  -0.28148  -0.25099  -0.25085  -0.24725
 Alpha  occ. eigenvalues --   -0.24415  -0.24266  -0.24074  -0.23554  -0.23233
 Alpha  occ. eigenvalues --   -0.20372  -0.19218
 Alpha virt. eigenvalues --   -0.05270  -0.04175  -0.02044   0.00454   0.00920
 Alpha virt. eigenvalues --    0.01967   0.02036   0.02360   0.03584   0.04809
 Alpha virt. eigenvalues --    0.08108   0.08458   0.09022   0.09474   0.09931

 Mulliken charges:
               1
     1  C   -0.345774
     2  C   -0.033913
     3  C   -0.300681
     4  C   -0.266091
     5  C   -0.248761
     6  C   -0.269245
     7  C   -0.282323
     8  C   -0.038152
     9  O   -0.525893
    10  C    0.387280
    11  C   -0.200237
    12  C   -0.194978
    13  C    0.091976
    14  C    0.261982
    15  C   -0.172155
    16  C   -0.165348
    17  C    0.158766
    18  C   -0.197028
    19  C   -0.197168
    20  C    0.159043
    21  C   -0.165458
    22  C   -0.172012
    23  C    0.262632
    24  C    0.091923
    25  C   -0.194118
    26  C   -0.204518
    27  C    0.389354
    28  O   -0.523989
    29  C   -0.029127
    30  C   -0.279176
    31  C   -0.267162
    32  C   -0.257618
    33  C   -0.264537
    34  C   -0.308095
    35  C   -0.037683
    36  C   -0.344108
    37  C   -0.182887
    38  C   -0.169214
    39  N   -0.574498
    40  C    0.222373
    41  C    0.222658
    42  N   -0.574388
    43  C   -0.168604
    44  C   -0.183070
    45  H    0.135911
    46  H    0.138714
    47  H    0.123644
    48  H    0.137964
    49  H    0.146039
    50  H    0.134248
    51  H    0.129516
    52  H    0.131769
    53  H    0.131309
    54  H    0.150959
    55  H    0.123950
    56  H    0.146489
    57  H    0.149111
    58  H    0.138761
    59  H    0.153728
    60  H    0.129837
    61  H    0.126239
    62  H    0.137151
    63  H    0.135907
    64  H    0.130313
    65  H    0.130325
    66  H    0.136041
    67  H    0.137297
    68  H    0.126862
    69  H    0.131325
    70  H    0.137193
    71  H    0.138434
    72  H    0.154742
    73  H    0.150275
    74  H    0.130340
    75  H    0.130484
    76  H    0.144977
    77  H    0.130564
    78  H    0.132588
    79  H    0.131863
    80  H    0.147644
    81  H    0.142279
    82  H    0.122054
    83  H    0.138054
    84  H    0.138057
    85  H    0.137367
    86  H    0.176274
    87  H    0.175607
    88  H    0.137818
 Sum of Mulliken charges =  -0.00000

 Dipole moment (field-independent basis, Debye):
    X=              0.3372    Y=              0.5402    Z=              0.8919  Tot=              1.0959
 Quadrupole moment (field-independent basis, Debye-Ang):
   XX=           -192.7708   YY=           -227.4852   ZZ=           -264.7061
   XY=              1.8539   XZ=             -0.7431   YZ=              1.0762

 Normal termination of Gaussian 16 at Fri Nov  4 23:58:59 2022.
