 Gaussian 16, Revision B.01,
 Gaussian 16:  ES64L-G16RevB.01 20-Dec-2017

 -------------------------------------------------------------------
 #p b3lyp/6-31g(d) 6D 10F nosymm GFInput td=(50-50,nstate=2) SCF=XQC
 -------------------------------------------------------------------

 ------------------------------
 Gaussian input prepared by ASE
 ------------------------------
 Symbolic Z-matrix:
 Charge =  0 Multiplicity = 1

                          Input orientation:
 ---------------------------------------------------------------------
 Center     Atomic      Atomic             Coordinates (Angstroms)
 Number     Number       Type             X           Y           Z
 ---------------------------------------------------------------------
      1          6           0       -2.796900    6.308294   -1.904928
      2          8           0       -1.789198    5.320951   -1.719888
      3          6           0       -2.096511    4.194215   -1.031056
      4          6           0       -3.363722    3.920120   -0.481402
      5          6           0       -3.563584    2.730310    0.206769
      6          6           0       -2.530460    1.794248    0.366499
      7          6           0       -2.667296    0.547316    1.065111
      8          6           0       -1.614057   -0.297551    1.182867
      9         16           0       -1.861274   -1.810742    2.146770
     10          8           0       -0.826706   -1.899805    3.183920
     11          8           0       -3.288924   -1.794758    2.518607
     12          6           0       -1.638692   -3.164127    0.981670
     13          6           0       -0.383146   -3.756956    0.838451
     14          6           0       -0.242029   -4.824981   -0.047866
     15          6           0       -1.342411   -5.286353   -0.773972
     16          6           0       -2.594949   -4.688487   -0.613557
     17          6           0       -2.751095   -3.621887    0.271058
     18          6           0       -0.309350    0.021113    0.612788
     19          7           0        0.705264   -0.733445    0.732596
     20          6           0        1.972807   -0.494315    0.173238
     21          6           0        2.157398   -0.197051   -1.186243
     22          6           0        3.437061   -0.080107   -1.720675
     23          6           0        4.570398   -0.242453   -0.915366
     24          6           0        5.962465   -0.081074   -1.480520
     25          6           0        4.372065   -0.541843    0.437785
     26          6           0        3.101485   -0.679729    1.003098
     27          6           0        2.933126   -0.982185    2.471565
     28          8           0       -0.222815    1.230055   -0.079311
     29          6           0       -1.271335    2.097549   -0.195043
     30          6           0       -1.045970    3.276735   -0.886958
     31          1           0       -3.151030    6.703671   -0.944862
     32          1           0       -3.647188    5.911210   -2.473215
     33          1           0       -2.323394    7.109422   -2.474104
     34          1           0       -4.180864    4.622938   -0.586172
     35          1           0       -4.538433    2.513685    0.635388
     36          1           0       -3.618241    0.273769    1.512722
     37          1           0        0.456095   -3.382317    1.410641
     38          1           0        0.728705   -5.296991   -0.169265
     39          1           0       -1.225183   -6.118700   -1.462737
     40          1           0       -3.451912   -5.057357   -1.170086
     41          1           0       -3.719666   -3.159896    0.429144
     42          1           0        1.288988   -0.081558   -1.826939
     43          1           0        3.554991    0.137828   -2.780097
     44          1           0        6.317363    0.954410   -1.385030
     45          1           0        5.995524   -0.336847   -2.545257
     46          1           0        6.684506   -0.718278   -0.958041
     47          1           0        5.240661   -0.681565    1.079549
     48          1           0        3.852912   -1.398530    2.895124
     49          1           0        2.106792   -1.677564    2.647364
     50          1           0        2.689382   -0.073379    3.038120
     51          1           0       -0.071653    3.492996   -1.309274
 ---------------------------------------------------------------------

 SCF Done:  E(RB3LYP) =  -1680.96232868     A.U. after   15 cycles

 Excitation energies and oscillator strengths:

 Excited state symmetry could not be determined.
 Excited State   1:      Triplet-?Sym    2.2379 eV  554.01 nm  f=0.0000  <S**2>=2.000
     108 ->111        -0.17790
     109 ->111        -0.22358
     110 ->111         0.61738
 This state for optimization and/or second-order correction.
 Total Energy, E(TD-HF/TD-DFT) =  -1680.88008607
 Copying the excited state density for this state as the 1-particle RhoCI density.

 Excited state symmetry could not be determined.
 Excited State   2:      Singlet-?Sym    2.9069 eV  426.52 nm  f=0.1454  <S**2>=0.000
     110 ->111         0.69903

 Excited state symmetry could not be determined.
 Excited State   3:      Triplet-?Sym    2.9718 eV  417.20 nm  f=0.0000  <S**2>=2.000
     108 ->111         0.39382
     109 ->111         0.41638
     110 ->111         0.24057
     110 ->113         0.10565
     110 ->115        -0.18928

 Excited state symmetry could not be determined.
 Excited State   4:      Singlet-?Sym    3.7481 eV  330.79 nm  f=0.0297  <S**2>=0.000
     108 ->111        -0.33223
     109 ->111         0.61684

 Alpha  occ. eigenvalues --  -89.09038 -19.21860 -19.20210 -19.13163 -19.13030
 Alpha  occ. eigenvalues --  -14.32440 -10.30420 -10.27922 -10.27780 -10.25920
 Alpha  occ. eigenvalues --  -10.23282 -10.23199 -10.22120 -10.22050 -10.21848
 Alpha  occ. eigenvalues --  -10.21060 -10.20964 -10.20698 -10.20462 -10.20430
 Alpha  occ. eigenvalues --  -10.20341 -10.20198 -10.20022 -10.18369 -10.18291
 Alpha  occ. eigenvalues --  -10.17689 -10.17642 -10.17470 -10.17209 -10.16351
 Alpha  occ. eigenvalues --   -8.11802  -6.08232  -6.08197  -6.08132  -1.11067
 Alpha  occ. eigenvalues --   -1.08929  -1.08873  -0.98611  -0.93369  -0.88085
 Alpha  occ. eigenvalues --   -0.86760  -0.84753  -0.83191  -0.78404  -0.77792
 Alpha  occ. eigenvalues --   -0.77003  -0.75964  -0.75688  -0.74446  -0.72639
 Alpha  occ. eigenvalues --   -0.68856  -0.68098  -0.67269  -0.64918  -0.63822
 Alpha  occ. eigenvalues --   -0.63604  -0.61636  -0.59527  -0.59163  -0.57514
 Alpha  occ. eigenvalues --   -0.56109  -0.54927  -0.53015  -0.52451  -0.51341
 Alpha  occ. eigenvalues --   -0.50417  -0.48943  -0.48699  -0.47588  -0.47030
 Alpha  occ. eigenvalues --   -0.46534  -0.46128  -0.45817  -0.45152  -0.44976
 Alpha  occ. eigenvalues --   -0.44273  -0.43892  -0.43276  -0.42987  -0.41894
 Alpha  occ. eigenvalues --   -0.41495  -0.41154  -0.40447  -0.39921  -0.39674
 Alpha  occ. eigenvalues --   -0.39370  -0.38522  -0.37821  -0.37507  -0.36645
 Alpha  occ. eigenvalues --   -0.36345  -0.35704  -0.35581  -0.35396  -0.34883
 Alpha  occ. eigenvalues --   -0.34078  -0.33130  -0.32571  -0.31932  -0.30567
 Alpha  occ. eigenvalues --   -0.29852  -0.28863  -0.28592  -0.27767  -0.26593
 Alpha  occ. eigenvalues --   -0.25996  -0.25279  -0.23186  -0.22974  -0.19989
 Alpha virt. eigenvalues --   -0.07360  -0.02846  -0.01749  -0.01009  -0.00693
 Alpha virt. eigenvalues --    0.01381   0.02874   0.05909   0.06441   0.07580
 Alpha virt. eigenvalues --    0.08853   0.09178   0.09555   0.11005   0.11474

 Mulliken charges:
               1
     1  C   -0.222337
     2  O   -0.500072
     3  C    0.393586
     4  C   -0.197947
     5  C   -0.203652
     6  C    0.134107
     7  C   -0.165833
     8  C   -0.244031
     9  S    1.180985
    10  O   -0.533714
    11  O   -0.564273
    12  C   -0.164372
    13  C   -0.115656
    14  C   -0.134540
    15  C   -0.118323
    16  C   -0.129633
    17  C   -0.139176
    18  C    0.560571
    19  N   -0.565286
    20  C    0.198139
    21  C   -0.131942
    22  C   -0.203901
    23  C    0.195194
    24  C   -0.530706
    25  C   -0.258249
    26  C    0.158736
    27  C   -0.532470
    28  O   -0.544321
    29  C    0.337395
    30  C   -0.244830
    31  H    0.161175
    32  H    0.159884
    33  H    0.180265
    34  H    0.143395
    35  H    0.152305
    36  H    0.201883
    37  H    0.195906
    38  H    0.145337
    39  H    0.140638
    40  H    0.140765
    41  H    0.173331
    42  H    0.125981
    43  H    0.115406
    44  H    0.161757
    45  H    0.152640
    46  H    0.154690
    47  H    0.112117
    48  H    0.142655
    49  H    0.196333
    50  H    0.162951
    51  H    0.167134
 Sum of Mulliken charges =  -0.00000

 Dipole moment (field-independent basis, Debye):
    X=             -2.1288    Y=              3.9220    Z=             -5.5056  Tot=              7.0870
 Quadrupole moment (field-independent basis, Debye-Ang):
   XX=           -160.7088   YY=           -145.2105   ZZ=           -191.7396
   XY=            -19.7081   XZ=             12.3842   YZ=              6.2009

 Normal termination of Gaussian 16 at Sat Nov  5 09:59:15 2022.
