 Gaussian 16, Revision B.01,
 Gaussian 16:  ES64L-G16RevB.01 20-Dec-2017

 -----------------------------
 #p b3lyp/6-31g(d) opt SCF=XQC
 -----------------------------

 ------------------------------
 Gaussian input prepared by ASE
 ------------------------------
 Symbolic Z-matrix:
 Charge =  0 Multiplicity = 1

 SCF Done:  E(RB3LYP) =  -1680.94386501     A.U. after   16 cycles
 SCF Done:  E(RB3LYP) =  -1680.95679605     A.U. after   15 cycles
 SCF Done:  E(RB3LYP) =  -1680.95921404     A.U. after   13 cycles
 SCF Done:  E(RB3LYP) =  -1680.96054590     A.U. after   15 cycles
 SCF Done:  E(RB3LYP) =  -1680.96122628     A.U. after   12 cycles
 SCF Done:  E(RB3LYP) =  -1680.96176411     A.U. after   14 cycles
 SCF Done:  E(RB3LYP) =  -1680.96192214     A.U. after   14 cycles
 SCF Done:  E(RB3LYP) =  -1680.96208353     A.U. after   14 cycles
 SCF Done:  E(RB3LYP) =  -1680.96214764     A.U. after   11 cycles
 SCF Done:  E(RB3LYP) =  -1680.96223362     A.U. after   12 cycles
 SCF Done:  E(RB3LYP) =  -1680.96226177     A.U. after   10 cycles
 SCF Done:  E(RB3LYP) =  -1680.96231643     A.U. after   12 cycles
 SCF Done:  E(RB3LYP) =  -1680.96232378     A.U. after   11 cycles
 SCF Done:  E(RB3LYP) =  -1680.96232731     A.U. after   10 cycles
 SCF Done:  E(RB3LYP) =  -1680.96232802     A.U. after    9 cycles
 SCF Done:  E(RB3LYP) =  -1680.96232854     A.U. after    8 cycles
 SCF Done:  E(RB3LYP) =  -1680.96232869     A.U. after    7 cycles
 SCF Done:  E(RB3LYP) =  -1680.96232869     A.U. after    7 cycles
 Optimization completed.
    -- Stationary point found.

                         Standard orientation:
 ---------------------------------------------------------------------
 Center     Atomic      Atomic             Coordinates (Angstroms)
 Number     Number       Type             X           Y           Z
 ---------------------------------------------------------------------
      1          6           0        7.172256    0.578256    0.726524
      2          8           0        5.848798    1.095986    0.656077
      3          6           0        4.833066    0.253811    0.343838
      4          6           0        4.992283   -1.121512    0.086528
      5          6           0        3.877084   -1.888652   -0.224919
      6          6           0        2.594172   -1.323723   -0.288660
      7          6           0        1.400565   -2.056575   -0.604654
      8          6           0        0.199229   -1.431128   -0.655518
      9         16           0       -1.238185   -2.422007   -1.137155
     10          8           0       -1.922622   -1.770191   -2.259931
     11          8           0       -0.721622   -3.796899   -1.276949
     12          6           0       -2.327965   -2.415106    0.294970
     13          6           0       -3.335804   -1.454614    0.395311
     14          6           0       -4.188099   -1.488419    1.499213
     15          6           0       -4.028883   -2.469273    2.480799
     16          6           0       -3.020888   -3.429446    2.362293
     17          6           0       -2.163553   -3.409312    1.262688
     18          6           0        0.068805   -0.001248   -0.396235
     19          7           0       -1.036376    0.620630   -0.466928
     20          6           0       -1.225337    1.986283   -0.191216
     21          6           0       -0.781928    2.587945    0.997068
     22          6           0       -1.090040    3.915424    1.279368
     23          6           0       -1.837084    4.686954    0.381594
     24          6           0       -2.144570    6.139144    0.664241
     25          6           0       -2.275744    4.073659   -0.797998
     26          6           0       -1.995753    2.739509   -1.105585
     27          6           0       -2.470375    2.124227   -2.398791
     28          8           0        1.247205    0.671170   -0.068736
     29          6           0        2.466601    0.057473   -0.026482
     30          6           0        3.562755    0.844826    0.287424
     31          1           0        7.492108    0.164515   -0.237825
     32          1           0        7.260180   -0.192224    1.502570
     33          1           0        7.807147    1.426794    0.985120
     34          1           0        5.969302   -1.586813    0.126292
     35          1           0        3.993325   -2.950106   -0.426848
     36          1           0        1.452642   -3.121103   -0.813337
     37          1           0       -3.440186   -0.702979   -0.376849
     38          1           0       -4.977618   -0.748034    1.590551
     39          1           0       -4.696366   -2.489544    3.338119
     40          1           0       -2.907126   -4.198865    3.120729
     41          1           0       -1.390648   -4.160182    1.138715
     42          1           0       -0.213156    1.999366    1.709837
     43          1           0       -0.746456    4.356030    2.212961
     44          1           0       -1.374183    6.801745    0.246199
     45          1           0       -2.191456    6.337339    1.740669
     46          1           0       -3.101551    6.440220    0.223903
     47          1           0       -2.866545    4.653606   -1.505430
     48          1           0       -3.289865    2.705892   -2.833365
     49          1           0       -2.796861    1.089597   -2.256549
     50          1           0       -1.661168    2.086781   -3.140481
     51          1           0        3.445239    1.904140    0.483526
 ---------------------------------------------------------------------

 The electronic state is 1-A.
 Alpha  occ. eigenvalues --  -89.09038 -19.21860 -19.20210 -19.13163 -19.13030
 Alpha  occ. eigenvalues --  -14.32440 -10.30420 -10.27922 -10.27780 -10.25920
 Alpha  occ. eigenvalues --  -10.23282 -10.23199 -10.22120 -10.22050 -10.21848
 Alpha  occ. eigenvalues --  -10.21060 -10.20964 -10.20698 -10.20462 -10.20430
 Alpha  occ. eigenvalues --  -10.20341 -10.20198 -10.20022 -10.18369 -10.18291
 Alpha  occ. eigenvalues --  -10.17689 -10.17642 -10.17470 -10.17209 -10.16351
 Alpha  occ. eigenvalues --   -8.11802  -6.08232  -6.08197  -6.08132  -1.11067
 Alpha  occ. eigenvalues --   -1.08929  -1.08873  -0.98611  -0.93369  -0.88085
 Alpha  occ. eigenvalues --   -0.86761  -0.84753  -0.83191  -0.78403  -0.77791
 Alpha  occ. eigenvalues --   -0.77003  -0.75964  -0.75688  -0.74446  -0.72639
 Alpha  occ. eigenvalues --   -0.68856  -0.68098  -0.67269  -0.64918  -0.63822
 Alpha  occ. eigenvalues --   -0.63604  -0.61636  -0.59527  -0.59163  -0.57514
 Alpha  occ. eigenvalues --   -0.56109  -0.54927  -0.53015  -0.52451  -0.51341
 Alpha  occ. eigenvalues --   -0.50417  -0.48943  -0.48699  -0.47588  -0.47030
 Alpha  occ. eigenvalues --   -0.46534  -0.46128  -0.45817  -0.45152  -0.44976
 Alpha  occ. eigenvalues --   -0.44273  -0.43891  -0.43276  -0.42987  -0.41894
 Alpha  occ. eigenvalues --   -0.41495  -0.41154  -0.40447  -0.39921  -0.39674
 Alpha  occ. eigenvalues --   -0.39370  -0.38522  -0.37821  -0.37507  -0.36645
 Alpha  occ. eigenvalues --   -0.36345  -0.35704  -0.35581  -0.35396  -0.34883
 Alpha  occ. eigenvalues --   -0.34078  -0.33130  -0.32571  -0.31932  -0.30567
 Alpha  occ. eigenvalues --   -0.29852  -0.28863  -0.28592  -0.27767  -0.26593
 Alpha  occ. eigenvalues --   -0.25996  -0.25279  -0.23185  -0.22974  -0.19989
 Alpha virt. eigenvalues --   -0.07360  -0.02846  -0.01749  -0.01009  -0.00693
 Alpha virt. eigenvalues --    0.01381   0.02874   0.05909   0.06441   0.07580
 Alpha virt. eigenvalues --    0.08853   0.09178   0.09555   0.11005   0.11474

 Mulliken charges:
               1
     1  C   -0.222340
     2  O   -0.500072
     3  C    0.393583
     4  C   -0.197947
     5  C   -0.203652
     6  C    0.134091
     7  C   -0.165817
     8  C   -0.244027
     9  S    1.180944
    10  O   -0.533706
    11  O   -0.564268
    12  C   -0.164376
    13  C   -0.115652
    14  C   -0.134541
    15  C   -0.118322
    16  C   -0.129633
    17  C   -0.139175
    18  C    0.560561
    19  N   -0.565264
    20  C    0.198135
    21  C   -0.131941
    22  C   -0.203900
    23  C    0.195206
    24  C   -0.530710
    25  C   -0.258266
    26  C    0.158749
    27  C   -0.532473
    28  O   -0.544328
    29  C    0.337399
    30  C   -0.244825
    31  H    0.161176
    32  H    0.159885
    33  H    0.180266
    34  H    0.143396
    35  H    0.152306
    36  H    0.201883
    37  H    0.195911
    38  H    0.145338
    39  H    0.140639
    40  H    0.140766
    41  H    0.173335
    42  H    0.125983
    43  H    0.115406
    44  H    0.161757
    45  H    0.152640
    46  H    0.154690
    47  H    0.112117
    48  H    0.142656
    49  H    0.196333
    50  H    0.162953
    51  H    0.167134
 Sum of Mulliken charges =  -0.00000

 Dipole moment (field-independent basis, Debye):
    X=              5.3862    Y=              0.7952    Z=              4.5366  Tot=              7.0869
 Quadrupole moment (field-independent basis, Debye-Ang):
   XX=           -134.9228   YY=           -178.9980   ZZ=           -181.3288
   XY=            -10.0189   XZ=             -7.4499   YZ=            -12.7249

 Normal termination of Gaussian 16 at Fri Nov  4 23:35:07 2022.
