 Gaussian 16, Revision B.01,
 Gaussian 16:  ES64L-G16RevB.01 20-Dec-2017

 -------------------------------------------------------------------
 #p b3lyp/6-31g(d) 6D 10F nosymm GFInput td=(50-50,nstate=2) SCF=XQC
 -------------------------------------------------------------------

 ------------------------------
 Gaussian input prepared by ASE
 ------------------------------
 Symbolic Z-matrix:
 Charge =  0 Multiplicity = 1

                          Input orientation:
 ---------------------------------------------------------------------
 Center     Atomic      Atomic             Coordinates (Angstroms)
 Number     Number       Type             X           Y           Z
 ---------------------------------------------------------------------
      1          6           0        5.848819    0.996751    0.871779
      2          6           0        5.782140   -0.409375    1.043181
      3          6           0        4.604682   -1.090663    0.828766
      4          6           0        3.434716   -0.390599    0.428747
      5          6           0        2.186425   -1.015853    0.190512
      6          6           0        1.093287   -0.261502   -0.199556
      7          6           0       -0.213941   -0.899279   -0.489600
      8          6           0       -0.295563   -2.136593   -1.149788
      9          6           0       -1.517789   -2.760992   -1.431987
     10          6           0       -2.724575   -2.172270   -1.062372
     11          6           0       -2.685661   -0.941099   -0.400377
     12          6           0       -1.443117   -0.330627   -0.133039
     13          8           0       -1.604831    0.850555    0.550073
     14          6           0       -2.958280    1.016804    0.718098
     15          6           0       -3.555528    2.093700    1.359160
     16          6           0       -4.949412    2.084384    1.431748
     17          6           0       -5.703115    1.033949    0.880486
     18          6           0       -5.082382   -0.037381    0.240640
     19          6           0       -3.685294   -0.048014    0.155849
     20          7           0        1.159858    1.098540   -0.350553
     21          6           0        2.309879    1.691886   -0.127888
     22          6           0        3.504609    1.025006    0.260945
     23          6           0        4.729433    1.701289    0.488065
     24          1           0        6.788038    1.513959    1.046572
     25          1           0        6.673319   -0.951647    1.347746
     26          1           0        4.556509   -2.168687    0.961103
     27          1           0        2.089631   -2.088127    0.334671
     28          1           0        0.626678   -2.607752   -1.477214
     29          1           0       -1.518665   -3.712563   -1.955791
     30          1           0       -3.671556   -2.657316   -1.281648
     31          1           0       -2.959782    2.897439    1.778607
     32          1           0       -5.460281    2.906964    1.924317
     33          1           0       -6.786546    1.059495    0.955030
     34          1           0       -5.672076   -0.845606   -0.183291
     35          1           0        2.330733    2.775283   -0.258680
     36          1           0        4.769636    2.779942    0.355631
 ---------------------------------------------------------------------

 SCF Done:  E(RB3LYP) =  -938.064788849     A.U. after   15 cycles

 Excitation energies and oscillator strengths:

 Excited state symmetry could not be determined.
 Excited State   1:      Triplet-?Sym    2.6226 eV  472.75 nm  f=0.0000  <S**2>=2.000
      73 -> 79         0.11585
      75 -> 78        -0.35649
      77 -> 78         0.54097
 This state for optimization and/or second-order correction.
 Total Energy, E(TD-HF/TD-DFT) =  -937.968409083
 Copying the excited state density for this state as the 1-particle RhoCI density.

 Excited state symmetry could not be determined.
 Excited State   2:      Triplet-?Sym    3.1162 eV  397.87 nm  f=0.0000  <S**2>=2.000
      73 -> 78         0.12496
      75 -> 78        -0.18845
      76 -> 78        -0.23705
      76 -> 79         0.28103
      76 -> 80        -0.28010
      77 -> 79         0.37688
      77 -> 81        -0.14412

 Excited state symmetry could not be determined.
 Excited State   3:      Singlet-?Sym    3.8488 eV  322.13 nm  f=0.0811  <S**2>=0.000
      77 -> 78         0.66722
      77 -> 79         0.14569

 Excited state symmetry could not be determined.
 Excited State   4:      Singlet-?Sym    3.9923 eV  310.55 nm  f=0.0594  <S**2>=0.000
      76 -> 78         0.67181
      77 -> 79         0.15404

 Alpha  occ. eigenvalues --  -19.20141 -14.32589 -10.24563 -10.24175 -10.22922
 Alpha  occ. eigenvalues --  -10.22456 -10.21041 -10.20370 -10.20345 -10.20250
 Alpha  occ. eigenvalues --  -10.20190 -10.20071 -10.20037 -10.19619 -10.19593
 Alpha  occ. eigenvalues --  -10.19489 -10.19413 -10.19355 -10.19330 -10.19215
 Alpha  occ. eigenvalues --  -10.19133 -10.18890 -10.18709  -1.09906  -0.94089
 Alpha  occ. eigenvalues --   -0.86354  -0.85841  -0.85179  -0.79889  -0.78236
 Alpha  occ. eigenvalues --   -0.77084  -0.75920  -0.74241  -0.72656  -0.71580
 Alpha  occ. eigenvalues --   -0.65560  -0.64111  -0.62861  -0.61594  -0.60811
 Alpha  occ. eigenvalues --   -0.58923  -0.57493  -0.53076  -0.52827  -0.52275
 Alpha  occ. eigenvalues --   -0.50131  -0.49561  -0.48431  -0.46072  -0.45837
 Alpha  occ. eigenvalues --   -0.45434  -0.45152  -0.44243  -0.43151  -0.42710
 Alpha  occ. eigenvalues --   -0.42594  -0.42308  -0.40712  -0.40250  -0.39382
 Alpha  occ. eigenvalues --   -0.37103  -0.36986  -0.36684  -0.35995  -0.35149
 Alpha  occ. eigenvalues --   -0.34792  -0.34521  -0.34221  -0.33110  -0.29883
 Alpha  occ. eigenvalues --   -0.28392  -0.26642  -0.25309  -0.24997  -0.23146
 Alpha  occ. eigenvalues --   -0.21861  -0.21135
 Alpha virt. eigenvalues --   -0.05361  -0.03855  -0.01969   0.00860   0.01834
 Alpha virt. eigenvalues --    0.02510   0.04245   0.09135   0.09385   0.09713
 Alpha virt. eigenvalues --    0.10303   0.11677   0.13293   0.13797   0.15319

 Mulliken charges:
               1
     1  C   -0.134288
     2  C   -0.131740
     3  C   -0.184532
     4  C    0.161814
     5  C   -0.234066
     6  C    0.226713
     7  C    0.057725
     8  C   -0.190283
     9  C   -0.147729
    10  C   -0.189571
    11  C    0.089900
    12  C    0.258099
    13  O   -0.535510
    14  C    0.324713
    15  C   -0.201940
    16  C   -0.137144
    17  C   -0.145039
    18  C   -0.191537
    19  C    0.079615
    20  N   -0.455696
    21  C   -0.003386
    22  C    0.107086
    23  C   -0.190587
    24  H    0.136595
    25  H    0.137425
    26  H    0.135756
    27  H    0.138998
    28  H    0.131138
    29  H    0.129832
    30  H    0.134373
    31  H    0.148350
    32  H    0.132181
    33  H    0.128762
    34  H    0.133538
    35  H    0.140715
    36  H    0.139720
 Sum of Mulliken charges =  -0.00000

 Dipole moment (field-independent basis, Debye):
    X=              1.5413    Y=             -1.0289    Z=              0.5263  Tot=              1.9265
 Quadrupole moment (field-independent basis, Debye-Ang):
   XX=           -102.9401   YY=           -117.3569   ZZ=           -132.5400
   XY=              1.2890   XZ=              2.6193   YZ=              5.2032

 Normal termination of Gaussian 16 at Sat Nov  5 09:54:33 2022.
