 Gaussian 16, Revision B.01,
 Gaussian 16:  ES64L-G16RevB.01 20-Dec-2017

 -----------------------------
 #p b3lyp/6-31g(d) opt SCF=XQC
 -----------------------------

 ------------------------------
 Gaussian input prepared by ASE
 ------------------------------
 Symbolic Z-matrix:
 Charge =  0 Multiplicity = 1

 SCF Done:  E(RB3LYP) =  -938.057143490     A.U. after   15 cycles
 SCF Done:  E(RB3LYP) =  -938.060665234     A.U. after   12 cycles
 SCF Done:  E(RB3LYP) =  -938.061986263     A.U. after   12 cycles
 SCF Done:  E(RB3LYP) =  -938.062148702     A.U. after   11 cycles
 SCF Done:  E(RB3LYP) =  -938.062154349     A.U. after    8 cycles
 SCF Done:  E(RB3LYP) =  -938.062154774     A.U. after    8 cycles
 SCF Done:  E(RB3LYP) =  -938.062155009     A.U. after    7 cycles
 SCF Done:  E(RB3LYP) =  -938.041170400     A.U. after   15 cycles
 SCF Done:  E(RB3LYP) =  -938.063207134     A.U. after   13 cycles
 SCF Done:  E(RB3LYP) =  -938.064231201     A.U. after   15 cycles
 SCF Done:  E(RB3LYP) =  -938.064724841     A.U. after   13 cycles
 SCF Done:  E(RB3LYP) =  -938.064774941     A.U. after   12 cycles
 SCF Done:  E(RB3LYP) =  -938.064786738     A.U. after   10 cycles
 SCF Done:  E(RB3LYP) =  -938.064786874     A.U. after    8 cycles
 SCF Done:  E(RB3LYP) =  -938.064787014     A.U. after    8 cycles
 Optimization completed.
    -- Stationary point found.

                         Standard orientation:
 ---------------------------------------------------------------------
 Center     Atomic      Atomic             Coordinates (Angstroms)
 Number     Number       Type             X           Y           Z
 ---------------------------------------------------------------------
      1          6           0       -5.920478   -1.152195    0.131510
      2          6           0       -5.870299    0.064443    0.858345
      3          6           0       -4.696146    0.776836    0.960286
      4          6           0       -3.513001    0.301125    0.333556
      5          6           0       -2.267089    0.972074    0.392396
      6          6           0       -1.160395    0.442522   -0.248658
      7          6           0        0.145175    1.146019   -0.231003
      8          6           0        0.225633    2.544831   -0.332515
      9          6           0        1.446216    3.232731   -0.314713
     10          6           0        2.652414    2.547477   -0.192012
     11          6           0        2.614566    1.153645   -0.085551
     12          6           0        1.373778    0.484450   -0.111692
     13          8           0        1.535688   -0.871769    0.038111
     14          6           0        2.887736   -1.088785    0.150195
     15          6           0        3.484780   -2.331654    0.312013
     16          6           0        4.877122   -2.349413    0.408631
     17          6           0        5.629560   -1.164080    0.343876
     18          6           0        5.009071    0.073155    0.180472
     19          6           0        3.613532    0.114088    0.080707
     20          7           0       -1.211249   -0.740231   -0.938191
     21          6           0       -2.358962   -1.375482   -0.996491
     22          6           0       -3.566359   -0.925646   -0.393883
     23          6           0       -4.788129   -1.638708   -0.483084
     24          1           0       -6.857378   -1.697981    0.064246
     25          1           0       -6.771602    0.435105    1.339262
     26          1           0       -4.660638    1.709204    1.518317
     27          1           0       -2.183109    1.894508    0.959833
     28          1           0       -0.695624    3.106138   -0.458797
     29          1           0        1.446474    4.314873   -0.408659
     30          1           0        3.598120    3.081870   -0.178282
     31          1           0        2.890044   -3.237703    0.359049
     32          1           0        5.387777   -3.299823    0.535923
     33          1           0        6.711813   -1.215200    0.422280
     34          1           0        5.597787    0.985106    0.131037
     35          1           0       -2.367129   -2.313328   -1.554764
     36          1           0       -4.815661   -2.571595   -1.041306
 ---------------------------------------------------------------------

 The electronic state is 1-A.
 Alpha  occ. eigenvalues --  -19.20141 -14.32589 -10.24563 -10.24175 -10.22922
 Alpha  occ. eigenvalues --  -10.22456 -10.21041 -10.20370 -10.20345 -10.20250
 Alpha  occ. eigenvalues --  -10.20190 -10.20071 -10.20037 -10.19619 -10.19593
 Alpha  occ. eigenvalues --  -10.19489 -10.19413 -10.19355 -10.19330 -10.19215
 Alpha  occ. eigenvalues --  -10.19133 -10.18890 -10.18709  -1.09906  -0.94089
 Alpha  occ. eigenvalues --   -0.86354  -0.85841  -0.85179  -0.79889  -0.78236
 Alpha  occ. eigenvalues --   -0.77084  -0.75920  -0.74241  -0.72656  -0.71580
 Alpha  occ. eigenvalues --   -0.65560  -0.64111  -0.62861  -0.61594  -0.60811
 Alpha  occ. eigenvalues --   -0.58923  -0.57493  -0.53076  -0.52827  -0.52275
 Alpha  occ. eigenvalues --   -0.50131  -0.49561  -0.48431  -0.46072  -0.45837
 Alpha  occ. eigenvalues --   -0.45434  -0.45152  -0.44243  -0.43151  -0.42710
 Alpha  occ. eigenvalues --   -0.42594  -0.42308  -0.40712  -0.40250  -0.39382
 Alpha  occ. eigenvalues --   -0.37103  -0.36986  -0.36684  -0.35995  -0.35149
 Alpha  occ. eigenvalues --   -0.34792  -0.34521  -0.34221  -0.33110  -0.29883
 Alpha  occ. eigenvalues --   -0.28392  -0.26642  -0.25309  -0.24997  -0.23146
 Alpha  occ. eigenvalues --   -0.21861  -0.21135
 Alpha virt. eigenvalues --   -0.05361  -0.03855  -0.01969   0.00860   0.01834
 Alpha virt. eigenvalues --    0.02510   0.04245   0.09135   0.09385   0.09713
 Alpha virt. eigenvalues --    0.10303   0.11677   0.13293   0.13797   0.15319

 Mulliken charges:
               1
     1  C   -0.134293
     2  C   -0.131733
     3  C   -0.184532
     4  C    0.161809
     5  C   -0.234063
     6  C    0.226698
     7  C    0.057740
     8  C   -0.190277
     9  C   -0.147733
    10  C   -0.189575
    11  C    0.089901
    12  C    0.258094
    13  O   -0.535512
    14  C    0.324716
    15  C   -0.201939
    16  C   -0.137142
    17  C   -0.145039
    18  C   -0.191539
    19  C    0.079615
    20  N   -0.455694
    21  C   -0.003384
    22  C    0.107094
    23  C   -0.190594
    24  H    0.136595
    25  H    0.137424
    26  H    0.135756
    27  H    0.138998
    28  H    0.131139
    29  H    0.129832
    30  H    0.134373
    31  H    0.148349
    32  H    0.132181
    33  H    0.128762
    34  H    0.133538
    35  H    0.140715
    36  H    0.139720
 Sum of Mulliken charges =  -0.00000

 Dipole moment (field-independent basis, Debye):
    X=             -1.5597    Y=              0.7245    Z=              0.8682  Tot=              1.9265
 Quadrupole moment (field-independent basis, Debye-Ang):
   XX=           -102.6776   YY=           -115.8011   ZZ=           -134.2274
   XY=              1.9826   XZ=             -1.1122   YZ=              2.1569

 Normal termination of Gaussian 16 at Fri Nov  4 22:57:58 2022.
