 Gaussian 16, Revision B.01,
 Gaussian 16:  ES64L-G16RevB.01 20-Dec-2017

 -------------------------------------------------------------------
 #p b3lyp/6-31g(d) 6D 10F nosymm GFInput td=(50-50,nstate=2) SCF=XQC
 -------------------------------------------------------------------

 ------------------------------
 Gaussian input prepared by ASE
 ------------------------------
 Symbolic Z-matrix:
 Charge =  0 Multiplicity = 1

                          Input orientation:
 ---------------------------------------------------------------------
 Center     Atomic      Atomic             Coordinates (Angstroms)
 Number     Number       Type             X           Y           Z
 ---------------------------------------------------------------------
      1          6           0       -1.249122    6.423017   -0.527775
      2          7           0       -1.573430    5.325811    0.367145
      3          6           0       -2.618886    5.547085    1.350972
      4          6           0       -1.291051    4.020356   -0.034438
      5          6           0       -1.803373    2.905255    0.662703
      6          6           0       -1.488516    1.604931    0.272677
      7          6           0       -0.661921    1.341965   -0.824788
      8          6           0       -0.284733   -0.078105   -1.252671
      9          6           0       -1.423093   -1.051572   -0.999954
     10          6           0       -1.362630   -2.187289   -0.289095
     11          6           0       -2.454090   -3.145524   -0.048721
     12          6           0       -3.751883   -2.999920   -0.575191
     13          6           0       -4.742716   -3.940806   -0.310666
     14          6           0       -4.467481   -5.055901    0.486762
     15          6           0       -3.186979   -5.217818    1.016028
     16          6           0       -2.195882   -4.274072    0.749794
     17          6           0        1.061854   -0.537250   -0.695707
     18          6           0        1.478495   -0.254262    0.609887
     19          6           0        2.700173   -0.702031    1.105040
     20          6           0        3.575370   -1.472172    0.307463
     21          7           0        4.787003   -1.950815    0.806711
     22          6           0        5.760277   -2.499987   -0.121234
     23          6           0        5.284258   -1.424450    2.066138
     24          6           0        3.163269   -1.742544   -1.015927
     25          6           0        1.936221   -1.287308   -1.490138
     26          6           0       -0.167683    2.448504   -1.525814
     27          6           0       -0.470544    3.753807   -1.154260
     28          1           0       -1.774634    6.362883   -1.495580
     29          1           0       -1.521232    7.366089   -0.048689
     30          1           0       -0.172363    6.457385   -0.730197
     31          1           0       -2.692657    6.616842    1.558664
     32          1           0       -3.608336    5.190037    1.019465
     33          1           0       -2.378777    5.045558    2.295629
     34          1           0       -2.457797    3.043627    1.515230
     35          1           0       -1.910121    0.774712    0.833840
     36          1           0       -0.166549   -0.039627   -2.347719
     37          1           0       -2.362011   -0.751839   -1.466003
     38          1           0       -0.411990   -2.454558    0.168870
     39          1           0       -3.988893   -2.143150   -1.199386
     40          1           0       -5.736650   -3.804923   -0.729754
     41          1           0       -5.243500   -5.788804    0.690769
     42          1           0       -2.957470   -6.080029    1.637056
     43          1           0       -1.199609   -4.407108    1.165592
     44          1           0        0.844347    0.346997    1.255392
     45          1           0        2.971874   -0.438732    2.120454
     46          1           0        6.096251   -1.771964   -0.878647
     47          1           0        6.634433   -2.839872    0.438563
     48          1           0        5.350358   -3.369538   -0.647834
     49          1           0        5.458829   -0.335746    2.042210
     50          1           0        6.227666   -1.917563    2.310826
     51          1           0        4.583194   -1.635653    2.881774
     52          1           0        3.800495   -2.306623   -1.686684
     53          1           0        1.655617   -1.522964   -2.515213
     54          1           0        0.472996    2.288368   -2.391057
     55          1           0       -0.066379    4.567285   -1.745150
 ---------------------------------------------------------------------

 SCF Done:  E(RB3LYP) =  -1078.99661581     A.U. after   14 cycles

 Excitation energies and oscillator strengths:

 Excited state symmetry could not be determined.
 Excited State   1:      Triplet-?Sym    2.8799 eV  430.51 nm  f=0.0000  <S**2>=2.000
      88 ->103        -0.13066
      91 -> 99         0.15117
      94 -> 97         0.64323
      96 -> 97        -0.17244
      94 <- 97         0.10406
 This state for optimization and/or second-order correction.
 Total Energy, E(TD-HF/TD-DFT) =  -1078.89077998
 Copying the excited state density for this state as the 1-particle RhoCI density.

 Excited state symmetry could not be determined.
 Excited State   2:      Triplet-?Sym    3.5245 eV  351.78 nm  f=0.0000  <S**2>=2.000
      92 -> 98         0.20512
      92 -> 99        -0.11854
      92 ->100         0.12991
      95 ->101         0.28378
      95 ->102        -0.21342
      96 -> 97         0.19633
      96 ->100        -0.17160
      96 ->101        -0.35520
      96 ->102         0.22271

 Excited state symmetry could not be determined.
 Excited State   3:      Singlet-?Sym    3.7988 eV  326.38 nm  f=0.0358  <S**2>=0.000
      96 -> 97         0.70255

 Excited state symmetry could not be determined.
 Excited State   4:      Singlet-?Sym    4.0360 eV  307.19 nm  f=0.0320  <S**2>=0.000
      95 -> 97         0.70207

 Alpha  occ. eigenvalues --  -14.34571 -14.34486 -10.21617 -10.21515 -10.21326
 Alpha  occ. eigenvalues --  -10.21301 -10.21244 -10.21222 -10.19068 -10.18767
 Alpha  occ. eigenvalues --  -10.18102 -10.18046 -10.17980 -10.17866 -10.17811
 Alpha  occ. eigenvalues --  -10.17763 -10.17417 -10.17379 -10.17354 -10.17297
 Alpha  occ. eigenvalues --  -10.17226 -10.17162 -10.17148 -10.17083 -10.17075
 Alpha  occ. eigenvalues --  -10.17031 -10.16963  -0.93867  -0.93776  -0.84733
 Alpha  occ. eigenvalues --   -0.84201  -0.82708  -0.79201  -0.76132  -0.73714
 Alpha  occ. eigenvalues --   -0.73603  -0.73383  -0.73121  -0.71691  -0.71303
 Alpha  occ. eigenvalues --   -0.71173  -0.67924  -0.64877  -0.62956  -0.60178
 Alpha  occ. eigenvalues --   -0.59439  -0.58885  -0.58454  -0.56367  -0.55580
 Alpha  occ. eigenvalues --   -0.53301  -0.51798  -0.51136  -0.50309  -0.47820
 Alpha  occ. eigenvalues --   -0.47152  -0.46145  -0.45866  -0.45756  -0.45416
 Alpha  occ. eigenvalues --   -0.44475  -0.43855  -0.43649  -0.43144  -0.42513
 Alpha  occ. eigenvalues --   -0.41219  -0.40930  -0.40891  -0.40811  -0.40689
 Alpha  occ. eigenvalues --   -0.40257  -0.40056  -0.39215  -0.38687  -0.37606
 Alpha  occ. eigenvalues --   -0.37505  -0.37450  -0.36642  -0.36037  -0.35517
 Alpha  occ. eigenvalues --   -0.34717  -0.34373  -0.33289  -0.32985  -0.32079
 Alpha  occ. eigenvalues --   -0.31829  -0.31676  -0.28237  -0.27288  -0.26562
 Alpha  occ. eigenvalues --   -0.24020  -0.23534  -0.23413  -0.20664  -0.18496
 Alpha  occ. eigenvalues --   -0.17643
 Alpha virt. eigenvalues --   -0.01882   0.00976   0.01122   0.01599   0.02221
 Alpha virt. eigenvalues --    0.03297   0.07373   0.09069   0.09113   0.10319
 Alpha virt. eigenvalues --    0.11090   0.11324   0.11757   0.12597   0.12979

 Mulliken charges:
               1
     1  C   -0.309002
     2  N   -0.471767
     3  C   -0.308767
     4  C    0.364602
     5  C   -0.198914
     6  C   -0.200420
     7  C    0.161383
     8  C   -0.293934
     9  C   -0.114791
    10  C   -0.191139
    11  C    0.180524
    12  C   -0.183543
    13  C   -0.131319
    14  C   -0.131092
    15  C   -0.129982
    16  C   -0.198622
    17  C    0.164841
    18  C   -0.185934
    19  C   -0.198424
    20  C    0.363978
    21  N   -0.471695
    22  C   -0.308745
    23  C   -0.308796
    24  C   -0.194559
    25  C   -0.193528
    26  C   -0.191147
    27  C   -0.191971
    28  H    0.147395
    29  H    0.151634
    30  H    0.162886
    31  H    0.151438
    32  H    0.147782
    33  H    0.162904
    34  H    0.120380
    35  H    0.132665
    36  H    0.138852
    37  H    0.128496
    38  H    0.142176
    39  H    0.126145
    40  H    0.125748
    41  H    0.124993
    42  H    0.126023
    43  H    0.128874
    44  H    0.133266
    45  H    0.120079
    46  H    0.147199
    47  H    0.151345
    48  H    0.162603
    49  H    0.148176
    50  H    0.151080
    51  H    0.162682
    52  H    0.119194
    53  H    0.119187
    54  H    0.119884
    55  H    0.119674
 Sum of Mulliken charges =  -0.00000

 Dipole moment (field-independent basis, Debye):
    X=              1.3735    Y=              1.8759    Z=              0.6583  Tot=              2.4164
 Quadrupole moment (field-independent basis, Debye-Ang):
   XX=           -139.0679   YY=           -140.4822   ZZ=           -154.4428
   XY=            -11.8706   XZ=              1.4482   YZ=             -1.3663

 Normal termination of Gaussian 16 at Sat Nov  5 10:07:11 2022.
