 Gaussian 16, Revision B.01,
 Gaussian 16:  ES64L-G16RevB.01 20-Dec-2017

 -----------------------------
 #p b3lyp/6-31g(d) opt SCF=XQC
 -----------------------------

 ------------------------------
 Gaussian input prepared by ASE
 ------------------------------
 Symbolic Z-matrix:
 Charge =  0 Multiplicity = 1

 SCF Done:  E(RB3LYP) =  -1078.98892039     A.U. after   14 cycles
 SCF Done:  E(RB3LYP) =  -1078.99483627     A.U. after   12 cycles
 SCF Done:  E(RB3LYP) =  -1078.99517339     A.U. after   11 cycles
 SCF Done:  E(RB3LYP) =  -1078.99527081     A.U. after   10 cycles
 SCF Done:  E(RB3LYP) =  -1078.99540529     A.U. after   12 cycles
 SCF Done:  E(RB3LYP) =  -1078.99548951     A.U. after   11 cycles
 SCF Done:  E(RB3LYP) =  -1078.99555261     A.U. after   10 cycles
 SCF Done:  E(RB3LYP) =  -1078.99557513     A.U. after   10 cycles
 SCF Done:  E(RB3LYP) =  -1078.99558306     A.U. after    9 cycles
 SCF Done:  E(RB3LYP) =  -1078.99560808     A.U. after   10 cycles
 SCF Done:  E(RB3LYP) =  -1078.99661826     A.U. after    7 cycles
 SCF Done:  E(RB3LYP) =  -1078.99661855     A.U. after    7 cycles
 SCF Done:  E(RB3LYP) =  -1078.99661861     A.U. after    7 cycles
 SCF Done:  E(RB3LYP) =  -1078.99661864     A.U. after    6 cycles
 SCF Done:  E(RB3LYP) =  -1078.99661867     A.U. after    7 cycles
 SCF Done:  E(RB3LYP) =  -1078.99661870     A.U. after    6 cycles
 SCF Done:  E(RB3LYP) =  -1078.99661873     A.U. after    7 cycles
 SCF Done:  E(RB3LYP) =  -1078.99661873     A.U. after    6 cycles
 SCF Done:  E(RB3LYP) =  -1078.99661873     A.U. after    6 cycles
 SCF Done:  E(RB3LYP) =  -1078.99661873     A.U. after    6 cycles
 Optimization completed.
    -- Stationary point found.

                         Standard orientation:
 ---------------------------------------------------------------------
 Center     Atomic      Atomic             Coordinates (Angstroms)
 Number     Number       Type             X           Y           Z
 ---------------------------------------------------------------------
      1          6           0        6.658740    0.568216    0.289742
      2          7           0        5.646481    0.003806   -0.585868
      3          6           0        6.087963   -0.919737   -1.616408
      4          6           0        4.328092   -0.067665   -0.136466
      5          6           0        3.353533   -0.824555   -0.821507
      6          6           0        2.031452   -0.862965   -0.382501
      7          6           0        1.609309   -0.165136    0.754014
      8          6           0        0.157117   -0.174921    1.236712
      9          6           0       -0.505427   -1.514867    0.966626
     10          6           0       -1.645358   -1.722891    0.291266
     11          6           0       -2.304580   -3.014015    0.034942
     12          6           0       -1.815677   -4.247977    0.504998
     13          6           0       -2.484495   -5.436666    0.228064
     14          6           0       -3.662084   -5.429130   -0.525800
     15          6           0       -4.162487   -4.215943   -0.998873
     16          6           0       -3.490906   -3.026325   -0.720304
     17          6           0       -0.648386    1.027455    0.747042
     18          6           0       -0.529270    1.542992   -0.548442
     19          6           0       -1.289850    2.625583   -0.981669
     20          6           0       -2.225856    3.250847   -0.128350
     21          7           0       -3.013895    4.316007   -0.565191
     22          6           0       -3.756203    5.088169    0.415971
     23          6           0       -2.678161    4.969894   -1.818264
     24          6           0       -2.333257    2.742347    1.184732
     25          6           0       -1.564887    1.657120    1.596616
     26          6           0        2.580312    0.571975    1.442459
     27          6           0        3.904864    0.622669    1.022240
     28          1           0        6.769923    0.014662    1.237181
     29          1           0        7.621293    0.559917   -0.226374
     30          1           0        6.427125    1.611459    0.533800
     31          1           0        7.132997   -0.712603   -1.857158
     32          1           0        6.005598   -1.977322   -1.314542
     33          1           0        5.506888   -0.785572   -2.536142
     34          1           0        3.620864   -1.395295   -1.702989
     35          1           0        1.314452   -1.463999   -0.936205
     36          1           0        0.205541   -0.085165    2.334062
     37          1           0        0.039404   -2.360852    1.386241
     38          1           0       -2.161468   -0.857575   -0.120730
     39          1           0       -0.903998   -4.278811    1.094690
     40          1           0       -2.085906   -6.376015    0.603236
     41          1           0       -4.181917   -6.359193   -0.739642
     42          1           0       -5.077409   -4.193842   -1.585547
     43          1           0       -3.887211   -2.084095   -1.092176
     44          1           0        0.188194    1.103045   -1.235484
     45          1           0       -1.142195    2.986929   -1.992530
     46          1           0       -3.108961    5.574308    1.165182
     47          1           0       -4.326986    5.864280   -0.098717
     48          1           0       -4.473328    4.454394    0.950312
     49          1           0       -1.668948    5.414656   -1.818324
     50          1           0       -3.402760    5.764133   -2.011113
     51          1           0       -2.735588    4.264049   -2.654831
     52          1           0       -3.014609    3.193931    1.896062
     53          1           0       -1.683203    1.293892    2.615987
     54          1           0        2.295897    1.123498    2.336713
     55          1           0        4.611211    1.201659    1.605416
 ---------------------------------------------------------------------

 The electronic state is 1-A.
 Alpha  occ. eigenvalues --  -14.34571 -14.34486 -10.21617 -10.21515 -10.21326
 Alpha  occ. eigenvalues --  -10.21301 -10.21244 -10.21222 -10.19068 -10.18767
 Alpha  occ. eigenvalues --  -10.18102 -10.18046 -10.17980 -10.17865 -10.17811
 Alpha  occ. eigenvalues --  -10.17763 -10.17417 -10.17379 -10.17354 -10.17297
 Alpha  occ. eigenvalues --  -10.17226 -10.17162 -10.17148 -10.17083 -10.17075
 Alpha  occ. eigenvalues --  -10.17031 -10.16963  -0.93867  -0.93776  -0.84733
 Alpha  occ. eigenvalues --   -0.84201  -0.82708  -0.79201  -0.76132  -0.73714
 Alpha  occ. eigenvalues --   -0.73603  -0.73383  -0.73121  -0.71691  -0.71303
 Alpha  occ. eigenvalues --   -0.71173  -0.67924  -0.64877  -0.62956  -0.60178
 Alpha  occ. eigenvalues --   -0.59439  -0.58885  -0.58454  -0.56367  -0.55580
 Alpha  occ. eigenvalues --   -0.53301  -0.51799  -0.51136  -0.50309  -0.47820
 Alpha  occ. eigenvalues --   -0.47152  -0.46145  -0.45866  -0.45756  -0.45416
 Alpha  occ. eigenvalues --   -0.44475  -0.43855  -0.43649  -0.43144  -0.42513
 Alpha  occ. eigenvalues --   -0.41219  -0.40930  -0.40891  -0.40811  -0.40689
 Alpha  occ. eigenvalues --   -0.40257  -0.40056  -0.39215  -0.38687  -0.37606
 Alpha  occ. eigenvalues --   -0.37505  -0.37450  -0.36642  -0.36037  -0.35517
 Alpha  occ. eigenvalues --   -0.34717  -0.34373  -0.33289  -0.32985  -0.32079
 Alpha  occ. eigenvalues --   -0.31829  -0.31676  -0.28237  -0.27288  -0.26562
 Alpha  occ. eigenvalues --   -0.24020  -0.23534  -0.23413  -0.20664  -0.18496
 Alpha  occ. eigenvalues --   -0.17643
 Alpha virt. eigenvalues --   -0.01882   0.00976   0.01122   0.01599   0.02221
 Alpha virt. eigenvalues --    0.03297   0.07373   0.09069   0.09113   0.10319
 Alpha virt. eigenvalues --    0.11090   0.11324   0.11757   0.12597   0.12979

 Mulliken charges:
               1
     1  C   -0.308994
     2  N   -0.471764
     3  C   -0.308772
     4  C    0.364571
     5  C   -0.198898
     6  C   -0.200419
     7  C    0.161364
     8  C   -0.293902
     9  C   -0.114800
    10  C   -0.191142
    11  C    0.180528
    12  C   -0.183545
    13  C   -0.131317
    14  C   -0.131090
    15  C   -0.129986
    16  C   -0.198621
    17  C    0.164817
    18  C   -0.185921
    19  C   -0.198426
    20  C    0.363962
    21  N   -0.471679
    22  C   -0.308742
    23  C   -0.308799
    24  C   -0.194555
    25  C   -0.193530
    26  C   -0.191140
    27  C   -0.191960
    28  H    0.147394
    29  H    0.151633
    30  H    0.162885
    31  H    0.151439
    32  H    0.147783
    33  H    0.162905
    34  H    0.120380
    35  H    0.132666
    36  H    0.138850
    37  H    0.128497
    38  H    0.142179
    39  H    0.126145
    40  H    0.125748
    41  H    0.124993
    42  H    0.126023
    43  H    0.128873
    44  H    0.133264
    45  H    0.120080
    46  H    0.147198
    47  H    0.151344
    48  H    0.162602
    49  H    0.148177
    50  H    0.151081
    51  H    0.162681
    52  H    0.119193
    53  H    0.119188
    54  H    0.119883
    55  H    0.119674
 Sum of Mulliken charges =  -0.00000

 Dipole moment (field-independent basis, Debye):
    X=              1.4412    Y=              1.8251    Z=             -0.6562  Tot=              2.4164
 Quadrupole moment (field-independent basis, Debye-Ang):
   XX=           -134.1503   YY=           -144.3610   ZZ=           -154.5659
   XY=            -10.3144   XZ=              0.5195   YZ=             -0.4663

 1\1\GINC-NODE92\FOpt\RB3LYP\6-31G(d)\C25H28N2\WYKGROUP\04-Nov-2022\0\\
 #p b3lyp/6-31g(d) opt SCF=XQC\\Gaussian input prepared by ASE\\0,1\C,-
 1.2491220837,6.4230168609,-0.5277753317\N,-1.5734302302,5.3258111818,0
 .3671454204\C,-2.6188855729,5.5470848363,1.3509717063\C,-1.2910514233,
 4.0203557971,-0.0344376211\C,-1.8033729943,2.905255227,0.6627031534\C,
 -1.4885157425,1.6049310111,0.2726768325\C,-0.6619211857,1.3419654039,-
 0.8247876308\C,-0.2847330788,-0.078105386,-1.2526708435\C,-1.423092856
 3,-1.0515717148,-0.9999535042\C,-1.3626297545,-2.1872885151,-0.2890953

 Normal termination of Gaussian 16 at Fri Nov  4 23:47:59 2022.
