 Gaussian 16, Revision B.01,
 Gaussian 16:  ES64L-G16RevB.01 20-Dec-2017

 -------------------------------------------------------------------
 #p b3lyp/6-31g(d) 6D 10F nosymm GFInput td=(50-50,nstate=2) SCF=XQC
 -------------------------------------------------------------------

 ------------------------------
 Gaussian input prepared by ASE
 ------------------------------
 Symbolic Z-matrix:
 Charge =  0 Multiplicity = 1

                          Input orientation:
 ---------------------------------------------------------------------
 Center     Atomic      Atomic             Coordinates (Angstroms)
 Number     Number       Type             X           Y           Z
 ---------------------------------------------------------------------
      1          6           0       -6.638012    2.979143   -0.418619
      2          6           0       -5.739965    1.766202   -0.362490
      3          6           0       -4.567446    1.712127   -1.122451
      4          6           0       -3.713573    0.611270   -1.102752
      5          6           0       -4.015233   -0.483907   -0.280997
      6          7           0       -3.233234   -1.648654   -0.246716
      7          6           0       -1.840467   -1.766788   -0.375223
      8          6           0       -0.975104   -0.684683   -0.205211
      9          6           0        0.412363   -0.813398   -0.352385
     10          6           0        0.929663   -2.073210   -0.648655
     11          6           0        0.079967   -3.174648   -0.788864
     12          6           0       -1.297727   -3.046647   -0.668507
     13          6           0       -2.200362   -4.241207   -0.851467
     14          8           0        2.269166   -2.326868   -0.815866
     15          6           0        3.160716   -1.294165   -0.687164
     16          6           0        4.497716   -1.647391   -0.874482
     17          6           0        5.516386   -0.684926   -0.764117
     18          7           0        6.850314   -1.026719   -0.923557
     19          6           0        7.190245   -2.353614   -1.408263
     20          6           0        7.851352    0.022790   -1.025383
     21          6           0        5.126362    0.648686   -0.472625
     22          6           0        3.792600    0.966856   -0.288698
     23          6           0        2.767921    0.012648   -0.384949
     24          6           0        1.316788    0.395927   -0.220277
     25          8           0        0.953350    1.353794   -1.298308
     26          6           0        0.526204    2.553415   -0.797705
     27          8           0        0.176778    3.471847   -1.499948
     28          6           0        0.587439    2.472746    0.680616
     29          6           0        0.261249    3.439000    1.631286
     30          6           0        0.413404    3.101211    2.975060
     31          6           0        0.880537    1.828319    3.340810
     32          6           0        1.204235    0.869176    2.377829
     33          6           0        1.048492    1.212759    1.037652
     34          6           0       -5.191140   -0.437000    0.486089
     35          6           0       -6.056056    0.657565    0.451481
     36          6           0       -7.310184    0.650416    1.294103
     37          1           0       -7.651540    2.725422   -0.757462
     38          1           0       -6.238255    3.730453   -1.106679
     39          1           0       -6.746839    3.456338    0.564766
     40          1           0       -4.314285    2.553699   -1.763329
     41          1           0       -2.833630    0.598692   -1.736398
     42          1           0       -3.698259   -2.452933    0.149674
     43          1           0       -1.385132    0.285012    0.051246
     44          1           0        0.524333   -4.138883   -1.017476
     45          1           0       -2.987114   -4.034865   -1.587707
     46          1           0       -1.633201   -5.112209   -1.191342
     47          1           0       -2.702961   -4.529739    0.084162
     48          1           0        4.706275   -2.682275   -1.111538
     49          1           0        6.790587   -2.555666   -2.414845
     50          1           0        6.808363   -3.126765   -0.730910
     51          1           0        8.276761   -2.454023   -1.443797
     52          1           0        7.688604    0.687099   -1.888684
     53          1           0        7.867760    0.640356   -0.119704
     54          1           0        8.837094   -0.435159   -1.127553
     55          1           0        5.865863    1.435492   -0.395007
     56          1           0        3.528471    1.997906   -0.070601
     57          1           0       -0.097865    4.415461    1.320206
     58          1           0        0.170027    3.824695    3.748057
     59          1           0        0.992507    1.585307    4.394179
     60          1           0        1.566689   -0.112731    2.668542
     61          1           0       -5.432383   -1.280669    1.131487
     62          1           0       -7.322975    1.483711    2.008717
     63          1           0       -8.212499    0.753126    0.677224
     64          1           0       -7.401138   -0.278922    1.864891
 ---------------------------------------------------------------------

 SCF Done:  E(RB3LYP) =  -1533.37174226     A.U. after   15 cycles

 Excitation energies and oscillator strengths:

 Excited state symmetry could not be determined.
 Excited State   1:      Triplet-?Sym    3.1111 eV  398.52 nm  f=0.0000  <S**2>=2.000
     122 ->128         0.10146
     126 ->127         0.42946
     126 ->129        -0.24889
     126 ->130        -0.41074
     126 ->133        -0.11807
 This state for optimization and/or second-order correction.
 Total Energy, E(TD-HF/TD-DFT) =  -1533.25741189
 Copying the excited state density for this state as the 1-particle RhoCI density.

 Excited state symmetry could not be determined.
 Excited State   2:      Triplet-?Sym    3.2136 eV  385.81 nm  f=0.0000  <S**2>=2.000
     126 ->127         0.29009
     126 ->128         0.47093
     126 ->129         0.34784
     126 ->130         0.10176
     126 ->131         0.12624

 Excited state symmetry could not be determined.
 Excited State   3:      Singlet-?Sym    3.2180 eV  385.28 nm  f=0.0053  <S**2>=0.000
     126 ->127         0.70431

 Excited state symmetry could not be determined.
 Excited State   4:      Singlet-?Sym    3.6579 eV  338.95 nm  f=0.0016  <S**2>=0.000
     125 ->127         0.69895

 Alpha  occ. eigenvalues --  -19.19460 -19.17156 -19.11942 -14.35738 -14.35452
 Alpha  occ. eigenvalues --  -10.29999 -10.26781 -10.24983 -10.24528 -10.23135
 Alpha  occ. eigenvalues --  -10.22703 -10.22213 -10.22134 -10.22091 -10.20604
 Alpha  occ. eigenvalues --  -10.20530 -10.20370 -10.20240 -10.20121 -10.20013
 Alpha  occ. eigenvalues --  -10.19865 -10.19770 -10.19095 -10.18988 -10.18834
 Alpha  occ. eigenvalues --  -10.18730 -10.18728 -10.18526 -10.17966 -10.17966
 Alpha  occ. eigenvalues --  -10.17944 -10.17864 -10.17716 -10.17625 -10.17525
 Alpha  occ. eigenvalues --  -10.17303  -1.08764  -1.07983  -1.00396  -0.95042
 Alpha  occ. eigenvalues --   -0.94433  -0.87069  -0.85922  -0.84841  -0.83954
 Alpha  occ. eigenvalues --   -0.80275  -0.77340  -0.76818  -0.76321  -0.75888
 Alpha  occ. eigenvalues --   -0.75332  -0.75066  -0.73335  -0.72072  -0.71050
 Alpha  occ. eigenvalues --   -0.68981  -0.67563  -0.66383  -0.65349  -0.63843
 Alpha  occ. eigenvalues --   -0.63014  -0.61859  -0.60112  -0.59801  -0.58966
 Alpha  occ. eigenvalues --   -0.57064  -0.56644  -0.54828  -0.54356  -0.52987
 Alpha  occ. eigenvalues --   -0.51370  -0.50288  -0.49896  -0.49257  -0.48759
 Alpha  occ. eigenvalues --   -0.47288  -0.47088  -0.46770  -0.46221  -0.45783
 Alpha  occ. eigenvalues --   -0.44715  -0.44576  -0.44243  -0.43874  -0.43556
 Alpha  occ. eigenvalues --   -0.43346  -0.42690  -0.42487  -0.42254  -0.41974
 Alpha  occ. eigenvalues --   -0.41646  -0.41227  -0.41057  -0.40742  -0.40122
 Alpha  occ. eigenvalues --   -0.39886  -0.39233  -0.38950  -0.38708  -0.38218
 Alpha  occ. eigenvalues --   -0.37927  -0.37685  -0.37495  -0.37123  -0.36671
 Alpha  occ. eigenvalues --   -0.36012  -0.35849  -0.35526  -0.35309  -0.35133
 Alpha  occ. eigenvalues --   -0.33755  -0.33604  -0.32690  -0.32553  -0.30078
 Alpha  occ. eigenvalues --   -0.29033  -0.27709  -0.26187  -0.26080  -0.25716
 Alpha  occ. eigenvalues --   -0.24697  -0.24013  -0.23423  -0.21875  -0.19366
 Alpha  occ. eigenvalues --   -0.17704
 Alpha virt. eigenvalues --   -0.03940  -0.01730  -0.01417  -0.00030   0.00963
 Alpha virt. eigenvalues --    0.01160   0.01939   0.04072   0.06774   0.07744
 Alpha virt. eigenvalues --    0.08363   0.09751   0.09819   0.10505   0.10970

 Mulliken charges:
               1
     1  C   -0.533306
     2  C    0.130801
     3  C   -0.199639
     4  C   -0.181195
     5  C    0.381038
     6  N   -0.809387
     7  C    0.297341
     8  C   -0.251946
     9  C    0.147534
    10  C    0.309505
    11  C   -0.276734
    12  C    0.160810
    13  C   -0.552609
    14  O   -0.577930
    15  C    0.309824
    16  C   -0.288146
    17  C    0.385894
    18  N   -0.482281
    19  C   -0.309150
    20  C   -0.312099
    21  C   -0.195672
    22  C   -0.201803
    23  C    0.139841
    24  C    0.054042
    25  O   -0.486065
    26  C    0.578611
    27  O   -0.474597
    28  C    0.022638
    29  C   -0.171833
    30  C   -0.133711
    31  C   -0.127581
    32  C   -0.183829
    33  C    0.117699
    34  C   -0.265237
    35  C    0.134566
    36  C   -0.533366
    37  H    0.154197
    38  H    0.156078
    39  H    0.154475
    40  H    0.130924
    41  H    0.154639
    42  H    0.323257
    43  H    0.158522
    44  H    0.135222
    45  H    0.174062
    46  H    0.164985
    47  H    0.152613
    48  H    0.135877
    49  H    0.156208
    50  H    0.165240
    51  H    0.155600
    52  H    0.157136
    53  H    0.164973
    54  H    0.155784
    55  H    0.126707
    56  H    0.139569
    57  H    0.160527
    58  H    0.139060
    59  H    0.139199
    60  H    0.146221
    61  H    0.107143
    62  H    0.159556
    63  H    0.159540
    64  H    0.150655
 Sum of Mulliken charges =  -0.00000

 Dipole moment (field-independent basis, Debye):
    X=              2.0374    Y=             -3.3499    Z=              3.8739  Tot=              5.5118
 Quadrupole moment (field-independent basis, Debye-Ang):
   XX=           -159.3404   YY=           -199.3093   ZZ=           -207.6453
   XY=             -1.4262   XZ=             -8.3720   YZ=             12.2267

 Normal termination of Gaussian 16 at Sat Nov  5 09:55:02 2022.
