 Gaussian 16, Revision B.01,
 Gaussian 16:  ES64L-G16RevB.01 20-Dec-2017

 -----------------------------
 #p b3lyp/6-31g(d) opt SCF=XQC
 -----------------------------

 ------------------------------
 Gaussian input prepared by ASE
 ------------------------------
 Symbolic Z-matrix:
 Charge =  0 Multiplicity = 1

 SCF Done:  E(RB3LYP) =  -1533.36420541     A.U. after   16 cycles
 SCF Done:  E(RB3LYP) =  -1533.37104291     A.U. after   13 cycles
 SCF Done:  E(RB3LYP) =  -1533.37140367     A.U. after   12 cycles
 SCF Done:  E(RB3LYP) =  -1533.37164623     A.U. after   12 cycles
 SCF Done:  E(RB3LYP) =  -1533.37167914     A.U. after   10 cycles
 SCF Done:  E(RB3LYP) =  -1533.37169172     A.U. after   10 cycles
 SCF Done:  E(RB3LYP) =  -1533.37170313     A.U. after   10 cycles
 SCF Done:  E(RB3LYP) =  -1533.37171985     A.U. after   11 cycles
 SCF Done:  E(RB3LYP) =  -1533.37173021     A.U. after   10 cycles
 SCF Done:  E(RB3LYP) =  -1533.37173441     A.U. after   10 cycles
 SCF Done:  E(RB3LYP) =  -1533.37173519     A.U. after    8 cycles
 SCF Done:  E(RB3LYP) =  -1533.37173581     A.U. after    8 cycles
 SCF Done:  E(RB3LYP) =  -1533.37173610     A.U. after    7 cycles
 SCF Done:  E(RB3LYP) =  -1533.37173629     A.U. after    7 cycles
 SCF Done:  E(RB3LYP) =  -1533.37173648     A.U. after    7 cycles
 SCF Done:  E(RB3LYP) =  -1533.37173664     A.U. after    7 cycles
 SCF Done:  E(RB3LYP) =  -1533.37173673     A.U. after    7 cycles
 SCF Done:  E(RB3LYP) =  -1533.37173675     A.U. after    7 cycles
 SCF Done:  E(RB3LYP) =  -1533.37173676     A.U. after    6 cycles
 SCF Done:  E(RB3LYP) =  -1533.37173676     A.U. after    6 cycles
 Optimization completed.
    -- Stationary point found.

                         Standard orientation:
 ---------------------------------------------------------------------
 Center     Atomic      Atomic             Coordinates (Angstroms)
 Number     Number       Type             X           Y           Z
 ---------------------------------------------------------------------
      1          6           0        7.065199   -1.691521   -1.313034
      2          6           0        6.021263   -0.685769   -0.889330
      3          6           0        4.798728   -0.601249   -1.562776
      4          6           0        3.810577    0.314312   -1.206857
      5          6           0        4.024896    1.177449   -0.122996
      6          7           0        3.100418    2.160431    0.262258
      7          6           0        1.698601    2.101989    0.220290
      8          6           0        0.999020    0.898897    0.111358
      9          6           0       -0.400345    0.856367    0.054248
     10          6           0       -1.100308    2.058556    0.139655
     11          6           0       -0.416558    3.269633    0.283128
     12          6           0        0.971061    3.318677    0.315043
     13          6           0        1.691645    4.637739    0.441655
     14          8           0       -2.470280    2.147375    0.096536
     15          6           0       -3.205347    0.998612   -0.037336
     16          6           0       -4.587509    1.187956   -0.072036
     17          6           0       -5.458877    0.092199   -0.199479
     18          7           0       -6.834420    0.263557   -0.210726
     19          6           0       -7.381934    1.606877   -0.293572
     20          6           0       -7.692603   -0.854797   -0.566704
     21          6           0       -4.875310   -1.197678   -0.305656
     22          6           0       -3.501238   -1.353237   -0.264309
     23          6           0       -2.621789   -0.268277   -0.125836
     24          6           0       -1.124522   -0.463203   -0.125222
     25          8           0       -0.718633   -1.027984   -1.439765
     26          6           0       -0.100570   -2.241691   -1.309157
     27          8           0        0.314158   -2.873017   -2.251595
     28          6           0       -0.061990   -2.575197    0.134095
     29          6           0        0.458837   -3.704001    0.765253
     30          6           0        0.363544   -3.769879    2.154339
     31          6           0       -0.239402   -2.727500    2.876932
     32          6           0       -0.757740   -1.601749    2.231889
     33          6           0       -0.657868   -1.541829    0.844513
     34          6           0        5.250360    1.098314    0.559171
     35          6           0        6.247487    0.194413    0.190319
     36          6           0        7.548726    0.157741    0.957348
     37          1           0        8.008273   -1.208589   -1.602545
     38          1           0        6.718359   -2.278382   -2.169186
     39          1           0        7.308915   -2.396169   -0.506389
     40          1           0        4.612232   -1.265112   -2.403944
     41          1           0        2.892101    0.368292   -1.780838
     42          1           0        3.483105    2.886461    0.851044
     43          1           0        1.551619   -0.032405    0.072473
     44          1           0       -1.000308    4.183115    0.348401
     45          1           0        2.441916    4.757473   -0.349777
     46          1           0        0.990592    5.474611    0.378392
     47          1           0        2.219737    4.732465    1.402594
     48          1           0       -4.948153    2.205744   -0.003330
     49          1           0       -7.088375    2.131227   -1.216958
     50          1           0       -7.056447    2.214776    0.559023
     51          1           0       -8.471796    1.551570   -0.261906
     52          1           0       -7.507970   -1.228292   -1.586259
     53          1           0       -7.559875   -1.690355    0.130533
     54          1           0       -8.735103   -0.537091   -0.502653
     55          1           0       -5.496409   -2.076257   -0.425172
     56          1           0       -3.087581   -2.354028   -0.352068
     57          1           0        0.919863   -4.495239    0.181637
     58          1           0        0.757209   -4.631803    2.685658
     59          1           0       -0.304003   -2.798774    3.959487
     60          1           0       -1.224301   -0.800298    2.797597
     61          1           0        5.425135    1.761184    1.405675
     62          1           0        7.724665   -0.826829    1.409991
     63          1           0        8.408378    0.360710    0.305377
     64          1           0        7.558079    0.900144    1.761394
 ---------------------------------------------------------------------

 The electronic state is 1-A.
 Alpha  occ. eigenvalues --  -19.19460 -19.17156 -19.11942 -14.35738 -14.35452
 Alpha  occ. eigenvalues --  -10.29999 -10.26781 -10.24983 -10.24528 -10.23135
 Alpha  occ. eigenvalues --  -10.22703 -10.22213 -10.22134 -10.22091 -10.20604
 Alpha  occ. eigenvalues --  -10.20530 -10.20370 -10.20240 -10.20121 -10.20013
 Alpha  occ. eigenvalues --  -10.19865 -10.19770 -10.19095 -10.18988 -10.18834
 Alpha  occ. eigenvalues --  -10.18730 -10.18728 -10.18526 -10.17966 -10.17966
 Alpha  occ. eigenvalues --  -10.17944 -10.17864 -10.17716 -10.17625 -10.17525
 Alpha  occ. eigenvalues --  -10.17303  -1.08764  -1.07982  -1.00396  -0.95042
 Alpha  occ. eigenvalues --   -0.94433  -0.87069  -0.85923  -0.84841  -0.83954
 Alpha  occ. eigenvalues --   -0.80275  -0.77340  -0.76818  -0.76321  -0.75888
 Alpha  occ. eigenvalues --   -0.75332  -0.75066  -0.73335  -0.72072  -0.71050
 Alpha  occ. eigenvalues --   -0.68981  -0.67563  -0.66383  -0.65349  -0.63843
 Alpha  occ. eigenvalues --   -0.63014  -0.61859  -0.60112  -0.59801  -0.58966
 Alpha  occ. eigenvalues --   -0.57064  -0.56644  -0.54828  -0.54356  -0.52986
 Alpha  occ. eigenvalues --   -0.51370  -0.50288  -0.49896  -0.49257  -0.48759
 Alpha  occ. eigenvalues --   -0.47288  -0.47088  -0.46770  -0.46221  -0.45783
 Alpha  occ. eigenvalues --   -0.44715  -0.44576  -0.44243  -0.43874  -0.43556
 Alpha  occ. eigenvalues --   -0.43346  -0.42690  -0.42487  -0.42254  -0.41974
 Alpha  occ. eigenvalues --   -0.41646  -0.41227  -0.41057  -0.40742  -0.40122
 Alpha  occ. eigenvalues --   -0.39886  -0.39233  -0.38950  -0.38708  -0.38218
 Alpha  occ. eigenvalues --   -0.37927  -0.37684  -0.37495  -0.37123  -0.36671
 Alpha  occ. eigenvalues --   -0.36012  -0.35849  -0.35526  -0.35309  -0.35133
 Alpha  occ. eigenvalues --   -0.33755  -0.33604  -0.32690  -0.32553  -0.30078
 Alpha  occ. eigenvalues --   -0.29033  -0.27709  -0.26187  -0.26080  -0.25716
 Alpha  occ. eigenvalues --   -0.24697  -0.24013  -0.23423  -0.21875  -0.19366
 Alpha  occ. eigenvalues --   -0.17704
 Alpha virt. eigenvalues --   -0.03940  -0.01730  -0.01417  -0.00030   0.00963
 Alpha virt. eigenvalues --    0.01160   0.01939   0.04073   0.06774   0.07744
 Alpha virt. eigenvalues --    0.08363   0.09751   0.09819   0.10505   0.10970

 Mulliken charges:
               1
     1  C   -0.533287
     2  C    0.130782
     3  C   -0.199641
     4  C   -0.181187
     5  C    0.381023
     6  N   -0.809383
     7  C    0.297352
     8  C   -0.251952
     9  C    0.147499
    10  C    0.309526
    11  C   -0.276736
    12  C    0.160811
    13  C   -0.552613
    14  O   -0.577943
    15  C    0.309852
    16  C   -0.288155
    17  C    0.385908
    18  N   -0.482291
    19  C   -0.309150
    20  C   -0.312098
    21  C   -0.195659
    22  C   -0.201793
    23  C    0.139778
    24  C    0.054089
    25  O   -0.486066
    26  C    0.578623
    27  O   -0.474602
    28  C    0.022636
    29  C   -0.171839
    30  C   -0.133709
    31  C   -0.127587
    32  C   -0.183824
    33  C    0.117692
    34  C   -0.265225
    35  C    0.134575
    36  C   -0.533382
    37  H    0.154195
    38  H    0.156075
    39  H    0.154472
    40  H    0.130924
    41  H    0.154637
    42  H    0.323256
    43  H    0.158529
    44  H    0.135223
    45  H    0.174063
    46  H    0.164985
    47  H    0.152613
    48  H    0.135879
    49  H    0.156209
    50  H    0.165239
    51  H    0.155601
    52  H    0.157135
    53  H    0.164973
    54  H    0.155784
    55  H    0.126705
    56  H    0.139568
    57  H    0.160527
    58  H    0.139061
    59  H    0.139200
    60  H    0.146221
    61  H    0.107142
    62  H    0.159559
    63  H    0.159543
    64  H    0.150657
 Sum of Mulliken charges =  -0.00000

 Dipole moment (field-independent basis, Debye):
    X=             -2.1692    Y=              1.8338    Z=              4.7235  Tot=              5.5118
 Quadrupole moment (field-independent basis, Debye-Ang):
   XX=           -159.0757   YY=           -193.6357   ZZ=           -212.5930
   XY=              1.3870   XZ=              7.1904   YZ=             -6.5093

 Normal termination of Gaussian 16 at Fri Nov  4 23:31:29 2022.
