 Gaussian 16, Revision B.01,
 Gaussian 16:  ES64L-G16RevB.01 20-Dec-2017

 -----------------------------
 #p b3lyp/6-31g(d) opt SCF=XQC
 -----------------------------

 ------------------------------
 Gaussian input prepared by ASE
 ------------------------------
 Symbolic Z-matrix:
 Charge =  0 Multiplicity = 1

 SCF Done:  E(RB3LYP) =  -1592.31188671     A.U. after   16 cycles
 SCF Done:  E(RB3LYP) =  -1592.31933531     A.U. after   13 cycles
 SCF Done:  E(RB3LYP) =  -1592.32023202     A.U. after   12 cycles
 SCF Done:  E(RB3LYP) =  -1592.32051894     A.U. after   12 cycles
 SCF Done:  E(RB3LYP) =  -1592.32063584     A.U. after   11 cycles
 SCF Done:  E(RB3LYP) =  -1592.32069682     A.U. after   11 cycles
 SCF Done:  E(RB3LYP) =  -1592.32071614     A.U. after   10 cycles
 SCF Done:  E(RB3LYP) =  -1592.32074604     A.U. after   10 cycles
 SCF Done:  E(RB3LYP) =  -1592.32075974     A.U. after   10 cycles
 SCF Done:  E(RB3LYP) =  -1592.32076552     A.U. after   10 cycles
 SCF Done:  E(RB3LYP) =  -1592.32077605     A.U. after    9 cycles
 SCF Done:  E(RB3LYP) =  -1592.32077614     A.U. after    9 cycles
 SCF Done:  E(RB3LYP) =  -1592.32077617     A.U. after    7 cycles
 SCF Done:  E(RB3LYP) =  -1592.32077617     A.U. after    6 cycles
 SCF Done:  E(RB3LYP) =  -1592.32077618     A.U. after    6 cycles
 SCF Done:  E(RB3LYP) =  -1592.32077620     A.U. after    6 cycles
 SCF Done:  E(RB3LYP) =  -1592.32077621     A.U. after    7 cycles
 SCF Done:  E(RB3LYP) =  -1592.32077623     A.U. after    7 cycles
 SCF Done:  E(RB3LYP) =  -1592.32077624     A.U. after    6 cycles
 SCF Done:  E(RB3LYP) =  -1592.32077625     A.U. after    6 cycles
 Optimization completed.
    -- Stationary point found.

                         Standard orientation:
 ---------------------------------------------------------------------
 Center     Atomic      Atomic             Coordinates (Angstroms)
 Number     Number       Type             X           Y           Z
 ---------------------------------------------------------------------
      1          6           0       -7.880745   -4.154576    1.822612
      2          6           0       -6.927762   -3.428976    0.900906
      3          6           0       -6.380837   -4.063382   -0.221549
      4          6           0       -5.519487   -3.391525   -1.088578
      5          6           0       -5.196352   -2.058198   -0.841400
      6          8           0       -4.406828   -1.410980   -1.777319
      7          6           0       -3.350632   -0.619507   -1.379947
      8          6           0       -2.999056    0.426922   -2.234959
      9          6           0       -1.899591    1.228421   -1.937504
     10          6           0       -1.129464    1.003495   -0.789911
     11          6           0        0.034147    1.941744   -0.415579
     12          6           0        1.226303    1.178708    0.193699
     13          6           0        1.691922    0.014350   -0.435964
     14          6           0        2.824714   -0.658864    0.015802
     15          6           0        3.520427   -0.164547    1.123914
     16          8           0        4.609674   -0.795150    1.682229
     17          6           0        5.443995   -1.583276    0.904652
     18          6           0        5.779134   -2.844164    1.393660
     19          6           0        6.684065   -3.637355    0.687660
     20          6           0        7.261715   -3.196401   -0.509155
     21          6           0        8.259386   -4.049437   -1.258213
     22          6           0        6.904369   -1.924557   -0.979806
     23          6           0        6.009743   -1.114189   -0.283612
     24          6           0        3.072778    0.990462    1.767607
     25          6           0        1.938321    1.652652    1.302831
     26          7           0        0.509385    2.712509   -1.582264
     27          6           0        0.477772    4.086473   -1.436204
     28          8           0        0.934684    4.908589   -2.213592
     29          6           0       -0.231595    4.315427   -0.147228
     30          6           0       -0.611361    5.522116    0.433065
     31          6           0       -1.273241    5.478341    1.660427
     32          6           0       -1.544283    4.247626    2.275049
     33          6           0       -1.160837    3.040612    1.681283
     34          6           0       -0.490133    3.088295    0.462026
     35          6           0       -1.496923   -0.053402    0.054482
     36          6           0       -2.594441   -0.864513   -0.230045
     37          6           0       -5.732131   -1.397993    0.267231
     38          6           0       -6.583666   -2.088963    1.127601
     39          1           0       -7.764764   -3.825083    2.860964
     40          1           0       -8.926765   -3.973478    1.540741
     41          1           0       -7.719728   -5.237385    1.793293
     42          1           0       -6.626670   -5.103933   -0.420939
     43          1           0       -5.094208   -3.885168   -1.956786
     44          1           0       -3.593201    0.598178   -3.127123
     45          1           0       -1.636610    2.042991   -2.604039
     46          1           0        1.150940   -0.388312   -1.288136
     47          1           0        3.159850   -1.562855   -0.481036
     48          1           0        5.330450   -3.187950    2.320383
     49          1           0        6.940290   -4.620767    1.074983
     50          1           0        8.162162   -5.106712   -0.990739
     51          1           0        8.128108   -3.963165   -2.342611
     52          1           0        9.291546   -3.749209   -1.033154
     53          1           0        7.339977   -1.555205   -1.905585
     54          1           0        5.751316   -0.127190   -0.654314
     55          1           0        3.621442    1.356895    2.629495
     56          1           0        1.612432    2.552660    1.813013
     57          1           0        1.120069    2.293177   -2.270731
     58          1           0       -0.392378    6.459756   -0.069347
     59          1           0       -1.585399    6.400019    2.143607
     60          1           0       -2.064648    4.229981    3.229020
     61          1           0       -1.387269    2.094146    2.163668
     62          1           0       -0.907009   -0.265920    0.941258
     63          1           0       -2.853894   -1.686085    0.428976
     64          1           0       -5.483925   -0.357418    0.450885
     65          1           0       -6.995575   -1.570138    1.990438
 ---------------------------------------------------------------------

 The electronic state is 1-A.
 Alpha  occ. eigenvalues --  -19.18975 -19.18781 -19.10813 -14.35398 -10.28121
 Alpha  occ. eigenvalues --  -10.25717 -10.25602 -10.25303 -10.25024 -10.24924
 Alpha  occ. eigenvalues --  -10.20716 -10.20320 -10.20268 -10.20159 -10.20002
 Alpha  occ. eigenvalues --  -10.19970 -10.19954 -10.19919 -10.19878 -10.19825
 Alpha  occ. eigenvalues --  -10.19681 -10.19609 -10.19567 -10.19539 -10.19456
 Alpha  occ. eigenvalues --  -10.19381 -10.19352 -10.19345 -10.19331 -10.19278
 Alpha  occ. eigenvalues --  -10.19275 -10.19262 -10.19237 -10.19222 -10.19077
 Alpha  occ. eigenvalues --  -10.19024 -10.18725 -10.18674  -1.07867  -1.07664
 Alpha  occ. eigenvalues --   -1.02550  -0.94444  -0.86650  -0.86358  -0.85998
 Alpha  occ. eigenvalues --   -0.85475  -0.85065  -0.79380  -0.77896  -0.77098
 Alpha  occ. eigenvalues --   -0.76370  -0.75489  -0.75236  -0.75196  -0.74941
 Alpha  occ. eigenvalues --   -0.74819  -0.74018  -0.70085  -0.68503  -0.67108
 Alpha  occ. eigenvalues --   -0.64632  -0.62891  -0.62502  -0.62121  -0.61943
 Alpha  occ. eigenvalues --   -0.61110  -0.60485  -0.59147  -0.57708  -0.57394
 Alpha  occ. eigenvalues --   -0.56966  -0.54897  -0.54684  -0.51460  -0.50431
 Alpha  occ. eigenvalues --   -0.50130  -0.49283  -0.48395  -0.48311  -0.47406
 Alpha  occ. eigenvalues --   -0.47272  -0.47174  -0.46671  -0.45330  -0.45198
 Alpha  occ. eigenvalues --   -0.44822  -0.44345  -0.44192  -0.43684  -0.42802
 Alpha  occ. eigenvalues --   -0.42669  -0.42576  -0.42514  -0.42419  -0.42116
 Alpha  occ. eigenvalues --   -0.42085  -0.41359  -0.41223  -0.40708  -0.40525
 Alpha  occ. eigenvalues --   -0.40137  -0.39283  -0.38603  -0.38225  -0.38118
 Alpha  occ. eigenvalues --   -0.36997  -0.36687  -0.36258  -0.36080  -0.35966
 Alpha  occ. eigenvalues --   -0.35801  -0.35708  -0.35187  -0.34930  -0.34263
 Alpha  occ. eigenvalues --   -0.33538  -0.33350  -0.32767  -0.31897  -0.26505
 Alpha  occ. eigenvalues --   -0.26074  -0.25922  -0.25759  -0.25564  -0.25448
 Alpha  occ. eigenvalues --   -0.25217  -0.24576  -0.24205  -0.23980  -0.21715
 Alpha  occ. eigenvalues --   -0.21453
 Alpha virt. eigenvalues --   -0.03554  -0.01904  -0.01816  -0.00934  -0.00822
 Alpha virt. eigenvalues --   -0.00302  -0.00233   0.00493   0.00745   0.01233
 Alpha virt. eigenvalues --    0.06944   0.08787   0.08937   0.09289   0.10168

 Mulliken charges:
               1
     1  C   -0.530189
     2  C    0.181783
     3  C   -0.190959
     4  C   -0.167791
     5  C    0.337775
     6  O   -0.578036
     7  C    0.355480
     8  C   -0.176542
     9  C   -0.188066
    10  C    0.146602
    11  C    0.009277
    12  C    0.159369
    13  C   -0.192134
    14  C   -0.179584
    15  C    0.357796
    16  O   -0.577787
    17  C    0.335223
    18  C   -0.166349
    19  C   -0.191989
    20  C    0.182265
    21  C   -0.530509
    22  C   -0.189315
    23  C   -0.157760
    24  C   -0.179981
    25  C   -0.197798
    26  N   -0.651476
    27  C    0.557988
    28  O   -0.511697
    29  C    0.058382
    30  C   -0.178548
    31  C   -0.133763
    32  C   -0.129917
    33  C   -0.182048
    34  C    0.088890
    35  C   -0.190617
    36  C   -0.181869
    37  C   -0.159531
    38  C   -0.189832
    39  H    0.157282
    40  H    0.166670
    41  H    0.156680
    42  H    0.127276
    43  H    0.141463
    44  H    0.144576
    45  H    0.150173
    46  H    0.143426
    47  H    0.153015
    48  H    0.141554
    49  H    0.127961
    50  H    0.156608
    51  H    0.158958
    52  H    0.167094
    53  H    0.129444
    54  H    0.147627
    55  H    0.145279
    56  H    0.149271
    57  H    0.327755
    58  H    0.159428
    59  H    0.137712
    60  H    0.136815
    61  H    0.140010
    62  H    0.142456
    63  H    0.150646
    64  H    0.146821
    65  H    0.127255
 Sum of Mulliken charges =  -0.00000

 Dipole moment (field-independent basis, Debye):
    X=             -0.7343    Y=             -3.9317    Z=              2.6426  Tot=              4.7938
 Quadrupole moment (field-independent basis, Debye-Ang):
   XX=           -197.7686   YY=           -216.5669   ZZ=           -213.6225
   XY=            -10.0012   XZ=            -14.6425   YZ=             15.3493

 Normal termination of Gaussian 16 at Sat Nov  5 00:29:59 2022.
