 Gaussian 16, Revision B.01,
 Gaussian 16:  ES64L-G16RevB.01 20-Dec-2017

 -------------------------------------------------------------------
 #p b3lyp/6-31g(d) 6D 10F nosymm GFInput td=(50-50,nstate=2) SCF=XQC
 -------------------------------------------------------------------

 ------------------------------
 Gaussian input prepared by ASE
 ------------------------------
 Symbolic Z-matrix:
 Charge =  0 Multiplicity = 1

                          Input orientation:
 ---------------------------------------------------------------------
 Center     Atomic      Atomic             Coordinates (Angstroms)
 Number     Number       Type             X           Y           Z
 ---------------------------------------------------------------------
      1          6           0        8.070794    3.695405    0.846545
      2          6           0        7.019903    2.961628    0.045661
      3          6           0        6.387260    3.567501   -1.047126
      4          6           0        5.433907    2.886974   -1.804130
      5          6           0        5.103120    1.573465   -1.474664
      6          8           0        4.215513    0.912940   -2.307757
      7          6           0        3.181778    0.166602   -1.784063
      8          6           0        2.728038   -0.901656   -2.560343
      9          6           0        1.641789   -1.660635   -2.131721
     10          6           0        0.986218   -1.370914   -0.928831
     11          6           0       -0.160075   -2.261789   -0.412325
     12          6           0       -1.272470   -1.443505    0.271538
     13          6           0       -1.766123   -0.291679   -0.359816
     14          6           0       -2.836076    0.429231    0.165558
     15          6           0       -3.438404   -0.003049    1.351564
     16          8           0       -4.456215    0.678169    1.980719
     17          6           0       -5.339515    1.458679    1.251030
     18          6           0       -5.597952    2.746078    1.716973
     19          6           0       -6.544828    3.536324    1.064730
     20          6           0       -7.240617    3.066035   -0.055623
     21          6           0       -8.282348    3.916970   -0.744692
     22          6           0       -6.958646    1.767784   -0.504879
     23          6           0       -6.023342    0.960287    0.139242
     24          6           0       -2.961124   -1.144506    1.998137
     25          6           0       -1.890448   -1.854948    1.459218
     26          7           0       -0.759028   -3.063192   -1.498645
     27          6           0       -0.746961   -4.430922   -1.300454
     28          8           0       -1.293047   -5.269249   -1.999003
     29          6           0        0.072417   -4.629902   -0.073219
     30          6           0        0.475048   -5.823535    0.518549
     31          6           0        1.248001   -5.751135    1.677738
     32          6           0        1.603842   -4.505764    2.214685
     33          6           0        1.196316   -3.312220    1.609834
     34          6           0        0.415231   -3.387970    0.459671
     35          6           0        1.455041   -0.293044   -0.164989
     36          6           0        2.540772    0.476085   -0.580960
     37          6           0        5.722779    0.941600   -0.393571
     38          6           0        6.666205    1.641235    0.356928
     39          1           0        8.043083    3.409142    1.903654
     40          1           0        9.081780    3.474945    0.478159
     41          1           0        7.933698    4.780325    0.788110
     42          1           0        6.638496    4.592513   -1.310124
     43          1           0        4.942407    3.358605   -2.649306
     44          1           0        3.233232   -1.123163   -3.495227
     45          1           0        1.299143   -2.492528   -2.737938
     46          1           0       -1.296445    0.063087   -1.273347
     47          1           0       -3.193831    1.322463   -0.334954
     48          1           0       -5.057740    3.112537    2.584268
     49          1           0       -6.740708    4.540497    1.433564
     50          1           0       -8.135653    4.980615   -0.530296
     51          1           0       -8.253592    3.785749   -1.832142
     52          1           0       -9.296279    3.654086   -0.414570
     53          1           0       -7.486365    1.375462   -1.371388
     54          1           0       -5.823825   -0.046894   -0.213108
     55          1           0       -3.436688   -1.462501    2.920565
     56          1           0       -1.540574   -2.743436    1.973690
     57          1           0       -1.420318   -2.653818   -2.145076
     58          1           0        0.188371   -6.773302    0.076622
     59          1           0        1.581203   -6.661923    2.167471
     60          1           0        2.210121   -4.466016    3.115794
     61          1           0        1.488774   -2.354606    2.030796
     62          1           0        0.954549   -0.030643    0.762475
     63          1           0        2.879383    1.314782    0.017818
     64          1           0        5.467731   -0.083971   -0.146012
     65          1           0        7.143300    1.144612    1.198998
 ---------------------------------------------------------------------

 SCF Done:  E(RB3LYP) =  -1592.32077506     A.U. after   16 cycles

 Excitation energies and oscillator strengths:

 Excited state symmetry could not be determined.
 Excited State   1:      Triplet-?Sym    3.5469 eV  349.56 nm  f=0.0000  <S**2>=2.000
     122 ->132         0.15950
     122 ->139        -0.12405
     123 ->132        -0.12461
     123 ->133        -0.10206
     126 ->133         0.10435
     126 ->134         0.10095
     127 ->133        -0.10240
     129 ->133         0.10288
     129 ->141         0.13113
     131 ->132         0.18197
     131 ->133        -0.26011
     131 ->135         0.11717
     131 ->138         0.25495
     131 ->141        -0.10078
 This state for optimization and/or second-order correction.
 Total Energy, E(TD-HF/TD-DFT) =  -1592.19042906
 Copying the excited state density for this state as the 1-particle RhoCI density.

 Excited state symmetry could not be determined.
 Excited State   2:      Triplet-?Sym    3.5815 eV  346.18 nm  f=0.0000  <S**2>=2.000
     121 ->134        -0.16887
     121 ->137         0.11265
     121 ->139         0.12072
     125 ->134         0.14048
     126 ->134         0.11907
     128 ->140         0.17944
     129 ->140        -0.11347
     130 ->132         0.10170
     130 ->135        -0.34186
     130 ->136         0.34319

 Excited state symmetry could not be determined.
 Excited State   3:      Singlet-?Sym    4.3237 eV  286.76 nm  f=0.0178  <S**2>=0.000
     127 ->132        -0.20844
     129 ->132        -0.24717
     130 ->132        -0.24116
     131 ->132         0.56881

 Excited state symmetry could not be determined.
 Excited State   4:      Singlet-?Sym    4.4077 eV  281.29 nm  f=0.0326  <S**2>=0.000
     127 ->132         0.20353
     128 ->132        -0.11568
     130 ->132         0.54763
     131 ->132         0.35589

 Alpha  occ. eigenvalues --  -19.18975 -19.18781 -19.10813 -14.35398 -10.28121
 Alpha  occ. eigenvalues --  -10.25717 -10.25602 -10.25303 -10.25024 -10.24924
 Alpha  occ. eigenvalues --  -10.20716 -10.20320 -10.20268 -10.20159 -10.20002
 Alpha  occ. eigenvalues --  -10.19970 -10.19954 -10.19919 -10.19878 -10.19825
 Alpha  occ. eigenvalues --  -10.19681 -10.19609 -10.19567 -10.19539 -10.19456
 Alpha  occ. eigenvalues --  -10.19381 -10.19352 -10.19345 -10.19331 -10.19278
 Alpha  occ. eigenvalues --  -10.19275 -10.19262 -10.19237 -10.19222 -10.19077
 Alpha  occ. eigenvalues --  -10.19024 -10.18725 -10.18674  -1.07867  -1.07664
 Alpha  occ. eigenvalues --   -1.02550  -0.94444  -0.86650  -0.86358  -0.85998
 Alpha  occ. eigenvalues --   -0.85475  -0.85065  -0.79380  -0.77896  -0.77098
 Alpha  occ. eigenvalues --   -0.76370  -0.75489  -0.75236  -0.75196  -0.74941
 Alpha  occ. eigenvalues --   -0.74819  -0.74018  -0.70085  -0.68503  -0.67108
 Alpha  occ. eigenvalues --   -0.64632  -0.62891  -0.62502  -0.62121  -0.61943
 Alpha  occ. eigenvalues --   -0.61110  -0.60485  -0.59147  -0.57708  -0.57394
 Alpha  occ. eigenvalues --   -0.56966  -0.54897  -0.54684  -0.51460  -0.50432
 Alpha  occ. eigenvalues --   -0.50130  -0.49283  -0.48395  -0.48311  -0.47406
 Alpha  occ. eigenvalues --   -0.47272  -0.47174  -0.46671  -0.45330  -0.45198
 Alpha  occ. eigenvalues --   -0.44822  -0.44345  -0.44192  -0.43684  -0.42802
 Alpha  occ. eigenvalues --   -0.42669  -0.42576  -0.42514  -0.42419  -0.42116
 Alpha  occ. eigenvalues --   -0.42085  -0.41359  -0.41223  -0.40708  -0.40525
 Alpha  occ. eigenvalues --   -0.40137  -0.39283  -0.38603  -0.38225  -0.38118
 Alpha  occ. eigenvalues --   -0.36997  -0.36687  -0.36258  -0.36080  -0.35966
 Alpha  occ. eigenvalues --   -0.35801  -0.35708  -0.35187  -0.34930  -0.34263
 Alpha  occ. eigenvalues --   -0.33538  -0.33350  -0.32767  -0.31897  -0.26505
 Alpha  occ. eigenvalues --   -0.26074  -0.25922  -0.25759  -0.25564  -0.25448
 Alpha  occ. eigenvalues --   -0.25217  -0.24576  -0.24205  -0.23980  -0.21715
 Alpha  occ. eigenvalues --   -0.21453
 Alpha virt. eigenvalues --   -0.03554  -0.01904  -0.01816  -0.00934  -0.00822
 Alpha virt. eigenvalues --   -0.00302  -0.00233   0.00493   0.00745   0.01233
 Alpha virt. eigenvalues --    0.06944   0.08787   0.08937   0.09289   0.10168

 Mulliken charges:
               1
     1  C   -0.530188
     2  C    0.181794
     3  C   -0.190968
     4  C   -0.167790
     5  C    0.337794
     6  O   -0.578036
     7  C    0.355486
     8  C   -0.176549
     9  C   -0.188051
    10  C    0.146593
    11  C    0.009329
    12  C    0.159342
    13  C   -0.192139
    14  C   -0.179572
    15  C    0.357782
    16  O   -0.577781
    17  C    0.335210
    18  C   -0.166342
    19  C   -0.191983
    20  C    0.182254
    21  C   -0.530515
    22  C   -0.189310
    23  C   -0.157747
    24  C   -0.179984
    25  C   -0.197793
    26  N   -0.651482
    27  C    0.557986
    28  O   -0.511700
    29  C    0.058393
    30  C   -0.178552
    31  C   -0.133758
    32  C   -0.129921
    33  C   -0.182041
    34  C    0.088870
    35  C   -0.190633
    36  C   -0.181875
    37  C   -0.159546
    38  C   -0.189840
    39  H    0.157282
    40  H    0.166670
    41  H    0.156679
    42  H    0.127279
    43  H    0.141463
    44  H    0.144578
    45  H    0.150170
    46  H    0.143427
    47  H    0.153013
    48  H    0.141555
    49  H    0.127960
    50  H    0.156609
    51  H    0.158959
    52  H    0.167095
    53  H    0.129444
    54  H    0.147625
    55  H    0.145280
    56  H    0.149269
    57  H    0.327755
    58  H    0.159427
    59  H    0.137712
    60  H    0.136815
    61  H    0.140011
    62  H    0.142456
    63  H    0.150648
    64  H    0.146826
    65  H    0.127255
 Sum of Mulliken charges =  -0.00000

 Dipole moment (field-independent basis, Debye):
    X=              1.0683    Y=              4.0081    Z=              2.4032  Tot=              4.7939
 Quadrupole moment (field-independent basis, Debye-Ang):
   XX=           -195.8614   YY=           -219.6637   ZZ=           -215.3724
   XY=            -11.8434   XZ=             12.8783   YZ=            -15.6882

 Normal termination of Gaussian 16 at Sat Nov  5 10:34:46 2022.
