 Gaussian 16, Revision B.01,
 Gaussian 16:  ES64L-G16RevB.01 20-Dec-2017

 -------------------------------------------------------------------
 #p b3lyp/6-31g(d) 6D 10F nosymm GFInput td=(50-50,nstate=2) SCF=XQC
 -------------------------------------------------------------------

 ------------------------------
 Gaussian input prepared by ASE
 ------------------------------
 Symbolic Z-matrix:
 Charge =  0 Multiplicity = 1

                          Input orientation:
 ---------------------------------------------------------------------
 Center     Atomic      Atomic             Coordinates (Angstroms)
 Number     Number       Type             X           Y           Z
 ---------------------------------------------------------------------
      1          6           0      -10.339724   -2.276429    0.462879
      2          8           0       -9.905976   -0.942944    0.702056
      3          6           0       -8.582185   -0.663499    0.585689
      4          6           0       -8.242393    0.683044    0.840898
      5          6           0       -6.920495    1.089242    0.752503
      6          8           0       -6.491248    2.358782    0.977405
      7          6           0       -7.450542    3.345050    1.335584
      8          6           0       -5.899720    0.159753    0.403918
      9          6           0       -4.515485    0.489758    0.286783
     10          6           0       -3.563068   -0.431821   -0.056087
     11          6           0       -2.137634   -0.058048   -0.216657
     12          6           0       -1.809291    1.246770   -0.668271
     13          6           0       -0.493482    1.670424   -0.785306
     14          6           0        0.543295    0.787431   -0.459203
     15          6           0        1.983172    0.873074   -0.458376
     16          6           0        2.906437    1.881228   -0.760142
     17          6           0        4.263593    1.619539   -0.637232
     18          6           0        4.743739    0.353239   -0.214721
     19          6           0        6.205453    0.119798   -0.154789
     20          6           0        7.067212    0.721925   -1.025750
     21          6           0        8.490242    0.546948   -0.956928
     22          6           0        9.406805    1.158918   -1.834736
     23          6           0       10.769791    0.939121   -1.696333
     24          6           0       11.244470    0.099501   -0.676030
     25          6           0       10.360743   -0.520319    0.201826
     26          6           0        8.992287   -0.292019    0.052388
     27          8           0        8.144852   -0.917598    0.917854
     28          6           0        6.759443   -0.786982    0.874296
     29          8           0        6.133422   -1.429782    1.685777
     30          6           0        3.827953   -0.659850    0.107537
     31          6           0        2.465975   -0.392512   -0.026636
     32          7           0        1.385770   -1.232753    0.210436
     33          6           0        1.463531   -2.592749    0.703196
     34          6           0        0.213650   -0.526385   -0.031295
     35          6           0       -1.106982   -0.955946    0.098187
     36          6           0       -3.979525   -1.826749   -0.268584
     37          8           0       -3.274063   -2.775476   -0.528805
     38          8           0       -5.349010   -2.096523   -0.159276
     39          6           0       -6.285149   -1.165699    0.163852
     40          6           0       -7.609836   -1.602248    0.245558
     41          1           0      -10.112837   -2.592168   -0.562975
     42          1           0       -9.880291   -2.978566    1.169618
     43          1           0      -11.420778   -2.267374    0.610048
     44          1           0       -9.042653    1.363285    1.101135
     45          1           0       -6.888897    4.270899    1.468596
     46          1           0       -8.197539    3.480047    0.543522
     47          1           0       -7.956827    3.085608    2.273580
     48          1           0       -4.222990    1.512923    0.494701
     49          1           0       -2.608183    1.922325   -0.957523
     50          1           0       -0.273923    2.674338   -1.139406
     51          1           0        2.567470    2.865918   -1.071207
     52          1           0        4.974614    2.416116   -0.833358
     53          1           0        6.671494    1.351943   -1.818016
     54          1           0        9.028252    1.807491   -2.620776
     55          1           0       11.469443    1.415835   -2.376234
     56          1           0       12.311763   -0.071475   -0.568586
     57          1           0       10.703758   -1.175297    0.995833
     58          1           0        4.183879   -1.616699    0.464231
     59          1           0        1.457142   -2.633789    1.800089
     60          1           0        0.616513   -3.168378    0.321597
     61          1           0        2.382214   -3.060658    0.340898
     62          1           0       -1.345754   -1.957577    0.428207
     63          1           0       -7.831899   -2.641961    0.046902
 ---------------------------------------------------------------------

 SCF Done:  E(RB3LYP) =  -1777.49692621     A.U. after   15 cycles

 Excitation energies and oscillator strengths:

 Excited state symmetry could not be determined.
 Excited State   1:      Triplet-?Sym    2.1898 eV  566.18 nm  f=0.0000  <S**2>=2.000
     136 ->139        -0.18392
     136 ->140         0.21797
     138 ->139         0.56126
     138 ->140         0.23763
 This state for optimization and/or second-order correction.
 Total Energy, E(TD-HF/TD-DFT) =  -1777.41645177
 Copying the excited state density for this state as the 1-particle RhoCI density.

 Excited state symmetry could not be determined.
 Excited State   2:      Triplet-?Sym    2.3634 eV  524.60 nm  f=0.0000  <S**2>=2.000
     132 ->139        -0.10550
     134 ->139        -0.10834
     136 ->139         0.35900
     136 ->140         0.12657
     137 ->139        -0.10847
     138 ->139        -0.10938
     138 ->140         0.52022

 Excited state symmetry could not be determined.
 Excited State   3:      Singlet-?Sym    2.9093 eV  426.17 nm  f=0.0189  <S**2>=0.000
     137 ->139         0.68495
     138 ->139        -0.14993

 Excited state symmetry could not be determined.
 Excited State   4:      Singlet-?Sym    2.9718 eV  417.20 nm  f=1.0668  <S**2>=0.000
     137 ->139         0.15154
     138 ->139         0.68126

 Alpha  occ. eigenvalues --  -19.20970 -19.20629 -19.19675 -19.19451 -19.12926
 Alpha  occ. eigenvalues --  -19.12407 -14.37261 -10.31876 -10.31307 -10.26947
 Alpha  occ. eigenvalues --  -10.26928 -10.26893 -10.26615 -10.25384 -10.25164
 Alpha  occ. eigenvalues --  -10.22191 -10.21830 -10.21821 -10.21761 -10.21690
 Alpha  occ. eigenvalues --  -10.21318 -10.21230 -10.20838 -10.20785 -10.20740
 Alpha  occ. eigenvalues --  -10.20407 -10.20226 -10.20098 -10.20049 -10.19769
 Alpha  occ. eigenvalues --  -10.19446 -10.19401 -10.18727 -10.18561 -10.18507
 Alpha  occ. eigenvalues --  -10.18331 -10.18324 -10.18228 -10.17992 -10.17915
 Alpha  occ. eigenvalues --   -1.11192  -1.10778  -1.08339  -1.08047  -1.02444
 Alpha  occ. eigenvalues --   -1.01991  -0.98044  -0.87314  -0.86880  -0.85355
 Alpha  occ. eigenvalues --   -0.85060  -0.82644  -0.81826  -0.78763  -0.77127
 Alpha  occ. eigenvalues --   -0.76887  -0.76290  -0.75467  -0.74651  -0.74045
 Alpha  occ. eigenvalues --   -0.72138  -0.71738  -0.70109  -0.68725  -0.66295
 Alpha  occ. eigenvalues --   -0.64960  -0.64919  -0.64143  -0.62870  -0.61784
 Alpha  occ. eigenvalues --   -0.60557  -0.60170  -0.57795  -0.57509  -0.56335
 Alpha  occ. eigenvalues --   -0.55751  -0.54206  -0.52640  -0.52245  -0.51295
 Alpha  occ. eigenvalues --   -0.51100  -0.50516  -0.49756  -0.49451  -0.48730
 Alpha  occ. eigenvalues --   -0.48606  -0.47930  -0.47007  -0.46746  -0.46372
 Alpha  occ. eigenvalues --   -0.46080  -0.46008  -0.45671  -0.45433  -0.44930
 Alpha  occ. eigenvalues --   -0.44592  -0.43994  -0.43370  -0.43054  -0.42755
 Alpha  occ. eigenvalues --   -0.42539  -0.42141  -0.41979  -0.41660  -0.40518
 Alpha  occ. eigenvalues --   -0.40208  -0.39827  -0.39533  -0.39311  -0.38770
 Alpha  occ. eigenvalues --   -0.38509  -0.38015  -0.36668  -0.36488  -0.36176
 Alpha  occ. eigenvalues --   -0.35976  -0.35406  -0.35232  -0.34997  -0.34619
 Alpha  occ. eigenvalues --   -0.34321  -0.34298  -0.33610  -0.33401  -0.32430
 Alpha  occ. eigenvalues --   -0.31350  -0.30645  -0.28452  -0.27408  -0.27081
 Alpha  occ. eigenvalues --   -0.26629  -0.25205  -0.24711  -0.23891  -0.23430
 Alpha  occ. eigenvalues --   -0.21771  -0.19431  -0.19135
 Alpha virt. eigenvalues --   -0.06978  -0.05700  -0.02029  -0.00780  -0.00101
 Alpha virt. eigenvalues --    0.00550   0.01088   0.01811   0.03171   0.04095
 Alpha virt. eigenvalues --    0.08506   0.08678   0.09458   0.09504   0.09710

 Mulliken charges:
               1
     1  C   -0.219768
     2  O   -0.507687
     3  C    0.395153
     4  C   -0.264688
     5  C    0.331058
     6  O   -0.511143
     7  C   -0.218596
     8  C    0.064094
     9  C   -0.184189
    10  C   -0.022632
    11  C    0.106504
    12  C   -0.200160
    13  C   -0.202153
    14  C    0.067152
    15  C    0.067547
    16  C   -0.201751
    17  C   -0.199967
    18  C    0.103741
    19  C   -0.019405
    20  C   -0.202076
    21  C    0.140937
    22  C   -0.200510
    23  C   -0.132924
    24  C   -0.133887
    25  C   -0.169499
    26  C    0.309767
    27  O   -0.517412
    28  C    0.570784
    29  O   -0.461669
    30  C   -0.231623
    31  C    0.332201
    32  N   -0.637042
    33  C   -0.331739
    34  C    0.330660
    35  C   -0.233282
    36  C    0.566132
    37  O   -0.469581
    38  O   -0.526313
    39  C    0.315356
    40  C   -0.264586
    41  H    0.161590
    42  H    0.161565
    43  H    0.175341
    44  H    0.146550
    45  H    0.176489
    46  H    0.160587
    47  H    0.161246
    48  H    0.169229
    49  H    0.123784
    50  H    0.128173
    51  H    0.129584
    52  H    0.121750
    53  H    0.155405
    54  H    0.140207
    55  H    0.137804
    56  H    0.142229
    57  H    0.155795
    58  H    0.165169
    59  H    0.173602
    60  H    0.185213
    61  H    0.176257
    62  H    0.163447
    63  H    0.152175
 Sum of Mulliken charges =  -0.00000

 Dipole moment (field-independent basis, Debye):
    X=             -3.2262    Y=              3.8351    Z=             -1.1121  Tot=              5.1335
 Quadrupole moment (field-independent basis, Debye-Ang):
   XX=           -131.2117   YY=           -212.5655   ZZ=           -229.2732
   XY=              4.0228   XZ=            -28.0414   YZ=             -3.7054

 Normal termination of Gaussian 16 at Sat Nov  5 10:06:11 2022.
