 Gaussian 16, Revision B.01,
 Gaussian 16:  ES64L-G16RevB.01 20-Dec-2017

 -----------------------------
 #p b3lyp/6-31g(d) opt SCF=XQC
 -----------------------------

 ------------------------------
 Gaussian input prepared by ASE
 ------------------------------
 Symbolic Z-matrix:
 Charge =  0 Multiplicity = 1

 SCF Done:  E(RB3LYP) =  -1777.49012123     A.U. after   15 cycles
 SCF Done:  E(RB3LYP) =  -1777.49625732     A.U. after   12 cycles
 SCF Done:  E(RB3LYP) =  -1777.49676821     A.U. after   12 cycles
 SCF Done:  E(RB3LYP) =  -1777.49688075     A.U. after   11 cycles
 SCF Done:  E(RB3LYP) =  -1777.49690119     A.U. after   10 cycles
 SCF Done:  E(RB3LYP) =  -1777.49692669     A.U. after   10 cycles
 SCF Done:  E(RB3LYP) =  -1777.49693032     A.U. after    8 cycles
 SCF Done:  E(RB3LYP) =  -1777.49693118     A.U. after    7 cycles
 SCF Done:  E(RB3LYP) =  -1777.49693172     A.U. after    7 cycles
 SCF Done:  E(RB3LYP) =  -1777.49693212     A.U. after    7 cycles
 SCF Done:  E(RB3LYP) =  -1777.49693218     A.U. after    7 cycles
 Optimization completed.
    -- Stationary point found.

                         Standard orientation:
 ---------------------------------------------------------------------
 Center     Atomic      Atomic             Coordinates (Angstroms)
 Number     Number       Type             X           Y           Z
 ---------------------------------------------------------------------
      1          6           0      -10.566591   -1.879996   -0.340671
      2          8           0      -10.114612   -0.595025    0.069319
      3          6           0       -8.780222   -0.343705    0.052099
      4          6           0       -8.422584    0.955231    0.474744
      5          6           0       -7.088561    1.329387    0.499520
      6          8           0       -6.641835    2.552569    0.887886
      7          6           0       -7.595131    3.520659    1.306559
      8          6           0       -6.073049    0.414799    0.099884
      9          6           0       -4.677075    0.714635    0.090662
     10          6           0       -3.729921   -0.190707   -0.305849
     11          6           0       -2.289459    0.156234   -0.351147
     12          6           0       -1.906525    1.493020   -0.635184
     13          6           0       -0.576636    1.887895   -0.637158
     14          6           0        0.419954    0.943650   -0.361233
     15          6           0        1.859365    0.985934   -0.278235
     16          6           0        2.821148    1.993667   -0.417177
     17          6           0        4.163199    1.679762   -0.256483
     18          6           0        4.589844    0.360513    0.043734
     19          6           0        6.040307    0.078602    0.150394
     20          6           0        6.961399    0.748435   -0.602382
     21          6           0        8.374161    0.524750   -0.482236
     22          6           0        9.350563    1.203499   -1.237934
     23          6           0       10.698605    0.929302   -1.056835
     24          6           0       11.098047   -0.032741   -0.115443
     25          6           0       10.154235   -0.720267    0.641068
     26          6           0        8.801525   -0.436229    0.449705
     27          8           0        7.894467   -1.129168    1.195097
     28          6           0        6.516857   -0.953484    1.096897
     29          8           0        5.833306   -1.664063    1.797919
     30          6           0        3.634316   -0.654632    0.202829
     31          6           0        2.288186   -0.333714    0.031355
     32          7           0        1.177180   -1.162778    0.117190
     33          6           0        1.196149   -2.571012    0.456260
     34          6           0        0.036772   -0.399387   -0.101803
     35          6           0       -1.298736   -0.801377   -0.088388
     36          6           0       -4.167524   -1.540201   -0.695443
     37          8           0       -3.471959   -2.474419   -1.025446
     38          8           0       -5.546922   -1.779773   -0.686434
     39          6           0       -6.476552   -0.863525   -0.307646
     40          6           0       -7.813725   -1.266999   -0.342634
     41          1           0      -10.292865   -2.085751   -1.382920
     42          1           0      -10.162365   -2.669998    0.304351
     43          1           0      -11.653435   -1.855388   -0.248035
     44          1           0       -9.219175    1.625571    0.769624
     45          1           0       -7.019510    4.408792    1.571537
     46          1           0       -8.295374    3.765379    0.498250
     47          1           0       -8.156779    3.173187    2.182508
     48          1           0       -4.371824    1.699044    0.427426
     49          1           0       -2.672541    2.220048   -0.886027
     50          1           0       -0.314666    2.918128   -0.863939
     51          1           0        2.522793    3.016558   -0.631547
     52          1           0        4.902429    2.471827   -0.325211
     53          1           0        6.623627    1.474466   -1.337222
     54          1           0        9.030036    1.946757   -1.963633
     55          1           0       11.444686    1.458026   -1.642366
     56          1           0       12.153714   -0.246219    0.025571
     57          1           0       10.438708   -1.469723    1.372160
     58          1           0        3.947829   -1.655467    0.466480
     59          1           0        1.130263   -2.734118    1.539752
     60          1           0        0.357242   -3.075041   -0.030150
     61          1           0        2.121459   -3.022553    0.090081
     62          1           0       -1.578547   -1.826081    0.113789
     63          1           0       -8.049552   -2.270968   -0.668532
 ---------------------------------------------------------------------

 The electronic state is 1-A.
 Alpha  occ. eigenvalues --  -19.20970 -19.20629 -19.19675 -19.19451 -19.12926
 Alpha  occ. eigenvalues --  -19.12407 -14.37261 -10.31876 -10.31307 -10.26947
 Alpha  occ. eigenvalues --  -10.26928 -10.26893 -10.26615 -10.25384 -10.25164
 Alpha  occ. eigenvalues --  -10.22191 -10.21830 -10.21821 -10.21761 -10.21690
 Alpha  occ. eigenvalues --  -10.21318 -10.21230 -10.20838 -10.20785 -10.20740
 Alpha  occ. eigenvalues --  -10.20407 -10.20226 -10.20098 -10.20049 -10.19769
 Alpha  occ. eigenvalues --  -10.19446 -10.19401 -10.18727 -10.18562 -10.18507
 Alpha  occ. eigenvalues --  -10.18331 -10.18324 -10.18228 -10.17992 -10.17915
 Alpha  occ. eigenvalues --   -1.11192  -1.10778  -1.08339  -1.08047  -1.02444
 Alpha  occ. eigenvalues --   -1.01991  -0.98044  -0.87314  -0.86880  -0.85355
 Alpha  occ. eigenvalues --   -0.85060  -0.82644  -0.81826  -0.78763  -0.77127
 Alpha  occ. eigenvalues --   -0.76887  -0.76290  -0.75467  -0.74651  -0.74045
 Alpha  occ. eigenvalues --   -0.72138  -0.71738  -0.70109  -0.68725  -0.66295
 Alpha  occ. eigenvalues --   -0.64960  -0.64919  -0.64143  -0.62870  -0.61784
 Alpha  occ. eigenvalues --   -0.60557  -0.60170  -0.57795  -0.57509  -0.56335
 Alpha  occ. eigenvalues --   -0.55751  -0.54206  -0.52640  -0.52245  -0.51295
 Alpha  occ. eigenvalues --   -0.51100  -0.50516  -0.49756  -0.49451  -0.48730
 Alpha  occ. eigenvalues --   -0.48606  -0.47930  -0.47007  -0.46746  -0.46372
 Alpha  occ. eigenvalues --   -0.46080  -0.46008  -0.45671  -0.45433  -0.44930
 Alpha  occ. eigenvalues --   -0.44592  -0.43994  -0.43370  -0.43054  -0.42755
 Alpha  occ. eigenvalues --   -0.42539  -0.42141  -0.41979  -0.41660  -0.40518
 Alpha  occ. eigenvalues --   -0.40208  -0.39827  -0.39533  -0.39311  -0.38770
 Alpha  occ. eigenvalues --   -0.38509  -0.38015  -0.36668  -0.36488  -0.36176
 Alpha  occ. eigenvalues --   -0.35976  -0.35406  -0.35232  -0.34997  -0.34619
 Alpha  occ. eigenvalues --   -0.34321  -0.34298  -0.33610  -0.33401  -0.32430
 Alpha  occ. eigenvalues --   -0.31350  -0.30645  -0.28452  -0.27408  -0.27081
 Alpha  occ. eigenvalues --   -0.26629  -0.25205  -0.24711  -0.23891  -0.23430
 Alpha  occ. eigenvalues --   -0.21771  -0.19431  -0.19135
 Alpha virt. eigenvalues --   -0.06978  -0.05700  -0.02029  -0.00780  -0.00101
 Alpha virt. eigenvalues --    0.00550   0.01088   0.01811   0.03171   0.04095
 Alpha virt. eigenvalues --    0.08506   0.08678   0.09458   0.09504   0.09710

 Mulliken charges:
               1
     1  C   -0.219768
     2  O   -0.507683
     3  C    0.395148
     4  C   -0.264698
     5  C    0.331061
     6  O   -0.511145
     7  C   -0.218595
     8  C    0.064108
     9  C   -0.184201
    10  C   -0.022644
    11  C    0.106509
    12  C   -0.200149
    13  C   -0.202156
    14  C    0.067134
    15  C    0.067554
    16  C   -0.201751
    17  C   -0.199967
    18  C    0.103739
    19  C   -0.019396
    20  C   -0.202097
    21  C    0.140952
    22  C   -0.200507
    23  C   -0.132921
    24  C   -0.133890
    25  C   -0.169500
    26  C    0.309757
    27  O   -0.517407
    28  C    0.570786
    29  O   -0.461671
    30  C   -0.231617
    31  C    0.332176
    32  N   -0.637019
    33  C   -0.331734
    34  C    0.330669
    35  C   -0.233288
    36  C    0.566136
    37  O   -0.469583
    38  O   -0.526316
    39  C    0.315363
    40  C   -0.264585
    41  H    0.161589
    42  H    0.161565
    43  H    0.175341
    44  H    0.146551
    45  H    0.176489
    46  H    0.160587
    47  H    0.161247
    48  H    0.169231
    49  H    0.123785
    50  H    0.128173
    51  H    0.129585
    52  H    0.121750
    53  H    0.155405
    54  H    0.140207
    55  H    0.137804
    56  H    0.142229
    57  H    0.155795
    58  H    0.165169
    59  H    0.173602
    60  H    0.185211
    61  H    0.176256
    62  H    0.163446
    63  H    0.152176
 Sum of Mulliken charges =  -0.00000

 Dipole moment (field-independent basis, Debye):
    X=             -3.0700    Y=              4.0293    Z=             -0.8322  Tot=              5.1335
 Quadrupole moment (field-independent basis, Debye-Ang):
   XX=           -127.3320   YY=           -211.2851   ZZ=           -232.3621
   XY=              3.7122   XZ=            -22.1298   YZ=             -0.8981

 Normal termination of Gaussian 16 at Fri Nov  4 23:27:33 2022.
