 Gaussian 16, Revision B.01,
 Gaussian 16:  ES64L-G16RevB.01 20-Dec-2017

 -----------------------------
 #p b3lyp/6-31g(d) opt SCF=XQC
 -----------------------------

 ------------------------------
 Gaussian input prepared by ASE
 ------------------------------
 Symbolic Z-matrix:
 Charge =  0 Multiplicity = 1

 SCF Done:  E(RB3LYP) =  -3632.46523696     A.U. after   15 cycles
 SCF Done:  E(RB3LYP) =  -3632.48099225     A.U. after   13 cycles
 SCF Done:  E(RB3LYP) =  -3632.48174331     A.U. after   11 cycles
 SCF Done:  E(RB3LYP) =  -3632.48202083     A.U. after   11 cycles
 SCF Done:  E(RB3LYP) =  -3632.48211228     A.U. after   10 cycles
 SCF Done:  E(RB3LYP) =  -3632.48216766     A.U. after   11 cycles
 SCF Done:  E(RB3LYP) =  -3632.48220219     A.U. after   11 cycles
 SCF Done:  E(RB3LYP) =  -3632.48222492     A.U. after   10 cycles
 SCF Done:  E(RB3LYP) =  -3632.48225686     A.U. after   11 cycles
 SCF Done:  E(RB3LYP) =  -3632.48228364     A.U. after   12 cycles
 SCF Done:  E(RB3LYP) =  -3632.48232365     A.U. after   11 cycles
 SCF Done:  E(RB3LYP) =  -3632.48232673     A.U. after    8 cycles
 SCF Done:  E(RB3LYP) =  -3632.48233068     A.U. after   10 cycles
 SCF Done:  E(RB3LYP) =  -3632.48233300     A.U. after    9 cycles
 SCF Done:  E(RB3LYP) =  -3632.48233562     A.U. after    9 cycles
 SCF Done:  E(RB3LYP) =  -3632.48233911     A.U. after   11 cycles
 SCF Done:  E(RB3LYP) =  -3632.48233957     A.U. after    9 cycles
 SCF Done:  E(RB3LYP) =  -3632.48233961     A.U. after    7 cycles
 SCF Done:  E(RB3LYP) =  -3632.48233963     A.U. after    7 cycles
 SCF Done:  E(RB3LYP) =  -3632.48233963     A.U. after    6 cycles
 Optimization completed on the basis of negligible forces.
    -- Stationary point found.

                         Standard orientation:
 ---------------------------------------------------------------------
 Center     Atomic      Atomic             Coordinates (Angstroms)
 Number     Number       Type             X           Y           Z
 ---------------------------------------------------------------------
      1          9           0       10.614124    6.622714    0.539892
      2          6           0       11.645808    5.748839    0.587205
      3          9           0       12.339402    6.001620    1.720549
      4          9           0       12.465050    6.059748   -0.447074
      5          6           0       11.177230    4.323072    0.521085
      6          6           0       10.021825    3.996622   -0.193781
      7          6           0        9.621353    2.668672   -0.302944
      8          6           0       10.357493    1.633333    0.300196
      9          6           0        9.922289    0.219391    0.186734
     10          6           0       10.876417   -0.816296    0.051356
     11          6           0       10.511351   -2.153011   -0.063650
     12          6           0        9.149195   -2.463693   -0.043969
     13          6           0        8.168286   -1.450409    0.105382
     14          6           0        8.562086   -0.115638    0.215146
     15          6           0        6.880122   -2.114216    0.122680
     16          6           0        5.565751   -1.656896    0.237667
     17          6           0        4.499884   -2.565812    0.204972
     18          6           0        3.095958   -2.099082    0.317744
     19          6           0        2.124584   -2.882705    1.020789
     20          6           0        0.827621   -2.467920    1.140255
     21          6           0        0.376329   -1.233958    0.569918
     22          6           0       -0.958365   -0.796385    0.695285
     23          6           0       -1.957333   -1.637439    1.429664
     24          6           0       -2.649374   -2.665079    0.770847
     25          6           0       -3.582053   -3.448509    1.452668
     26          6           0       -3.837888   -3.216289    2.805326
     27          6           0       -3.155391   -2.197028    3.471783
     28          6           0       -2.222699   -1.414269    2.789188
     29          6           0       -1.354027    0.433224    0.120811
     30          6           0       -2.696731    0.911449    0.223645
     31          6           0       -3.106321    2.102986   -0.336119
     32          6           0       -4.509990    2.569858   -0.220806
     33          6           0       -4.798634    3.947095   -0.067875
     34          6           0       -6.097766    4.429075    0.050584
     35          6           0       -7.144109    3.504755    0.007840
     36          6           0       -6.889946    2.117831   -0.133506
     37          6           0       -5.575810    1.660879   -0.252401
     38          6           0       -8.178242    1.454270   -0.119137
     39          6           0       -8.572129    0.119435   -0.228282
     40          6           0       -9.931445   -0.217119   -0.183270
     41          6           0      -10.366251   -1.631441   -0.292742
     42          6           0       -9.705157   -2.529447   -1.149727
     43          6           0      -10.106538   -3.857684   -1.251211
     44          6           0      -11.189594   -4.321265   -0.499577
     45          6           0      -11.589324   -5.767886   -0.564553
     46          9           0      -10.919924   -6.517925    0.345001
     47          9           0      -12.907331   -5.940652   -0.314355
     48          9           0      -11.332408   -6.309599   -1.777112
     49          6           0      -11.862867   -3.443719    0.354111
     50          6           0      -11.453311   -2.117687    0.455052
     51          6           0      -10.885054    0.817390   -0.034824
     52          6           0      -10.520131    2.154552    0.074788
     53          6           0       -9.158457    2.466382    0.041918
     54          7           0       -8.524362    3.709011    0.115781
     55          6           0       -9.170859    4.966459    0.270893
     56          6           0      -10.021609    5.188386    1.360886
     57          6           0      -10.661345    6.419533    1.503392
     58          6           0      -10.442605    7.439376    0.575176
     59          6           0       -9.586094    7.219586   -0.505444
     60          6           0       -8.957566    5.984995   -0.666261
     61          6           0       -2.136045    2.885539   -1.041803
     62          6           0       -0.839127    2.470741   -1.162454
     63          6           0       -0.386681    1.237762   -0.590744
     64          6           0        0.948244    0.800275   -0.715777
     65          6           0        1.946459    1.642202   -1.450061
     66          6           0        2.231109    1.402894   -2.802990
     67          6           0        3.160346    2.188889   -3.486524
     68          6           0        3.820102    3.227874   -2.827574
     69          6           0        3.545751    3.475785   -1.481319
     70          6           0        2.616691    2.688832   -0.798580
     71          6           0        1.344053   -0.429256   -0.141035
     72          6           0        2.687075   -0.907113   -0.241738
     73          6           0        4.788752   -3.943251    0.053974
     74          6           0        6.088085   -4.425571   -0.060490
     75          6           0        7.134481   -3.501440   -0.015240
     76          7           0        8.514981   -3.706364   -0.117486
     77          6           0        9.162097   -4.964973   -0.260186
     78          6           0       10.019245   -5.194183   -1.343634
     79          6           0       10.659922   -6.426190   -1.474065
     80          6           0       10.435686   -7.439787   -0.540341
     81          6           0        9.572697   -7.212831    0.533639
     82          6           0        8.943182   -5.977241    0.682457
     83          6           0       11.515163    1.983032    1.017915
     84          6           0       11.923816    3.308717    1.126125
     85          1           0        9.439829    4.780998   -0.666922
     86          1           0        8.736114    2.425969   -0.883206
     87          1           0       11.930479   -0.558250    0.008517
     88          1           0       11.265237   -2.925899   -0.169523
     89          1           0        7.814938    0.660565    0.355061
     90          1           0        5.367425   -0.597602    0.373631
     91          1           0        2.435310   -3.809915    1.493705
     92          1           0        0.117656   -3.075037    1.691146
     93          1           0       -2.451439   -2.847234   -0.282204
     94          1           0       -4.108774   -4.240423    0.926386
     95          1           0       -4.564482   -3.825469    3.336287
     96          1           0       -3.348282   -2.009627    4.524887
     97          1           0       -1.692860   -0.621110    3.309974
     98          1           0       -3.406634    0.317713    0.788092
     99          1           0       -3.975575    4.653300   -0.010912
    100          1           0       -6.285525    5.489117    0.185502
    101          1           0       -5.377497    0.601684   -0.389159
    102          1           0       -7.822534   -0.661295   -0.322546
    103          1           0       -8.884337   -2.173525   -1.765159
    104          1           0       -9.591979   -4.531104   -1.929107
    105          1           0      -12.703860   -3.799403    0.940599
    106          1           0      -11.969498   -1.453167    1.141510
    107          1           0      -11.941020    0.563576   -0.037588
    108          1           0      -11.274336    2.928837    0.167950
    109          1           0      -10.166654    4.400699    2.093702
    110          1           0      -11.321383    6.585025    2.350410
    111          1           0      -10.936396    8.399677    0.693335
    112          1           0       -9.415321    8.006308   -1.235079
    113          1           0       -8.310809    5.799322   -1.518128
    114          1           0       -2.447534    3.812092   -1.515566
    115          1           0       -0.130303    3.077345   -1.715355
    116          1           0        1.718213    0.595091   -3.318169
    117          1           0        3.367523    1.989302   -4.534672
    118          1           0        4.542497    3.840821   -3.360115
    119          1           0        4.054202    4.283156   -0.960493
    120          1           0        2.404246    2.883488    0.249349
    121          1           0        3.398111   -0.312639   -0.803978
    122          1           0        3.965797   -4.649447   -0.004369
    123          1           0        6.276083   -5.485809   -0.193575
    124          1           0       10.168587   -4.411458   -2.080916
    125          1           0       11.325016   -6.597264   -2.315998
    126          1           0       10.930178   -8.400839   -0.649123
    127          1           0        9.397525   -7.994695    1.267446
    128          1           0        8.291198   -5.785987    1.529088
    129          1           0       12.085844    1.208658    1.521778
    130          1           0       12.812425    3.559169    1.696529
 ---------------------------------------------------------------------

 The electronic state is 1-A.
 Alpha  occ. eigenvalues --  -24.71792 -24.71779 -24.71779 -24.71771 -24.71141
 Alpha  occ. eigenvalues --  -24.71127 -14.38986 -14.38974 -10.42550 -10.42538
 Alpha  occ. eigenvalues --  -10.24565 -10.24554 -10.23197 -10.23186 -10.22982
 Alpha  occ. eigenvalues --  -10.22972 -10.21000 -10.20985 -10.20982 -10.20970
 Alpha  occ. eigenvalues --  -10.20678 -10.20668 -10.20667 -10.20659 -10.20619
 Alpha  occ. eigenvalues --  -10.20608 -10.20607 -10.20598 -10.20423 -10.20414
 Alpha  occ. eigenvalues --  -10.20380 -10.20368 -10.20368 -10.20357 -10.19976
 Alpha  occ. eigenvalues --  -10.19964 -10.19843 -10.19825 -10.19823 -10.19821
 Alpha  occ. eigenvalues --  -10.19810 -10.19751 -10.19714 -10.19698 -10.19663
 Alpha  occ. eigenvalues --  -10.19654 -10.19644 -10.19642 -10.19625 -10.19609
 Alpha  occ. eigenvalues --  -10.19607 -10.19594 -10.19559 -10.19553 -10.19551
 Alpha  occ. eigenvalues --  -10.19549 -10.19542 -10.19530 -10.19496 -10.19491
 Alpha  occ. eigenvalues --  -10.19382 -10.19374 -10.19368 -10.19359 -10.19202
 Alpha  occ. eigenvalues --  -10.19177 -10.19170 -10.19168 -10.19166 -10.19159
 Alpha  occ. eigenvalues --  -10.19118 -10.19092 -10.19063 -10.19039 -10.19016
 Alpha  occ. eigenvalues --  -10.19000 -10.18962 -10.18931 -10.18607 -10.18595
 Alpha  occ. eigenvalues --  -10.18438 -10.18425 -10.18192 -10.18187  -1.29281
 Alpha  occ. eigenvalues --   -1.29269  -1.20793  -1.20781  -1.20244  -1.20232
 Alpha  occ. eigenvalues --   -0.99691  -0.99680  -0.88457  -0.87901  -0.87877
 Alpha  occ. eigenvalues --   -0.87316  -0.87290  -0.85971  -0.85804  -0.85533
 Alpha  occ. eigenvalues --   -0.84969  -0.84959  -0.84638  -0.83841  -0.81035
 Alpha  occ. eigenvalues --   -0.80199  -0.79919  -0.79768  -0.78572  -0.78092
 Alpha  occ. eigenvalues --   -0.76554  -0.76352  -0.76173  -0.76154  -0.75845
 Alpha  occ. eigenvalues --   -0.75758  -0.75565  -0.75509  -0.74682  -0.74432
 Alpha  occ. eigenvalues --   -0.74339  -0.74093  -0.73842  -0.73497  -0.72369
 Alpha  occ. eigenvalues --   -0.72359  -0.71945  -0.71152  -0.69021  -0.68703
 Alpha  occ. eigenvalues --   -0.68584  -0.66188  -0.65353  -0.64239  -0.63256
 Alpha  occ. eigenvalues --   -0.63154  -0.63021  -0.62795  -0.62257  -0.62128
 Alpha  occ. eigenvalues --   -0.62074  -0.61644  -0.61522  -0.60948  -0.60409
 Alpha  occ. eigenvalues --   -0.60316  -0.59998  -0.59387  -0.58691  -0.58389
 Alpha  occ. eigenvalues --   -0.58222  -0.58057  -0.57609  -0.57561  -0.57110
 Alpha  occ. eigenvalues --   -0.57097  -0.56787  -0.56751  -0.56043  -0.56017
 Alpha  occ. eigenvalues --   -0.55984  -0.54439  -0.54414  -0.53765  -0.52637
 Alpha  occ. eigenvalues --   -0.52287  -0.52154  -0.52038  -0.51402  -0.51184
 Alpha  occ. eigenvalues --   -0.50566  -0.50226  -0.49782  -0.48426  -0.47829
 Alpha  occ. eigenvalues --   -0.47578  -0.47571  -0.47462  -0.47347  -0.46408
 Alpha  occ. eigenvalues --   -0.46240  -0.46102  -0.46073  -0.46037  -0.45753
 Alpha  occ. eigenvalues --   -0.45627  -0.45182  -0.45131  -0.44932  -0.44878
 Alpha  occ. eigenvalues --   -0.44726  -0.44684  -0.44564  -0.44537  -0.44423
 Alpha  occ. eigenvalues --   -0.44369  -0.44154  -0.44089  -0.43826  -0.43809
 Alpha  occ. eigenvalues --   -0.43616  -0.43366  -0.43310  -0.43094  -0.43005
 Alpha  occ. eigenvalues --   -0.42719  -0.42654  -0.42499  -0.42382  -0.42312
 Alpha  occ. eigenvalues --   -0.42029  -0.41985  -0.41893  -0.41780  -0.41723
 Alpha  occ. eigenvalues --   -0.41362  -0.41261  -0.41249  -0.40826  -0.40502
 Alpha  occ. eigenvalues --   -0.40498  -0.40317  -0.39398  -0.38973  -0.38960
 Alpha  occ. eigenvalues --   -0.38837  -0.38619  -0.38184  -0.38097  -0.37811
 Alpha  occ. eigenvalues --   -0.37701  -0.37602  -0.37468  -0.37350  -0.37312
 Alpha  occ. eigenvalues --   -0.36892  -0.36659  -0.36364  -0.36287  -0.36213
 Alpha  occ. eigenvalues --   -0.36134  -0.35974  -0.35732  -0.35697  -0.35496
 Alpha  occ. eigenvalues --   -0.35189  -0.35121  -0.34987  -0.34652  -0.34555
 Alpha  occ. eigenvalues --   -0.34403  -0.34341  -0.34221  -0.34114  -0.33674
 Alpha  occ. eigenvalues --   -0.33364  -0.33081  -0.32936  -0.32691  -0.30949
 Alpha  occ. eigenvalues --   -0.30029  -0.28921  -0.28696  -0.28650  -0.27590
 Alpha  occ. eigenvalues --   -0.27384  -0.26712  -0.26673  -0.26597  -0.26422
 Alpha  occ. eigenvalues --   -0.26136  -0.26123  -0.25630  -0.25195  -0.24908
 Alpha  occ. eigenvalues --   -0.24810  -0.24720  -0.24575  -0.23937  -0.23345
 Alpha  occ. eigenvalues --   -0.21649  -0.21528  -0.20215  -0.19906  -0.18036
 Alpha virt. eigenvalues --   -0.06334  -0.03759  -0.03740  -0.03357  -0.03317
 Alpha virt. eigenvalues --   -0.02641  -0.02137  -0.01747  -0.01747  -0.01608
 Alpha virt. eigenvalues --   -0.01137  -0.01125  -0.00748  -0.00381  -0.00240

 Mulliken charges:
               1
     1  F   -0.272565
     2  C    0.780252
     3  F   -0.271973
     4  F   -0.263343
     5  C   -0.004765
     6  C   -0.166903
     7  C   -0.180321
     8  C    0.100007
     9  C    0.081596
    10  C   -0.192757
    11  C   -0.177136
    12  C    0.320058
    13  C    0.063068
    14  C   -0.256019
    15  C    0.064070
    16  C   -0.253778
    17  C    0.081887
    18  C    0.104314
    19  C   -0.180160
    20  C   -0.206502
    21  C    0.105832
    22  C   -0.081314
    23  C    0.004985
    24  C   -0.148876
    25  C   -0.134206
    26  C   -0.126293
    27  C   -0.132030
    28  C   -0.146929
    29  C    0.117262
    30  C   -0.282797
    31  C    0.103847
    32  C    0.081989
    33  C   -0.194024
    34  C   -0.178799
    35  C    0.318500
    36  C    0.064322
    37  C   -0.253841
    38  C    0.062852
    39  C   -0.255808
    40  C    0.081537
    41  C    0.100312
    42  C   -0.180019
    43  C   -0.167297
    44  C   -0.004985
    45  C    0.780298
    46  F   -0.263687
    47  F   -0.272209
    48  F   -0.272040
    49  C   -0.166901
    50  C   -0.182123
    51  C   -0.193142
    52  C   -0.177603
    53  C    0.320615
    54  N   -0.739113
    55  C    0.260090
    56  C   -0.148646
    57  C   -0.142568
    58  C   -0.120439
    59  C   -0.142591
    60  C   -0.148132
    61  C   -0.180151
    62  C   -0.206670
    63  C    0.106049
    64  C   -0.081407
    65  C    0.005463
    66  C   -0.146927
    67  C   -0.132043
    68  C   -0.127281
    69  C   -0.134750
    70  C   -0.148703
    71  C    0.117704
    72  C   -0.282682
    73  C   -0.194094
    74  C   -0.178837
    75  C    0.318449
    76  N   -0.739277
    77  C    0.260396
    78  C   -0.148976
    79  C   -0.142605
    80  C   -0.120479
    81  C   -0.142647
    82  C   -0.148068
    83  C   -0.182447
    84  C   -0.166923
    85  H    0.151014
    86  H    0.141306
    87  H    0.133298
    88  H    0.144192
    89  H    0.139877
    90  H    0.140349
    91  H    0.129443
    92  H    0.146939
    93  H    0.136644
    94  H    0.132381
    95  H    0.132379
    96  H    0.132794
    97  H    0.138222
    98  H    0.148679
    99  H    0.133820
   100  H    0.142963
   101  H    0.139997
   102  H    0.139844
   103  H    0.140960
   104  H    0.152150
   105  H    0.151991
   106  H    0.138915
   107  H    0.133563
   108  H    0.144509
   109  H    0.152814
   110  H    0.140626
   111  H    0.137725
   112  H    0.140880
   113  H    0.153587
   114  H    0.129241
   115  H    0.146536
   116  H    0.138555
   117  H    0.132827
   118  H    0.130318
   119  H    0.131925
   120  H    0.137961
   121  H    0.147428
   122  H    0.133820
   123  H    0.142970
   124  H    0.153083
   125  H    0.140766
   126  H    0.137695
   127  H    0.140856
   128  H    0.153715
   129  H    0.140009
   130  H    0.152278
 Sum of Mulliken charges =  -0.00000

 Dipole moment (field-independent basis, Debye):
    X=             -0.1695    Y=             -0.0054    Z=              0.0505  Tot=              0.1770
 Quadrupole moment (field-independent basis, Debye-Ang):
   XX=           -455.4687   YY=           -446.4008   ZZ=           -461.9234
   XY=           -119.0360   XZ=            -21.8921   YZ=             -5.2795

 Normal termination of Gaussian 16 at Sat Nov  5 01:36:07 2022.
