 Gaussian 16, Revision B.01,
 Gaussian 16:  ES64L-G16RevB.01 20-Dec-2017

 -------------------------------------------------------------------
 #p b3lyp/6-31g(d) 6D 10F nosymm GFInput td=(50-50,nstate=2) SCF=XQC
 -------------------------------------------------------------------

 ------------------------------
 Gaussian input prepared by ASE
 ------------------------------
 Symbolic Z-matrix:
 Charge =  0 Multiplicity = 1

                          Input orientation:
 ---------------------------------------------------------------------
 Center     Atomic      Atomic             Coordinates (Angstroms)
 Number     Number       Type             X           Y           Z
 ---------------------------------------------------------------------
      1          9           0      -10.212727    7.245145    0.237198
      2          6           0      -11.296035    6.434769    0.237220
      3          9           0      -12.041455    6.754624   -0.845131
      4          9           0      -12.030051    6.768713    1.326834
      5          6           0      -10.910846    4.982766    0.245339
      6          6           0       -9.735448    4.572157    0.879691
      7          6           0       -9.409589    3.220759    0.936983
      8          6           0      -10.242283    2.245032    0.360627
      9          6           0       -9.886726    0.805671    0.418314
     10          6           0      -10.891277   -0.175074    0.592537
     11          6           0      -10.600861   -1.533278    0.657704
     12          6           0       -9.263630   -1.922912    0.546452
     13          6           0       -8.234602   -0.965769    0.356161
     14          6           0       -8.553440    0.392059    0.297987
     15          6           0       -6.992172   -1.703528    0.244874
     16          6           0       -5.662229   -1.321641    0.056860
     17          6           0       -4.652941   -2.292137    0.004499
     18          6           0       -3.233073   -1.906173   -0.186732
     19          6           0       -2.355570   -2.728661   -0.964811
     20          6           0       -1.045803   -2.388093   -1.157053
     21          6           0       -0.486977   -1.196629   -0.591602
     22          6           0        0.861388   -0.835396   -0.791643
     23          6           0        1.761006   -1.716080   -1.603865
     24          6           0        2.429160   -2.797915   -1.010392
     25          6           0        3.269426   -3.618440   -1.764862
     26          6           0        3.455221   -3.369703   -3.125991
     27          6           0        2.795605   -2.296610   -3.727853
     28          6           0        1.955333   -1.476773   -2.972622
     29          6           0        1.364783    0.354895   -0.218662
     30          6           0        2.724956    0.755695   -0.395909
     31          6           0        3.239034    1.907520    0.160760
     32          6           0        4.658498    2.293701   -0.032989
     33          6           0        5.019482    3.654831   -0.176178
     34          6           0        6.335512    4.062307   -0.366209
     35          6           0        7.325039    3.077347   -0.407625
     36          6           0        6.997115    1.704797   -0.278352
     37          6           0        5.667670    1.323171   -0.086445
     38          6           0        8.239872    0.967206   -0.386720
     39          6           0        8.558755   -0.390676   -0.329170
     40          6           0        9.890045   -0.805364   -0.466036
     41          6           0       10.244938   -2.244987   -0.412313
     42          6           0        9.584921   -3.122627    0.466329
     43          6           0        9.911197   -4.474183    0.515897
     44          6           0       10.916227   -4.982685   -0.311276
     45          6           0       11.231498   -6.451427   -0.300397
     46          9           0       10.463636   -7.139095   -1.180990
     47          9           0       12.518882   -6.695373   -0.636143
     48          9           0       11.017417   -7.005655    0.914822
     49          6           0       11.587349   -4.126258   -1.187799
     50          6           0       11.252829   -2.776434   -1.236357
     51          6           0       10.893206    0.174544   -0.653288
     52          6           0       10.603291    1.533058   -0.713074
     53          6           0        9.267419    1.923499   -0.588669
     54          7           0        8.705839    3.202640   -0.597795
     55          6           0        9.416017    4.423245   -0.767990
     56          6           0       10.210036    4.620534   -1.904530
     57          6           0       10.912670    5.814989   -2.062248
     58          6           0       10.813044    6.823666   -1.101959
     59          6           0       10.012838    6.629071    0.025633
     60          6           0        9.322288    5.430087    0.200851
     61          6           0        2.362723    2.728814    0.941382
     62          6           0        1.053073    2.388202    1.134803
     63          6           0        0.493072    1.197819    0.568073
     64          6           0       -0.855539    0.836694    0.767797
     65          6           0       -1.754361    1.718207    1.579894
     66          6           0       -1.969274    1.464084    2.942958
     67          6           0       -2.805852    2.286924    3.698974
     68          6           0       -3.441164    3.378188    3.103571
     69          6           0       -3.235585    3.641345    1.747984
     70          6           0       -2.399193    2.817539    0.992754
     71          6           0       -1.359091   -0.353505    0.194560
     72          6           0       -2.719691   -0.753867    0.369707
     73          6           0       -5.014279   -3.653409    0.145769
     74          6           0       -6.330774   -4.061118    0.331820
     75          6           0       -7.320520   -3.076284    0.370735
     76          7           0       -8.701956   -3.202095    0.555224
     77          6           0       -9.413582   -4.423528    0.713050
     78          6           0      -10.214815   -4.627554    1.843315
     79          6           0      -10.919180   -5.822527    1.989026
     80          6           0      -10.814041   -6.825164    1.023021
     81          6           0      -10.006543   -6.623954   -0.098208
     82          6           0       -9.314212   -5.424315   -0.261494
     83          6           0      -11.418715    2.679043   -0.275965
     84          6           0      -11.752802    4.028641   -0.331839
     85          1           0       -9.079398    5.309559    1.330982
     86          1           0       -8.506587    2.912790    1.455635
     87          1           0      -11.923295    0.143379    0.706526
     88          1           0      -11.391922   -2.262819    0.795178
     89          1           0       -7.770982    1.126111    0.127032
     90          1           0       -5.409302   -0.272910   -0.070087
     91          1           0       -2.749926   -3.624557   -1.435739
     92          1           0       -0.408789   -3.022671   -1.763392
     93          1           0        2.285663   -2.992999    0.049149
     94          1           0        3.778903   -4.452171   -1.288564
     95          1           0        4.109903   -4.007788   -3.713526
     96          1           0        2.934387   -2.095994   -4.787025
     97          1           0        1.443161   -0.641746   -3.443216
     98          1           0        3.361881    0.134796   -1.015503
     99          1           0        4.238427    4.409330   -0.167306
    100          1           0        6.578020    5.112380   -0.491433
    101          1           0        5.414810    0.274519    0.041295
    102          1           0        7.770784   -1.128021   -0.203704
    103          1           0        8.826323   -2.733753    1.139002
    104          1           0        9.399680   -5.132059    1.211136
    105          1           0       12.367838   -4.516764   -1.832851
    106          1           0       11.764908   -2.127333   -1.940419
    107          1           0       11.930177   -0.140876   -0.721809
    108          1           0       11.395535    2.263675   -0.837858
    109          1           0       10.262194    3.843251   -2.660585
    110          1           0       11.528208    5.961411   -2.945509
    111          1           0       11.355486    7.755819   -1.231642
    112          1           0        9.934794    7.406977    0.780107
    113          1           0        8.719066    5.262629    1.087714
    114          1           0        2.757852    3.623988    1.413093
    115          1           0        0.417288    3.022153    1.743065
    116          1           0       -1.475207    0.615570    3.408727
    117          1           0       -2.959904    2.075104    4.753853
    118          1           0       -4.091339    4.019749    3.692494
    119          1           0       -3.725596    4.489299    1.276293
    120          1           0       -2.240174    3.024123   -0.062336
    121          1           0       -3.357836   -0.132114    0.987185
    122          1           0       -4.233241   -4.407926    0.138281
    123          1           0       -6.573645   -5.111329    0.455227
    124          1           0      -10.271278   -3.855077    2.603996
    125          1           0      -11.540403   -5.974103    2.867419
    126          1           0      -11.357802   -7.757802    1.143376
    127          1           0       -9.924079   -7.397172   -0.857024
    128          1           0       -8.705125   -5.251718   -1.143350
    129          1           0      -12.064776    1.951686   -0.758422
    130          1           0      -12.658090    4.344307   -0.840289
 ---------------------------------------------------------------------

 SCF Done:  E(RB3LYP) =  -3632.48231946     A.U. after   15 cycles

 Excitation energies and oscillator strengths:

 Excited state symmetry could not be determined.
 Excited State   1:      Triplet-?Sym    1.6499 eV  751.48 nm  f=0.0000  <S**2>=2.000
     283 -> 286        0.22561
     285 -> 286        0.65175
     285 <- 286        0.11794
 This state for optimization and/or second-order correction.
 Total Energy, E(TD-HF/TD-DFT) =  -3632.42168800
 Copying the excited state density for this state as the 1-particle RhoCI density.

 Excited state symmetry could not be determined.
 Excited State   2:      Singlet-?Sym    2.8413 eV  436.36 nm  f=0.2601  <S**2>=0.000
     285 -> 286        0.70052

 Excited state symmetry could not be determined.
 Excited State   3:      Triplet-?Sym    2.8625 eV  433.13 nm  f=0.0000  <S**2>=2.000
     273 -> 286        0.12540
     279 -> 286        0.20386
     281 -> 286        0.13453
     281 -> 290       -0.13655
     282 -> 289        0.12521
     284 -> 286        0.42932
     285 -> 289       -0.10133
     285 -> 292        0.15706
     285 -> 298       -0.20938
     285 -> 301       -0.12883

 Excited state symmetry could not be determined.
 Excited State   4:      Singlet-?Sym    3.3236 eV  373.04 nm  f=0.0049  <S**2>=0.000
     283 -> 286       -0.11407
     284 -> 286        0.68815

 Alpha  occ. eigenvalues --  -24.71793 -24.71779 -24.71779 -24.71771 -24.71141
 Alpha  occ. eigenvalues --  -24.71127 -14.38986 -14.38974 -10.42550 -10.42538
 Alpha  occ. eigenvalues --  -10.24565 -10.24554 -10.23197 -10.23186 -10.22982
 Alpha  occ. eigenvalues --  -10.22972 -10.21000 -10.20985 -10.20981 -10.20970
 Alpha  occ. eigenvalues --  -10.20678 -10.20668 -10.20667 -10.20659 -10.20619
 Alpha  occ. eigenvalues --  -10.20608 -10.20607 -10.20598 -10.20423 -10.20413
 Alpha  occ. eigenvalues --  -10.20380 -10.20368 -10.20368 -10.20357 -10.19976
 Alpha  occ. eigenvalues --  -10.19964 -10.19843 -10.19825 -10.19823 -10.19821
 Alpha  occ. eigenvalues --  -10.19810 -10.19751 -10.19714 -10.19698 -10.19663
 Alpha  occ. eigenvalues --  -10.19654 -10.19644 -10.19642 -10.19625 -10.19609
 Alpha  occ. eigenvalues --  -10.19607 -10.19594 -10.19559 -10.19553 -10.19551
 Alpha  occ. eigenvalues --  -10.19549 -10.19542 -10.19530 -10.19496 -10.19491
 Alpha  occ. eigenvalues --  -10.19382 -10.19374 -10.19368 -10.19359 -10.19202
 Alpha  occ. eigenvalues --  -10.19177 -10.19170 -10.19168 -10.19166 -10.19159
 Alpha  occ. eigenvalues --  -10.19118 -10.19092 -10.19063 -10.19039 -10.19016
 Alpha  occ. eigenvalues --  -10.19000 -10.18962 -10.18931 -10.18607 -10.18595
 Alpha  occ. eigenvalues --  -10.18438 -10.18425 -10.18192 -10.18186  -1.29281
 Alpha  occ. eigenvalues --   -1.29269  -1.20793  -1.20781  -1.20244  -1.20232
 Alpha  occ. eigenvalues --   -0.99691  -0.99680  -0.88457  -0.87901  -0.87877
 Alpha  occ. eigenvalues --   -0.87316  -0.87290  -0.85971  -0.85804  -0.85533
 Alpha  occ. eigenvalues --   -0.84969  -0.84959  -0.84638  -0.83841  -0.81035
 Alpha  occ. eigenvalues --   -0.80199  -0.79919  -0.79768  -0.78572  -0.78092
 Alpha  occ. eigenvalues --   -0.76554  -0.76352  -0.76173  -0.76154  -0.75845
 Alpha  occ. eigenvalues --   -0.75758  -0.75565  -0.75509  -0.74682  -0.74432
 Alpha  occ. eigenvalues --   -0.74339  -0.74093  -0.73842  -0.73497  -0.72369
 Alpha  occ. eigenvalues --   -0.72359  -0.71945  -0.71151  -0.69021  -0.68703
 Alpha  occ. eigenvalues --   -0.68584  -0.66187  -0.65353  -0.64239  -0.63256
 Alpha  occ. eigenvalues --   -0.63154  -0.63021  -0.62795  -0.62257  -0.62128
 Alpha  occ. eigenvalues --   -0.62074  -0.61644  -0.61522  -0.60948  -0.60409
 Alpha  occ. eigenvalues --   -0.60316  -0.59998  -0.59387  -0.58691  -0.58389
 Alpha  occ. eigenvalues --   -0.58222  -0.58057  -0.57609  -0.57561  -0.57110
 Alpha  occ. eigenvalues --   -0.57097  -0.56787  -0.56751  -0.56043  -0.56017
 Alpha  occ. eigenvalues --   -0.55984  -0.54439  -0.54414  -0.53765  -0.52637
 Alpha  occ. eigenvalues --   -0.52287  -0.52154  -0.52038  -0.51402  -0.51184
 Alpha  occ. eigenvalues --   -0.50566  -0.50226  -0.49782  -0.48425  -0.47829
 Alpha  occ. eigenvalues --   -0.47578  -0.47571  -0.47462  -0.47347  -0.46408
 Alpha  occ. eigenvalues --   -0.46240  -0.46102  -0.46073  -0.46037  -0.45753
 Alpha  occ. eigenvalues --   -0.45627  -0.45182  -0.45131  -0.44932  -0.44878
 Alpha  occ. eigenvalues --   -0.44726  -0.44684  -0.44564  -0.44537  -0.44423
 Alpha  occ. eigenvalues --   -0.44369  -0.44154  -0.44089  -0.43826  -0.43809
 Alpha  occ. eigenvalues --   -0.43616  -0.43366  -0.43310  -0.43094  -0.43005
 Alpha  occ. eigenvalues --   -0.42719  -0.42654  -0.42499  -0.42382  -0.42312
 Alpha  occ. eigenvalues --   -0.42029  -0.41985  -0.41893  -0.41780  -0.41723
 Alpha  occ. eigenvalues --   -0.41362  -0.41261  -0.41249  -0.40826  -0.40502
 Alpha  occ. eigenvalues --   -0.40498  -0.40317  -0.39398  -0.38973  -0.38960
 Alpha  occ. eigenvalues --   -0.38837  -0.38619  -0.38184  -0.38097  -0.37811
 Alpha  occ. eigenvalues --   -0.37701  -0.37602  -0.37468  -0.37350  -0.37312
 Alpha  occ. eigenvalues --   -0.36892  -0.36659  -0.36364  -0.36287  -0.36213
 Alpha  occ. eigenvalues --   -0.36134  -0.35974  -0.35732  -0.35697  -0.35496
 Alpha  occ. eigenvalues --   -0.35189  -0.35121  -0.34987  -0.34652  -0.34555
 Alpha  occ. eigenvalues --   -0.34403  -0.34341  -0.34221  -0.34113  -0.33674
 Alpha  occ. eigenvalues --   -0.33364  -0.33081  -0.32936  -0.32691  -0.30949
 Alpha  occ. eigenvalues --   -0.30029  -0.28921  -0.28696  -0.28650  -0.27590
 Alpha  occ. eigenvalues --   -0.27384  -0.26712  -0.26673  -0.26597  -0.26422
 Alpha  occ. eigenvalues --   -0.26136  -0.26123  -0.25630  -0.25195  -0.24908
 Alpha  occ. eigenvalues --   -0.24810  -0.24720  -0.24575  -0.23937  -0.23345
 Alpha  occ. eigenvalues --   -0.21649  -0.21528  -0.20215  -0.19906  -0.18036
 Alpha virt. eigenvalues --   -0.06334  -0.03759  -0.03740  -0.03357  -0.03317
 Alpha virt. eigenvalues --   -0.02641  -0.02137  -0.01747  -0.01747  -0.01607
 Alpha virt. eigenvalues --   -0.01137  -0.01125  -0.00748  -0.00381  -0.00240

 Mulliken charges:
               1
     1  F   -0.272567
     2  C    0.780258
     3  F   -0.271975
     4  F   -0.263347
     5  C   -0.004770
     6  C   -0.166901
     7  C   -0.180311
     8  C    0.100003
     9  C    0.081592
    10  C   -0.192768
    11  C   -0.177146
    12  C    0.320088
    13  C    0.063053
    14  C   -0.256010
    15  C    0.064093
    16  C   -0.253780
    17  C    0.081874
    18  C    0.104336
    19  C   -0.180170
    20  C   -0.206501
    21  C    0.105834
    22  C   -0.081319
    23  C    0.004986
    24  C   -0.148872
    25  C   -0.134202
    26  C   -0.126302
    27  C   -0.132023
    28  C   -0.146932
    29  C    0.117268
    30  C   -0.282808
    31  C    0.103868
    32  C    0.081976
    33  C   -0.194015
    34  C   -0.178800
    35  C    0.318491
    36  C    0.064346
    37  C   -0.253843
    38  C    0.062839
    39  C   -0.255803
    40  C    0.081538
    41  C    0.100302
    42  C   -0.180013
    43  C   -0.167295
    44  C   -0.004992
    45  C    0.780304
    46  F   -0.263688
    47  F   -0.272208
    48  F   -0.272043
    49  C   -0.166897
    50  C   -0.182117
    51  C   -0.193147
    52  C   -0.177612
    53  C    0.320644
    54  N   -0.739127
    55  C    0.260142
    56  C   -0.148673
    57  C   -0.142567
    58  C   -0.120429
    59  C   -0.142581
    60  C   -0.148175
    61  C   -0.180161
    62  C   -0.206668
    63  C    0.106051
    64  C   -0.081410
    65  C    0.005458
    66  C   -0.146925
    67  C   -0.132040
    68  C   -0.127288
    69  C   -0.134745
    70  C   -0.148701
    71  C    0.117709
    72  C   -0.282693
    73  C   -0.194085
    74  C   -0.178838
    75  C    0.318440
    76  N   -0.739291
    77  C    0.260438
    78  C   -0.148996
    79  C   -0.142604
    80  C   -0.120474
    81  C   -0.142637
    82  C   -0.148105
    83  C   -0.182439
    84  C   -0.166917
    85  H    0.151014
    86  H    0.141301
    87  H    0.133299
    88  H    0.144191
    89  H    0.139875
    90  H    0.140346
    91  H    0.129443
    92  H    0.146937
    93  H    0.136642
    94  H    0.132381
    95  H    0.132379
    96  H    0.132793
    97  H    0.138222
    98  H    0.148681
    99  H    0.133820
   100  H    0.142960
   101  H    0.139993
   102  H    0.139842
   103  H    0.140960
   104  H    0.152150
   105  H    0.151990
   106  H    0.138915
   107  H    0.133565
   108  H    0.144508
   109  H    0.152814
   110  H    0.140626
   111  H    0.137723
   112  H    0.140880
   113  H    0.153589
   114  H    0.129240
   115  H    0.146533
   116  H    0.138555
   117  H    0.132826
   118  H    0.130319
   119  H    0.131925
   120  H    0.137959
   121  H    0.147429
   122  H    0.133820
   123  H    0.142967
   124  H    0.153083
   125  H    0.140767
   126  H    0.137693
   127  H    0.140856
   128  H    0.153717
   129  H    0.140009
   130  H    0.152278
 Sum of Mulliken charges =  -0.00000

 Dipole moment (field-independent basis, Debye):
    X=              0.1655    Y=             -0.0141    Z=             -0.0612  Tot=              0.1770
 Quadrupole moment (field-independent basis, Debye-Ang):
   XX=           -443.8414   YY=           -460.7123   ZZ=           -459.2377
   XY=            119.4017   XZ=            -19.8240   YZ=             -0.7487

 Normal termination of Gaussian 16 at Sat Nov  5 12:45:13 2022.
