 Gaussian 16, Revision B.01,
 Gaussian 16:  ES64L-G16RevB.01 20-Dec-2017

 -----------------------------
 #p b3lyp/6-31g(d) opt SCF=XQC
 -----------------------------

 ------------------------------
 Gaussian input prepared by ASE
 ------------------------------
 Symbolic Z-matrix:
 Charge =  0 Multiplicity = 1

 SCF Done:  E(RB3LYP) =  -2694.13418382     A.U. after   16 cycles
 SCF Done:  E(RB3LYP) =  -2694.14921212     A.U. after   14 cycles
 SCF Done:  E(RB3LYP) =  -2694.15144960     A.U. after   13 cycles
 SCF Done:  E(RB3LYP) =  -2694.15263663     A.U. after   13 cycles
 SCF Done:  E(RB3LYP) =  -2694.15344495     A.U. after   13 cycles
 SCF Done:  E(RB3LYP) =  -2694.15382728     A.U. after   13 cycles
 SCF Done:  E(RB3LYP) =  -2694.15389429     A.U. after   11 cycles
 SCF Done:  E(RB3LYP) =  -2694.15390958     A.U. after   10 cycles
 SCF Done:  E(RB3LYP) =  -2694.15391424     A.U. after   10 cycles
 SCF Done:  E(RB3LYP) =  -2694.15391587     A.U. after   10 cycles
 SCF Done:  E(RB3LYP) =  -2694.15391703     A.U. after   10 cycles
 SCF Done:  E(RB3LYP) =  -2694.15391787     A.U. after   10 cycles
 SCF Done:  E(RB3LYP) =  -2694.15391843     A.U. after    9 cycles
 SCF Done:  E(RB3LYP) =  -2694.15391881     A.U. after    9 cycles
 SCF Done:  E(RB3LYP) =  -2694.15391889     A.U. after    7 cycles
 SCF Done:  E(RB3LYP) =  -2694.15391892     A.U. after    6 cycles
 Optimization completed.
    -- Stationary point found.

                         Standard orientation:
 ---------------------------------------------------------------------
 Center     Atomic      Atomic             Coordinates (Angstroms)
 Number     Number       Type             X           Y           Z
 ---------------------------------------------------------------------
      1          6           0        6.339164    5.387863    4.397597
      2          7           0        5.982783    4.470749    3.743470
      3          6           0        5.565528    3.395353    2.978606
      4          6           0        6.202909    2.153852    3.099019
      5          6           0        5.780012    1.073706    2.336605
      6          6           0        4.716592    1.207311    1.423361
      7          7           0        4.282006    0.104154    0.664488
      8          6           0        5.151737   -0.991624    0.420419
      9          6           0        4.843542   -2.277606    0.879459
     10          9           0        3.705270   -2.454704    1.572626
     11          6           0        5.670760   -3.365198    0.636116
     12          6           0        6.851813   -3.166372   -0.073999
     13          6           0        7.228282   -1.903171   -0.564457
     14          6           0        8.501719   -1.716819   -1.308369
     15          6           0        9.662679   -2.382092   -0.879670
     16          6           0       10.862029   -2.251819   -1.578034
     17          6           0       10.925262   -1.451111   -2.719240
     18          6           0        9.780063   -0.781187   -3.153392
     19          6           0        8.580269   -0.909883   -2.455980
     20          6           0        6.343490   -0.849468   -0.304281
     21          9           0        6.627069    0.388657   -0.759997
     22          6           0        3.076914    0.157034   -0.114940
     23          6           0        3.176060    0.273606   -1.504930
     24          6           0        2.038534    0.315340   -2.301727
     25          6           0        0.758856    0.261195   -1.727658
     26          6           0       -0.435971    0.310341   -2.520456
     27          6           0       -1.671841    0.265182   -1.952248
     28          6           0       -1.828697    0.167199   -0.527688
     29          6           0       -3.093514    0.137858    0.102196
     30          7           0       -4.300594    0.215704   -0.676236
     31          6           0       -4.751610    1.430763   -1.212958
     32          6           0       -4.110516    2.645105   -0.897132
     33          6           0       -4.548162    3.839655   -1.449968
     34          6           0       -5.641490    3.866822   -2.332543
     35          6           0       -6.092963    5.099920   -2.898960
     36          7           0       -6.461634    6.103025   -3.361309
     37          6           0       -6.282710    2.656447   -2.648799
     38          6           0       -5.844425    1.459524   -2.103529
     39          6           0       -5.157682   -0.917437   -0.635644
     40          6           0       -4.845037   -2.091670   -1.329567
     41          9           0       -3.729144   -2.116811   -2.078499
     42          6           0       -5.653569   -3.218568   -1.270930
     43          6           0       -6.817530   -3.173095   -0.508147
     44          6           0       -7.194278   -2.028733    0.217420
     45          6           0       -8.426759   -2.012059    1.047416
     46          6           0       -9.276582   -0.893467    1.083099
     47          6           0      -10.446271   -0.914491    1.840502
     48          6           0      -10.789469   -2.048637    2.578805
     49          6           0       -9.951105   -3.164123    2.555999
     50          6           0       -8.780788   -3.145054    1.798872
     51          6           0       -6.329691   -0.931009    0.133014
     52          9           0       -6.598837    0.186565    0.840219
     53          6           0       -3.194200    0.017534    1.491590
     54          6           0       -2.056216   -0.076786    2.283223
     55          6           0       -0.776594   -0.034137    1.707760
     56          6           0        0.418287   -0.123596    2.497108
     57          6           0        1.654007   -0.071703    1.929132
     58          6           0        1.810853    0.078103    0.509262
     59          6           0        0.639505    0.148303   -0.309245
     60          6           0       -0.657098    0.096480    0.290895
     61          6           0        4.085966    2.460038    1.307750
     62          6           0        4.502568    3.537863    2.078332
     63          1           0        7.023836    2.041548    3.799673
     64          1           0        6.275378    0.116067    2.453450
     65          1           0        5.383819   -4.344639    1.002764
     66          1           0        7.495461   -4.015527   -0.279691
     67          1           0        9.629313   -2.988948    0.021056
     68          1           0       11.749104   -2.770277   -1.224255
     69          1           0       11.859750   -1.346754   -3.263598
     70          1           0        9.818182   -0.156629   -4.041824
     71          1           0        7.697492   -0.388340   -2.808683
     72          1           0        4.163212    0.347397   -1.950625
     73          1           0        2.134701    0.407307   -3.380423
     74          1           0       -0.334215    0.380226   -3.600588
     75          1           0       -2.560613    0.284796   -2.570841
     76          1           0       -3.273617    2.649978   -0.209115
     77          1           0       -4.045915    4.766605   -1.191677
     78          1           0       -7.124422    2.659602   -3.334215
     79          1           0       -6.344710    0.536345   -2.374421
     80          1           0       -5.375905   -4.102004   -1.835270
     81          1           0       -7.468929   -4.040729   -0.483755
     82          1           0       -9.025333   -0.008248    0.509029
     83          1           0      -11.093315   -0.041580    1.850038
     84          1           0      -11.701111   -2.061370    3.169779
     85          1           0      -10.202808   -4.048860    3.134585
     86          1           0       -8.122270   -4.009369    1.806291
     87          1           0       -4.181105    0.013601    1.943739
     88          1           0       -2.152308   -0.169663    3.361800
     89          1           0        0.316427   -0.241166    3.573067
     90          1           0        2.543217   -0.159957    2.541107
     91          1           0        3.271113    2.591797    0.605737
     92          1           0        4.012632    4.501117    1.980411
 ---------------------------------------------------------------------

 The electronic state is 1-A.
 Alpha  occ. eigenvalues --  -24.73198 -24.73028 -24.72930 -24.72771 -14.38634
 Alpha  occ. eigenvalues --  -14.38247 -14.36440 -14.32112 -10.29828 -10.29715
 Alpha  occ. eigenvalues --  -10.29675 -10.29537 -10.25606 -10.25435 -10.25415
 Alpha  occ. eigenvalues --  -10.24887 -10.24677 -10.24346 -10.24290 -10.22617
 Alpha  occ. eigenvalues --  -10.22493 -10.22344 -10.22269 -10.22122 -10.21650
 Alpha  occ. eigenvalues --  -10.21586 -10.21569 -10.21556 -10.21503 -10.21497
 Alpha  occ. eigenvalues --  -10.21494 -10.21418 -10.21374 -10.21296 -10.21272
 Alpha  occ. eigenvalues --  -10.21249 -10.21170 -10.20890 -10.20772 -10.20713
 Alpha  occ. eigenvalues --  -10.20687 -10.20671 -10.20590 -10.20583 -10.20409
 Alpha  occ. eigenvalues --  -10.20373 -10.20290 -10.20257 -10.20188 -10.20178
 Alpha  occ. eigenvalues --  -10.20160 -10.20123 -10.20110 -10.20102 -10.20063
 Alpha  occ. eigenvalues --  -10.20041 -10.20040 -10.20020 -10.19979 -10.19969
 Alpha  occ. eigenvalues --  -10.19962 -10.19919  -1.24286  -1.24120  -1.24113
 Alpha  occ. eigenvalues --   -1.23947  -0.98586  -0.98269  -0.95224  -0.90355
 Alpha  occ. eigenvalues --   -0.89404  -0.89060  -0.88901  -0.86841  -0.86514
 Alpha  occ. eigenvalues --   -0.86377  -0.85845  -0.85238  -0.83923  -0.81094
 Alpha  occ. eigenvalues --   -0.79830  -0.79638  -0.78433  -0.78248  -0.78013
 Alpha  occ. eigenvalues --   -0.76746  -0.76261  -0.75987  -0.75918  -0.75513
 Alpha  occ. eigenvalues --   -0.75440  -0.74555  -0.74406  -0.73779  -0.73474
 Alpha  occ. eigenvalues --   -0.71540  -0.67070  -0.66380  -0.66059  -0.65396
 Alpha  occ. eigenvalues --   -0.65166  -0.64642  -0.64420  -0.63121  -0.62876
 Alpha  occ. eigenvalues --   -0.62767  -0.62051  -0.61357  -0.61301  -0.61122
 Alpha  occ. eigenvalues --   -0.59913  -0.59748  -0.57421  -0.57399  -0.57001
 Alpha  occ. eigenvalues --   -0.56406  -0.55952  -0.55397  -0.54738  -0.54582
 Alpha  occ. eigenvalues --   -0.54220  -0.53937  -0.53363  -0.52991  -0.52503
 Alpha  occ. eigenvalues --   -0.52051  -0.51122  -0.50859  -0.50382  -0.50287
 Alpha  occ. eigenvalues --   -0.49103  -0.48787  -0.48337  -0.48269  -0.47591
 Alpha  occ. eigenvalues --   -0.47488  -0.47456  -0.46691  -0.46370  -0.46214
 Alpha  occ. eigenvalues --   -0.45935  -0.45761  -0.45706  -0.45644  -0.45572
 Alpha  occ. eigenvalues --   -0.45400  -0.45269  -0.44273  -0.44184  -0.43829
 Alpha  occ. eigenvalues --   -0.43804  -0.43656  -0.42975  -0.42921  -0.42228
 Alpha  occ. eigenvalues --   -0.42170  -0.41947  -0.41761  -0.41688  -0.41365
 Alpha  occ. eigenvalues --   -0.41072  -0.40903  -0.40602  -0.40341  -0.39733
 Alpha  occ. eigenvalues --   -0.39601  -0.39148  -0.38690  -0.38563  -0.38431
 Alpha  occ. eigenvalues --   -0.38280  -0.38192  -0.37503  -0.37329  -0.36741
 Alpha  occ. eigenvalues --   -0.36592  -0.36458  -0.36325  -0.35745  -0.35643
 Alpha  occ. eigenvalues --   -0.35284  -0.35162  -0.35036  -0.34974  -0.34681
 Alpha  occ. eigenvalues --   -0.34557  -0.33430  -0.33113  -0.31750  -0.31507
 Alpha  occ. eigenvalues --   -0.30452  -0.30303  -0.29188  -0.28963  -0.28638
 Alpha  occ. eigenvalues --   -0.28258  -0.27456  -0.27035  -0.26857  -0.26674
 Alpha  occ. eigenvalues --   -0.26425  -0.26063  -0.26002  -0.24441  -0.23930
 Alpha  occ. eigenvalues --   -0.23817  -0.22409  -0.21262  -0.20152
 Alpha virt. eigenvalues --   -0.07573  -0.04557  -0.04377  -0.04124  -0.03530
 Alpha virt. eigenvalues --   -0.03102  -0.02694  -0.02012  -0.01821  -0.01382
 Alpha virt. eigenvalues --   -0.01071  -0.01010  -0.00866   0.00721   0.01299

 Mulliken charges:
               1
     1  C   -0.093385
     2  N   -0.323570
     3  C    0.286192
     4  C   -0.127188
     5  C   -0.195113
     6  C    0.363150
     7  N   -0.649987
     8  C    0.076380
     9  C    0.369818
    10  F   -0.278246
    11  C   -0.207208
    12  C   -0.176071
    13  C    0.011354
    14  C    0.097975
    15  C   -0.171185
    16  C   -0.133959
    17  C   -0.123743
    18  C   -0.135343
    19  C   -0.159990
    20  C    0.319184
    21  F   -0.281549
    22  C    0.138806
    23  C   -0.136496
    24  C   -0.245441
    25  C    0.190401
    26  C   -0.202964
    27  C   -0.181366
    28  C    0.162527
    29  C    0.133132
    30  N   -0.647412
    31  C    0.364054
    32  C   -0.189108
    33  C   -0.147156
    34  C    0.130566
    35  C    0.224009
    36  N   -0.487700
    37  C   -0.146975
    38  C   -0.188027
    39  C    0.073529
    40  C    0.370453
    41  F   -0.277471
    42  C   -0.207060
    43  C   -0.176261
    44  C    0.013220
    45  C    0.097391
    46  C   -0.162735
    47  C   -0.135698
    48  C   -0.123919
    49  C   -0.134216
    50  C   -0.171476
    51  C    0.321632
    52  F   -0.281750
    53  C   -0.137064
    54  C   -0.246312
    55  C    0.191156
    56  C   -0.203533
    57  C   -0.179819
    58  C    0.161481
    59  C   -0.034922
    60  C   -0.035606
    61  C   -0.199806
    62  C   -0.128248
    63  H    0.154960
    64  H    0.145315
    65  H    0.156767
    66  H    0.153284
    67  H    0.133394
    68  H    0.135256
    69  H    0.135374
    70  H    0.136345
    71  H    0.137851
    72  H    0.145191
    73  H    0.139869
    74  H    0.138207
    75  H    0.151176
    76  H    0.156707
    77  H    0.157197
    78  H    0.155235
    79  H    0.145879
    80  H    0.157737
    81  H    0.153864
    82  H    0.143390
    83  H    0.138358
    84  H    0.135719
    85  H    0.135151
    86  H    0.133589
    87  H    0.150419
    88  H    0.140942
    89  H    0.138209
    90  H    0.152245
    91  H    0.154788
    92  H    0.156248
 Sum of Mulliken charges =  -0.00000

 Dipole moment (field-independent basis, Debye):
    X=              0.4914    Y=            -11.8206    Z=             -0.5703  Tot=             11.8445
 Quadrupole moment (field-independent basis, Debye-Ang):
   XX=           -319.8211   YY=           -391.3294   ZZ=           -355.2501
   XY=              7.7716   XZ=            -47.2312   YZ=             -5.0592

 Normal termination of Gaussian 16 at Sat Nov  5 00:20:59 2022.
