 Gaussian 16, Revision B.01,
 Gaussian 16:  ES64L-G16RevB.01 20-Dec-2017

 -------------------------------------------------------------------
 #p b3lyp/6-31g(d) 6D 10F nosymm GFInput td=(50-50,nstate=2) SCF=XQC
 -------------------------------------------------------------------

 ------------------------------
 Gaussian input prepared by ASE
 ------------------------------
 Symbolic Z-matrix:
 Charge =  0 Multiplicity = 1

                          Input orientation:
 ---------------------------------------------------------------------
 Center     Atomic      Atomic             Coordinates (Angstroms)
 Number     Number       Type             X           Y           Z
 ---------------------------------------------------------------------
      1          6           0        6.276900    7.092328    0.420232
      2          7           0        5.931475    5.962725    0.394421
      3          6           0        5.527113    4.639367    0.365928
      4          6           0        6.200482    3.678817    1.131432
      5          6           0        5.790663    2.352800    1.107793
      6          6           0        4.704429    1.947354    0.308770
      7          7           0        4.283631    0.604008    0.301189
      8          6           0        5.177336   -0.434415    0.674955
      9          6           0        4.914262   -1.254672    1.778324
     10          9           0        3.796543   -1.030671    2.491089
     11          6           0        5.765272   -2.286328    2.149578
     12          6           0        6.924788   -2.501157    1.409271
     13          6           0        7.256031   -1.716534    0.290076
     14          6           0        8.507481   -1.959473   -0.474534
     15          6           0        9.695135   -2.263937    0.211743
     16          6           0       10.875056   -2.529163   -0.481485
     17          6           0       10.891703   -2.493188   -1.876445
     18          6           0        9.719554   -2.187700   -2.570356
     19          6           0        8.539127   -1.921693   -1.878777
     20          6           0        6.348769   -0.704400   -0.046520
     21          9           0        6.588615    0.077578   -1.119848
     22          6           0        3.060911    0.203881   -0.337093
     23          6           0        3.126652   -0.467218   -1.562164
     24          6           0        1.971383   -0.885522   -2.210984
     25          6           0        0.706415   -0.626535   -1.660672
     26          6           0       -0.506235   -1.037062   -2.308362
     27          6           0       -1.727794   -0.773370   -1.769350
     28          6           0       -1.850966   -0.068273   -0.523860
     29          6           0       -3.100545    0.242418    0.058720
     30          7           0       -4.325910   -0.136387   -0.592469
     31          6           0       -4.821345    0.573734   -1.696157
     32          6           0       -4.206806    1.766689   -2.125777
     33          6           0       -4.688672    2.450953   -3.231986
     34          6           0       -5.801236    1.973517   -3.945637
     35          6           0       -6.298264    2.682223   -5.084008
     36          7           0       -6.704027    3.257855   -6.011320
     37          6           0       -6.416019    0.783626   -3.518565
     38          6           0       -5.933614    0.093205   -2.417365
     39          6           0       -5.150784   -1.066767    0.096176
     40          6           0       -4.821460   -2.425414    0.157212
     41          9           0       -3.721817   -2.848947   -0.489436
     42          6           0       -5.597585   -3.340091    0.855823
     43          6           0       -6.745519   -2.892470    1.504355
     44          6           0       -7.137407   -1.541872    1.488304
     45          6           0       -8.351578   -1.081769    2.210991
     46          6           0       -9.230530   -0.139457    1.650445
     47          6           0      -10.382497    0.249743    2.331451
     48          6           0      -10.678618   -0.289883    3.584559
     49          6           0       -9.810923   -1.222604    4.154489
     50          6           0       -8.658269   -1.613273    3.474773
     51          6           0       -6.305028   -0.665156    0.782509
     52          9           0       -6.589049    0.654116    0.762415
     53          6           0       -3.167737    0.910045    1.285418
     54          6           0       -2.010693    1.281701    1.958996
     55          6           0       -0.745497    1.012367    1.413881
     56          6           0        0.468228    1.387412    2.080983
     57          6           0        1.689459    1.129454    1.538446
     58          6           0        1.811314    0.470114    0.268212
     59          6           0        0.620998    0.063142   -0.413301
     60          6           0       -0.660384    0.338311    0.157995
     61          6           0        4.037610    2.919984   -0.459164
     62          6           0        4.441377    4.248521   -0.427233
     63          1           0        7.039176    3.981773    1.749703
     64          1           0        6.314307    1.625175    1.718097
     65          1           0        5.513100   -2.902191    3.005844
     66          1           0        7.586673   -3.315351    1.686137
     67          1           0        9.697845   -2.271233    1.298313
     68          1           0       11.783373   -2.755730    0.070319
     69          1           0       11.810970   -2.697586   -2.418342
     70          1           0        9.721380   -2.158807   -3.656635
     71          1           0        7.635045   -1.691914   -2.431535
     72          1           0        4.101525   -0.641910   -2.006758
     73          1           0        2.041575   -1.404869   -3.163162
     74          1           0       -0.429889   -1.575536   -3.249713
     75          1           0       -2.629990   -1.108829   -2.265804
     76          1           0       -3.355611    2.160410   -1.583337
     77          1           0       -4.206330    3.371239   -3.546027
     78          1           0       -7.272187    0.397979   -4.063118
     79          1           0       -6.414372   -0.830893   -2.115966
     80          1           0       -5.308317   -4.385210    0.865145
     81          1           0       -7.372400   -3.608503    2.025913
     82          1           0       -9.015968    0.282764    0.674747
     83          1           0      -11.052680    0.975130    1.878240
     84          1           0      -11.576533    0.016865    4.113858
     85          1           0      -10.025855   -1.641929    5.133696
     86          1           0       -7.976485   -2.321996    3.936968
     87          1           0       -4.144122    1.146493    1.696758
     88          1           0       -2.080786    1.800225    2.911576
     89          1           0        0.392985    1.883861    3.045225
     90          1           0        2.593816    1.404089    2.067324
     91          1           0        3.204428    2.632544   -1.089525
     92          1           0        3.923418    4.991353   -1.025066
 ---------------------------------------------------------------------

 SCF Done:  E(RB3LYP) =  -2694.15392065     A.U. after   16 cycles

 Excitation energies and oscillator strengths:

 Excited state symmetry could not be determined.
 Excited State   1:      Triplet-?Sym    1.9931 eV  622.05 nm  f=0.0000  <S**2>=2.000
     207 ->210        -0.29086
     208 ->210        -0.14220
     209 ->210         0.60318
 This state for optimization and/or second-order correction.
 Total Energy, E(TD-HF/TD-DFT) =  -2694.08067380
 Copying the excited state density for this state as the 1-particle RhoCI density.

 Excited state symmetry could not be determined.
 Excited State   2:      Singlet-?Sym    2.9841 eV  415.48 nm  f=0.3431  <S**2>=0.000
     207 ->210         0.17189
     208 ->210         0.17727
     209 ->210         0.65486

 Excited state symmetry could not be determined.
 Excited State   3:      Triplet-?Sym    3.0005 eV  413.21 nm  f=0.0000  <S**2>=2.000
     207 ->210         0.10266
     208 ->210         0.62298
     209 ->210         0.20554

 Excited state symmetry could not be determined.
 Excited State   4:      Singlet-?Sym    3.1715 eV  390.93 nm  f=0.0741  <S**2>=0.000
     207 ->210        -0.14721
     208 ->210         0.67163
     209 ->210        -0.13964

 Alpha  occ. eigenvalues --  -24.73198 -24.73028 -24.72930 -24.72771 -14.38634
 Alpha  occ. eigenvalues --  -14.38247 -14.36440 -14.32112 -10.29828 -10.29715
 Alpha  occ. eigenvalues --  -10.29675 -10.29537 -10.25606 -10.25435 -10.25415
 Alpha  occ. eigenvalues --  -10.24887 -10.24677 -10.24346 -10.24290 -10.22617
 Alpha  occ. eigenvalues --  -10.22493 -10.22344 -10.22268 -10.22122 -10.21650
 Alpha  occ. eigenvalues --  -10.21586 -10.21569 -10.21556 -10.21504 -10.21496
 Alpha  occ. eigenvalues --  -10.21494 -10.21418 -10.21374 -10.21296 -10.21272
 Alpha  occ. eigenvalues --  -10.21249 -10.21170 -10.20890 -10.20772 -10.20713
 Alpha  occ. eigenvalues --  -10.20687 -10.20671 -10.20590 -10.20583 -10.20409
 Alpha  occ. eigenvalues --  -10.20373 -10.20290 -10.20257 -10.20188 -10.20178
 Alpha  occ. eigenvalues --  -10.20160 -10.20123 -10.20110 -10.20102 -10.20063
 Alpha  occ. eigenvalues --  -10.20041 -10.20040 -10.20020 -10.19979 -10.19969
 Alpha  occ. eigenvalues --  -10.19962 -10.19919  -1.24285  -1.24120  -1.24113
 Alpha  occ. eigenvalues --   -1.23947  -0.98586  -0.98269  -0.95224  -0.90355
 Alpha  occ. eigenvalues --   -0.89404  -0.89060  -0.88901  -0.86841  -0.86514
 Alpha  occ. eigenvalues --   -0.86377  -0.85845  -0.85238  -0.83923  -0.81094
 Alpha  occ. eigenvalues --   -0.79830  -0.79638  -0.78433  -0.78248  -0.78013
 Alpha  occ. eigenvalues --   -0.76746  -0.76261  -0.75987  -0.75918  -0.75513
 Alpha  occ. eigenvalues --   -0.75440  -0.74555  -0.74406  -0.73779  -0.73474
 Alpha  occ. eigenvalues --   -0.71540  -0.67070  -0.66380  -0.66059  -0.65396
 Alpha  occ. eigenvalues --   -0.65166  -0.64642  -0.64420  -0.63121  -0.62876
 Alpha  occ. eigenvalues --   -0.62767  -0.62051  -0.61357  -0.61301  -0.61122
 Alpha  occ. eigenvalues --   -0.59913  -0.59747  -0.57421  -0.57399  -0.57001
 Alpha  occ. eigenvalues --   -0.56406  -0.55952  -0.55397  -0.54738  -0.54582
 Alpha  occ. eigenvalues --   -0.54220  -0.53937  -0.53363  -0.52991  -0.52503
 Alpha  occ. eigenvalues --   -0.52051  -0.51122  -0.50859  -0.50382  -0.50287
 Alpha  occ. eigenvalues --   -0.49103  -0.48787  -0.48337  -0.48269  -0.47591
 Alpha  occ. eigenvalues --   -0.47488  -0.47456  -0.46691  -0.46370  -0.46214
 Alpha  occ. eigenvalues --   -0.45935  -0.45761  -0.45706  -0.45644  -0.45572
 Alpha  occ. eigenvalues --   -0.45400  -0.45269  -0.44273  -0.44184  -0.43829
 Alpha  occ. eigenvalues --   -0.43804  -0.43656  -0.42975  -0.42921  -0.42228
 Alpha  occ. eigenvalues --   -0.42170  -0.41947  -0.41761  -0.41688  -0.41365
 Alpha  occ. eigenvalues --   -0.41072  -0.40903  -0.40602  -0.40341  -0.39733
 Alpha  occ. eigenvalues --   -0.39601  -0.39148  -0.38690  -0.38563  -0.38431
 Alpha  occ. eigenvalues --   -0.38280  -0.38192  -0.37503  -0.37329  -0.36741
 Alpha  occ. eigenvalues --   -0.36592  -0.36458  -0.36325  -0.35745  -0.35643
 Alpha  occ. eigenvalues --   -0.35284  -0.35162  -0.35036  -0.34974  -0.34681
 Alpha  occ. eigenvalues --   -0.34557  -0.33430  -0.33113  -0.31750  -0.31507
 Alpha  occ. eigenvalues --   -0.30452  -0.30303  -0.29188  -0.28963  -0.28638
 Alpha  occ. eigenvalues --   -0.28258  -0.27456  -0.27035  -0.26857  -0.26674
 Alpha  occ. eigenvalues --   -0.26425  -0.26063  -0.26002  -0.24441  -0.23930
 Alpha  occ. eigenvalues --   -0.23817  -0.22409  -0.21262  -0.20152
 Alpha virt. eigenvalues --   -0.07573  -0.04557  -0.04377  -0.04124  -0.03530
 Alpha virt. eigenvalues --   -0.03102  -0.02694  -0.02012  -0.01821  -0.01382
 Alpha virt. eigenvalues --   -0.01071  -0.01010  -0.00866   0.00721   0.01299

 Mulliken charges:
               1
     1  C   -0.093383
     2  N   -0.323572
     3  C    0.286189
     4  C   -0.127177
     5  C   -0.195122
     6  C    0.363141
     7  N   -0.649953
     8  C    0.076352
     9  C    0.369821
    10  F   -0.278246
    11  C   -0.207216
    12  C   -0.176066
    13  C    0.011369
    14  C    0.097979
    15  C   -0.171177
    16  C   -0.133963
    17  C   -0.123743
    18  C   -0.135340
    19  C   -0.160008
    20  C    0.319185
    21  F   -0.281549
    22  C    0.138795
    23  C   -0.136486
    24  C   -0.245445
    25  C    0.190401
    26  C   -0.202969
    27  C   -0.181379
    28  C    0.162555
    29  C    0.133107
    30  N   -0.647406
    31  C    0.364034
    32  C   -0.189107
    33  C   -0.147157
    34  C    0.130574
    35  C    0.224000
    36  N   -0.487693
    37  C   -0.146980
    38  C   -0.188017
    39  C    0.073552
    40  C    0.370449
    41  F   -0.277470
    42  C   -0.207048
    43  C   -0.176266
    44  C    0.013234
    45  C    0.097362
    46  C   -0.162723
    47  C   -0.135711
    48  C   -0.123918
    49  C   -0.134208
    50  C   -0.171481
    51  C    0.321634
    52  F   -0.281753
    53  C   -0.137064
    54  C   -0.246316
    55  C    0.191158
    56  C   -0.203530
    57  C   -0.179827
    58  C    0.161490
    59  C   -0.034917
    60  C   -0.035616
    61  C   -0.199815
    62  C   -0.128243
    63  H    0.154959
    64  H    0.145317
    65  H    0.156768
    66  H    0.153283
    67  H    0.133394
    68  H    0.135257
    69  H    0.135374
    70  H    0.136345
    71  H    0.137858
    72  H    0.145190
    73  H    0.139869
    74  H    0.138207
    75  H    0.151186
    76  H    0.156706
    77  H    0.157198
    78  H    0.155235
    79  H    0.145878
    80  H    0.157735
    81  H    0.153863
    82  H    0.143395
    83  H    0.138360
    84  H    0.135719
    85  H    0.135150
    86  H    0.133589
    87  H    0.150418
    88  H    0.140942
    89  H    0.138209
    90  H    0.152242
    91  H    0.154786
    92  H    0.156249
 Sum of Mulliken charges =  -0.00000

 Dipole moment (field-independent basis, Debye):
    X=              0.8002    Y=            -10.1549    Z=              6.0439  Tot=             11.8445
 Quadrupole moment (field-independent basis, Debye-Ang):
   XX=           -322.3680   YY=           -387.4650   ZZ=           -359.3268
   XY=            -18.3306   XZ=            -45.1819   YZ=             15.9894

 Normal termination of Gaussian 16 at Sat Nov  5 10:34:48 2022.
