 Gaussian 16, Revision B.01,
 Gaussian 16:  ES64L-G16RevB.01 20-Dec-2017

 -------------------------------------------------------------------
 #p b3lyp/6-31g(d) 6D 10F nosymm GFInput td=(50-50,nstate=2) SCF=XQC
 -------------------------------------------------------------------

 ------------------------------
 Gaussian input prepared by ASE
 ------------------------------
 Symbolic Z-matrix:
 Charge =  0 Multiplicity = 1

                          Input orientation:
 ---------------------------------------------------------------------
 Center     Atomic      Atomic             Coordinates (Angstroms)
 Number     Number       Type             X           Y           Z
 ---------------------------------------------------------------------
      1          6           0       -6.775951    4.002751   -3.308996
      2          6           0       -5.690813    3.332134   -4.170836
      3          6           0       -4.925309    2.259917   -3.424297
      4          6           0       -5.376439    0.932941   -3.399029
      5          6           0       -4.691506   -0.045870   -2.682920
      6          6           0       -3.526743    0.261216   -1.965604
      7          6           0       -2.821528   -0.844944   -1.174129
      8          6           0       -3.481525   -1.120717    0.180761
      9          6           0       -4.143051   -0.132892    0.918886
     10          6           0       -4.702403   -0.424087    2.164635
     11          6           0       -4.628493   -1.709139    2.713781
     12          6           0       -5.278831   -2.033394    4.042223
     13          6           0       -6.732312   -2.518978    3.895415
     14          6           0       -3.967007   -2.697204    1.971354
     15          6           0       -3.404727   -2.408244    0.730256
     16          6           0       -1.308951   -0.627625   -1.066646
     17          6           0       -0.488631   -0.971096   -2.151580
     18          6           0        0.886846   -0.766976   -2.106251
     19          6           0        1.499970   -0.206156   -0.975967
     20          6           0        3.021255   -0.026839   -0.961603
     21          6           0        3.770092   -1.323288   -0.636301
     22          6           0        5.051681   -1.525775   -1.167381
     23          6           0        5.776817   -2.679948   -0.880889
     24          6           0        5.250183   -3.677589   -0.048787
     25          6           0        6.053465   -4.914584    0.294064
     26          6           0        6.941594   -4.725949    1.537311
     27          6           0        3.969803   -3.474918    0.478429
     28          6           0        3.239338   -2.320491    0.189722
     29          6           0        3.473716    1.154722   -0.097567
     30          6           0        3.394411    2.453859   -0.618638
     31          6           0        3.769576    3.559476    0.140869
     32          6           0        4.238711    3.410234    1.453373
     33          6           0        4.689017    4.607519    2.263665
     34          6           0        6.175876    4.947620    2.055027
     35          6           0        4.315279    2.112921    1.972511
     36          6           0        3.943595    1.002666    1.211763
     37          6           0        0.682738    0.140546    0.104137
     38          6           0       -0.698313   -0.072678    0.062003
     39          6           0       -3.070615    1.583925   -1.994177
     40          6           0       -3.761132    2.564109   -2.709758
     41          1           0       -7.310554    4.771484   -3.879171
     42          1           0       -6.335982    4.478557   -2.425282
     43          1           0       -7.509033    3.267292   -2.958807
     44          1           0       -6.159370    2.895809   -5.062346
     45          1           0       -4.992696    4.098808   -4.530280
     46          1           0       -6.272157    0.661512   -3.954516
     47          1           0       -5.065083   -1.067924   -2.680979
     48          1           0       -2.950692   -1.763392   -1.762520
     49          1           0       -4.229560    0.871850    0.515873
     50          1           0       -5.208042    0.364928    2.718158
     51          1           0       -5.260261   -1.144839    4.686093
     52          1           0       -4.693226   -2.804423    4.559272
     53          1           0       -6.782914   -3.425749    3.282082
     54          1           0       -7.353076   -1.756676    3.411290
     55          1           0       -7.171408   -2.745039    4.874163
     56          1           0       -3.891225   -3.706490    2.371603
     57          1           0       -2.889843   -3.193053    0.179614
     58          1           0       -0.937257   -1.398808   -3.045929
     59          1           0        1.498922   -1.052615   -2.959385
     60          1           0        3.301797    0.230884   -1.991802
     61          1           0        5.485812   -0.767851   -1.816411
     62          1           0        6.765282   -2.813071   -1.316508
     63          1           0        5.373157   -5.758935    0.463204
     64          1           0        6.685372   -5.190704   -0.559849
     65          1           0        7.655790   -3.908118    1.388927
     66          1           0        6.336524   -4.481674    2.417729
     67          1           0        7.509059   -5.638012    1.756341
     68          1           0        3.529090   -4.236734    1.118728
     69          1           0        2.240267   -2.204080    0.599257
     70          1           0        3.025934    2.600217   -1.632069
     71          1           0        3.696916    4.555669   -0.291474
     72          1           0        4.080133    5.481103    1.997453
     73          1           0        4.510246    4.417037    3.329593
     74          1           0        6.467355    5.817941    2.654557
     75          1           0        6.382527    5.174443    1.002973
     76          1           0        6.814722    4.105436    2.343873
     77          1           0        4.673916    1.964953    2.989413
     78          1           0        4.027564    0.008502    1.640713
     79          1           0        1.123798    0.588306    0.989807
     80          1           0       -1.302857    0.193063    0.924176
     81          1           0       -2.159208    1.849899   -1.466911
     82          1           0       -3.379427    3.583315   -2.719481
 ---------------------------------------------------------------------

 SCF Done:  E(RB3LYP) =  -1549.59947745     A.U. after   14 cycles

 Excitation energies and oscillator strengths:

 Excited state symmetry could not be determined.
 Excited State   1:      Triplet-?Sym    3.6559 eV  339.14 nm  f=0.0000  <S**2>=2.000
     132 ->142         0.20497
     132 ->150        -0.19906
     133 ->143        -0.19844
     133 ->151        -0.13503
     135 ->142        -0.18615
     135 ->150         0.12538
     137 ->143        -0.21081
     137 ->151        -0.17109
     139 ->142        -0.15779
     139 ->150         0.14629
     141 ->143         0.35872
     141 ->151         0.18680
 This state for optimization and/or second-order correction.
 Total Energy, E(TD-HF/TD-DFT) =  -1549.46512733
 Copying the excited state density for this state as the 1-particle RhoCI density.

 Excited state symmetry could not be determined.
 Excited State   2:      Triplet-?Sym    3.6777 eV  337.12 nm  f=0.0000  <S**2>=2.000
     132 ->149         0.10864
     133 ->145        -0.16460
     134 ->143         0.11440
     134 ->148        -0.13928
     135 ->147         0.17032
     136 ->142        -0.15646
     136 ->144        -0.13439
     137 ->146        -0.17856
     138 ->148        -0.15197
     138 ->151         0.11824
     139 ->149         0.18139
     140 ->142         0.11892
     140 ->144        -0.25348
     140 ->150         0.12589
     141 ->145        -0.18015
     141 ->146        -0.21437

 Excited state symmetry could not be determined.
 Excited State   3:      Singlet-?Sym    4.9735 eV  249.29 nm  f=0.0114  <S**2>=0.000
     132 ->143        -0.10169
     135 ->143         0.12859
     137 ->144         0.10206
     139 ->143         0.16988
     140 ->145         0.12619
     141 ->142         0.60598

 Excited state symmetry could not be determined.
 Excited State   4:      Singlet-?Sym    5.1024 eV  242.99 nm  f=0.0481  <S**2>=0.000
     136 ->144         0.15200
     137 ->145        -0.12922
     139 ->147         0.10025
     140 ->142        -0.30640
     140 ->144        -0.17176
     141 ->143         0.34084
     141 ->145        -0.31582
     141 ->146         0.17060

 Alpha  occ. eigenvalues --  -10.19972 -10.19972 -10.18952 -10.18952 -10.18895
 Alpha  occ. eigenvalues --  -10.18895 -10.18887 -10.18887 -10.18719 -10.18719
 Alpha  occ. eigenvalues --  -10.18714 -10.18713 -10.18475 -10.18474 -10.18468
 Alpha  occ. eigenvalues --  -10.18468 -10.18187 -10.18141 -10.18141 -10.18141
 Alpha  occ. eigenvalues --  -10.18140 -10.18131 -10.18074 -10.18074 -10.18074
 Alpha  occ. eigenvalues --  -10.18074 -10.18034 -10.18034 -10.18029 -10.18029
 Alpha  occ. eigenvalues --  -10.17926 -10.17898 -10.17898 -10.17897 -10.17897
 Alpha  occ. eigenvalues --  -10.17873 -10.17483 -10.17483 -10.17467 -10.17467
 Alpha  occ. eigenvalues --   -0.86617  -0.85966  -0.84656  -0.84656  -0.84375
 Alpha  occ. eigenvalues --   -0.81050  -0.79597  -0.77764  -0.77760  -0.76421
 Alpha  occ. eigenvalues --   -0.74684  -0.73665  -0.73596  -0.73523  -0.73502
 Alpha  occ. eigenvalues --   -0.73480  -0.71942  -0.71315  -0.71271  -0.67907
 Alpha  occ. eigenvalues --   -0.65801  -0.62606  -0.62542  -0.61707  -0.61121
 Alpha  occ. eigenvalues --   -0.60305  -0.59871  -0.59762  -0.59722  -0.59596
 Alpha  occ. eigenvalues --   -0.57305  -0.56731  -0.56636  -0.55557  -0.55185
 Alpha  occ. eigenvalues --   -0.50150  -0.49693  -0.49565  -0.48305  -0.48164
 Alpha  occ. eigenvalues --   -0.47033  -0.46332  -0.46212  -0.45680  -0.45602
 Alpha  occ. eigenvalues --   -0.44842  -0.44524  -0.44362  -0.43911  -0.43314
 Alpha  occ. eigenvalues --   -0.42391  -0.42282  -0.42263  -0.41954  -0.41761
 Alpha  occ. eigenvalues --   -0.41504  -0.41301  -0.41084  -0.40996  -0.40850
 Alpha  occ. eigenvalues --   -0.40810  -0.40787  -0.40697  -0.39370  -0.38459
 Alpha  occ. eigenvalues --   -0.38386  -0.38241  -0.38040  -0.37075  -0.36743
 Alpha  occ. eigenvalues --   -0.36675  -0.36492  -0.35262  -0.34811  -0.34622
 Alpha  occ. eigenvalues --   -0.34615  -0.34325  -0.34186  -0.33910  -0.33696
 Alpha  occ. eigenvalues --   -0.33662  -0.33352  -0.33060  -0.32829  -0.32779
 Alpha  occ. eigenvalues --   -0.32375  -0.32351  -0.31904  -0.31869  -0.31612
 Alpha  occ. eigenvalues --   -0.31472  -0.24608  -0.24560  -0.24417  -0.24293
 Alpha  occ. eigenvalues --   -0.24091  -0.23496  -0.23449  -0.23140  -0.22279
 Alpha  occ. eigenvalues --   -0.21537
 Alpha virt. eigenvalues --   -0.00735  -0.00502  -0.00242  -0.00180   0.00411
 Alpha virt. eigenvalues --    0.00741   0.01356   0.01379   0.01655   0.01716
 Alpha virt. eigenvalues --    0.09690   0.09859   0.09915   0.10069   0.10590

 Mulliken charges:
               1
     1  C   -0.432989
     2  C   -0.340034
     3  C    0.179822
     4  C   -0.184125
     5  C   -0.171855
     6  C    0.162374
     7  C   -0.345632
     8  C    0.162425
     9  C   -0.183935
    10  C   -0.188864
    11  C    0.179700
    12  C   -0.340136
    13  C   -0.432775
    14  C   -0.184055
    15  C   -0.172074
    16  C    0.166325
    17  C   -0.174387
    18  C   -0.174403
    19  C    0.166333
    20  C   -0.345626
    21  C    0.162358
    22  C   -0.171843
    23  C   -0.184131
    24  C    0.179823
    25  C   -0.340035
    26  C   -0.432987
    27  C   -0.189176
    28  C   -0.184972
    29  C    0.162425
    30  C   -0.172088
    31  C   -0.184057
    32  C    0.179722
    33  C   -0.340138
    34  C   -0.432777
    35  C   -0.188876
    36  C   -0.183927
    37  C   -0.192066
    38  C   -0.192072
    39  C   -0.184966
    40  C   -0.189185
    41  H    0.142257
    42  H    0.148690
    43  H    0.149020
    44  H    0.141815
    45  H    0.142093
    46  H    0.120163
    47  H    0.125031
    48  H    0.141574
    49  H    0.139117
    50  H    0.120608
    51  H    0.141897
    52  H    0.141708
    53  H    0.148405
    54  H    0.149542
    55  H    0.142137
    56  H    0.119948
    57  H    0.125033
    58  H    0.126187
    59  H    0.126186
    60  H    0.141575
    61  H    0.125030
    62  H    0.120164
    63  H    0.142094
    64  H    0.141814
    65  H    0.149019
    66  H    0.148690
    67  H    0.142256
    68  H    0.120648
    69  H    0.140266
    70  H    0.125034
    71  H    0.119948
    72  H    0.141706
    73  H    0.141898
    74  H    0.142138
    75  H    0.148406
    76  H    0.149542
    77  H    0.120608
    78  H    0.139119
    79  H    0.140297
    80  H    0.140300
    81  H    0.140266
    82  H    0.120650
 Sum of Mulliken charges =  -0.00000

 Dipole moment (field-independent basis, Debye):
    X=             -0.0213    Y=              0.0930    Z=              0.2278  Tot=              0.2470
 Quadrupole moment (field-independent basis, Debye-Ang):
   XX=           -226.8274   YY=           -222.0729   ZZ=           -227.3041
   XY=             -1.3814   XZ=              0.7203   YZ=             -2.7507

 Normal termination of Gaussian 16 at Sat Nov  5 10:38:16 2022.
