 Gaussian 16, Revision B.01,
 Gaussian 16:  ES64L-G16RevB.01 20-Dec-2017

 -----------------------------
 #p b3lyp/6-31g(d) opt SCF=XQC
 -----------------------------

 ------------------------------
 Gaussian input prepared by ASE
 ------------------------------
 Symbolic Z-matrix:
 Charge =  0 Multiplicity = 1

 SCF Done:  E(RB3LYP) =  -1549.58781960     A.U. after   14 cycles
 SCF Done:  E(RB3LYP) =  -1549.59888541     A.U. after   12 cycles
 SCF Done:  E(RB3LYP) =  -1549.59940121     A.U. after   11 cycles
 SCF Done:  E(RB3LYP) =  -1549.59946025     A.U. after   10 cycles
 SCF Done:  E(RB3LYP) =  -1549.59947253     A.U. after    9 cycles
 SCF Done:  E(RB3LYP) =  -1549.59948224     A.U. after    9 cycles
 SCF Done:  E(RB3LYP) =  -1549.59948706     A.U. after    9 cycles
 SCF Done:  E(RB3LYP) =  -1549.59948752     A.U. after    9 cycles
 SCF Done:  E(RB3LYP) =  -1549.59948761     A.U. after    7 cycles
 SCF Done:  E(RB3LYP) =  -1549.59948766     A.U. after    6 cycles
 SCF Done:  E(RB3LYP) =  -1549.59948770     A.U. after    7 cycles
 SCF Done:  E(RB3LYP) =  -1549.59948771     A.U. after    5 cycles
 SCF Done:  E(RB3LYP) =  -1549.59948771     A.U. after    6 cycles
 Optimization completed.
    -- Stationary point found.

                         Standard orientation:
 ---------------------------------------------------------------------
 Center     Atomic      Atomic             Coordinates (Angstroms)
 Number     Number       Type             X           Y           Z
 ---------------------------------------------------------------------
      1          6           0        7.503878   -3.956565   -0.822693
      2          6           0        6.482190   -3.801247   -1.963766
      3          6           0        5.526103   -2.647564   -1.744952
      4          6           0        5.840832   -1.353490   -2.182380
      5          6           0        4.977188   -0.285826   -1.949512
      6          6           0        3.763085   -0.468720   -1.272740
      7          6           0        2.857331    0.740871   -1.020056
      8          6           0        3.304122    1.578114    0.182763
      9          6           0        3.954467    1.027191    1.292619
     10          6           0        4.314814    1.825128    2.380279
     11          6           0        4.046673    3.198525    2.396551
     12          6           0        4.482765    4.069502    3.555888
     13          6           0        5.889693    4.663903    3.363036
     14          6           0        3.396910    3.748112    1.282640
     15          6           0        3.032848    2.953520    0.198175
     16          6           0        1.371570    0.371231   -0.969588
     17          6           0        0.671817    0.180554   -2.170408
     18          6           0       -0.671767   -0.180610   -2.170410
     19          6           0       -1.371530   -0.371269   -0.969592
     20          6           0       -2.857288   -0.740920   -1.020075
     21          6           0       -3.763058    0.468655   -1.272792
     22          6           0       -4.977209    0.285702   -1.949463
     23          6           0       -5.840869    1.353347   -2.182361
     24          6           0       -5.526110    2.647457   -1.745064
     25          6           0       -6.482213    3.801122   -1.963907
     26          6           0       -7.503806    3.956547   -0.822763
     27          6           0       -4.312626    2.828670   -1.071994
     28          6           0       -3.443393    1.760722   -0.840582
     29          6           0       -3.304098   -1.578133    0.182757
     30          6           0       -3.032973   -2.953566    0.198149
     31          6           0       -3.397054   -3.748120    1.282638
     32          6           0       -4.046686   -3.198465    2.396589
     33          6           0       -4.482802   -4.069392    3.555954
     34          6           0       -5.889896   -4.663461    3.363292
     35          6           0       -4.314681   -1.825038    2.380336
     36          6           0       -3.954316   -1.027139    1.292655
     37          6           0       -0.673880   -0.185751    0.227723
     38          6           0        0.673911    0.185731    0.227725
     39          6           0        3.443451   -1.760751   -0.840398
     40          6           0        4.312667   -2.828719   -1.071780
     41          1           0        8.179900   -4.798359   -1.013027
     42          1           0        6.999220   -4.134599    0.133623
     43          1           0        8.110764   -3.050652   -0.713367
     44          1           0        7.019861   -3.658485   -2.909940
     45          1           0        5.914010   -4.734467   -2.066857
     46          1           0        6.771622   -1.181740   -2.719672
     47          1           0        5.247660    0.708119   -2.300333
     48          1           0        2.974127    1.391222   -1.897460
     49          1           0        4.188996   -0.033096    1.306676
     50          1           0        4.816561    1.368855    3.231554
     51          1           0        4.464939    3.482090    4.482750
     52          1           0        3.763180    4.887084    3.691955
     53          1           0        5.933368    5.283607    2.460245
     54          1           0        6.638808    3.871167    3.257083
     55          1           0        6.172702    5.288259    4.218571
     56          1           0        3.172893    4.813059    1.265248
     57          1           0        2.522004    3.405690   -0.649655
     58          1           0        1.191020    0.311601   -3.117677
     59          1           0       -1.190963   -0.311672   -3.117681
     60          1           0       -2.974062   -1.391292   -1.897466
     61          1           0       -5.247707   -0.708273   -2.300180
     62          1           0       -6.771697    1.181551   -2.719572
     63          1           0       -5.914040    4.734331   -2.067131
     64          1           0       -7.019962    3.658273   -2.910023
     65          1           0       -8.110684    3.050644   -0.713303
     66          1           0       -6.999069    4.134669    0.133495
     67          1           0       -8.179844    4.798324   -1.013120
     68          1           0       -4.034860    3.823967   -0.730227
     69          1           0       -2.500274    1.939902   -0.332809
     70          1           0       -2.522231   -3.405792   -0.649714
     71          1           0       -3.173155   -4.813092    1.265230
     72          1           0       -3.763383   -4.887144    3.691876
     73          1           0       -4.464701   -3.482024    4.482840
     74          1           0       -6.172919   -5.287787    4.218844
     75          1           0       -5.933849   -5.283117    2.460482
     76          1           0       -6.638845   -3.870549    3.257486
     77          1           0       -4.816325   -1.368711    3.231643
     78          1           0       -4.188733    0.033172    1.306724
     79          1           0       -1.182557   -0.337381    1.175189
     80          1           0        1.182583    0.337374    1.175191
     81          1           0        2.500367   -1.939888   -0.332544
     82          1           0        4.034924   -3.823987   -0.729911
 ---------------------------------------------------------------------

 The electronic state is 1-A.
 Alpha  occ. eigenvalues --  -10.19972 -10.19972 -10.18952 -10.18952 -10.18895
 Alpha  occ. eigenvalues --  -10.18895 -10.18887 -10.18887 -10.18719 -10.18719
 Alpha  occ. eigenvalues --  -10.18714 -10.18714 -10.18475 -10.18475 -10.18468
 Alpha  occ. eigenvalues --  -10.18468 -10.18187 -10.18141 -10.18141 -10.18141
 Alpha  occ. eigenvalues --  -10.18141 -10.18131 -10.18074 -10.18074 -10.18074
 Alpha  occ. eigenvalues --  -10.18074 -10.18034 -10.18034 -10.18030 -10.18030
 Alpha  occ. eigenvalues --  -10.17927 -10.17898 -10.17898 -10.17897 -10.17897
 Alpha  occ. eigenvalues --  -10.17873 -10.17483 -10.17483 -10.17467 -10.17467
 Alpha  occ. eigenvalues --   -0.86617  -0.85966  -0.84656  -0.84656  -0.84375
 Alpha  occ. eigenvalues --   -0.81050  -0.79597  -0.77764  -0.77760  -0.76421
 Alpha  occ. eigenvalues --   -0.74684  -0.73665  -0.73596  -0.73523  -0.73502
 Alpha  occ. eigenvalues --   -0.73480  -0.71942  -0.71315  -0.71271  -0.67907
 Alpha  occ. eigenvalues --   -0.65801  -0.62606  -0.62542  -0.61707  -0.61121
 Alpha  occ. eigenvalues --   -0.60305  -0.59871  -0.59762  -0.59722  -0.59596
 Alpha  occ. eigenvalues --   -0.57305  -0.56731  -0.56636  -0.55558  -0.55185
 Alpha  occ. eigenvalues --   -0.50150  -0.49693  -0.49565  -0.48305  -0.48164
 Alpha  occ. eigenvalues --   -0.47033  -0.46332  -0.46212  -0.45680  -0.45602
 Alpha  occ. eigenvalues --   -0.44842  -0.44524  -0.44362  -0.43911  -0.43314
 Alpha  occ. eigenvalues --   -0.42391  -0.42282  -0.42263  -0.41954  -0.41761
 Alpha  occ. eigenvalues --   -0.41504  -0.41301  -0.41084  -0.40996  -0.40850
 Alpha  occ. eigenvalues --   -0.40810  -0.40787  -0.40697  -0.39370  -0.38459
 Alpha  occ. eigenvalues --   -0.38386  -0.38241  -0.38040  -0.37075  -0.36743
 Alpha  occ. eigenvalues --   -0.36675  -0.36492  -0.35262  -0.34811  -0.34622
 Alpha  occ. eigenvalues --   -0.34615  -0.34325  -0.34186  -0.33910  -0.33696
 Alpha  occ. eigenvalues --   -0.33662  -0.33352  -0.33060  -0.32829  -0.32779
 Alpha  occ. eigenvalues --   -0.32375  -0.32351  -0.31904  -0.31869  -0.31612
 Alpha  occ. eigenvalues --   -0.31472  -0.24608  -0.24560  -0.24417  -0.24293
 Alpha  occ. eigenvalues --   -0.24091  -0.23496  -0.23449  -0.23140  -0.22279
 Alpha  occ. eigenvalues --   -0.21537
 Alpha virt. eigenvalues --   -0.00735  -0.00502  -0.00242  -0.00180   0.00411
 Alpha virt. eigenvalues --    0.00741   0.01356   0.01379   0.01655   0.01716
 Alpha virt. eigenvalues --    0.09690   0.09859   0.09915   0.10069   0.10590

 Mulliken charges:
               1
     1  C   -0.432975
     2  C   -0.340034
     3  C    0.179785
     4  C   -0.184117
     5  C   -0.171852
     6  C    0.162380
     7  C   -0.345627
     8  C    0.162407
     9  C   -0.183930
    10  C   -0.188868
    11  C    0.179704
    12  C   -0.340129
    13  C   -0.432778
    14  C   -0.184061
    15  C   -0.172073
    16  C    0.166330
    17  C   -0.174392
    18  C   -0.174390
    19  C    0.166324
    20  C   -0.345628
    21  C    0.162380
    22  C   -0.171849
    23  C   -0.184118
    24  C    0.179786
    25  C   -0.340034
    26  C   -0.432975
    27  C   -0.189162
    28  C   -0.184970
    29  C    0.162412
    30  C   -0.172079
    31  C   -0.184061
    32  C    0.179704
    33  C   -0.340129
    34  C   -0.432778
    35  C   -0.188865
    36  C   -0.183929
    37  C   -0.192074
    38  C   -0.192077
    39  C   -0.184966
    40  C   -0.189162
    41  H    0.142255
    42  H    0.148687
    43  H    0.149017
    44  H    0.141816
    45  H    0.142095
    46  H    0.120163
    47  H    0.125029
    48  H    0.141575
    49  H    0.139122
    50  H    0.120609
    51  H    0.141896
    52  H    0.141708
    53  H    0.148405
    54  H    0.149543
    55  H    0.142137
    56  H    0.119949
    57  H    0.125035
    58  H    0.126186
    59  H    0.126186
    60  H    0.141575
    61  H    0.125030
    62  H    0.120163
    63  H    0.142095
    64  H    0.141816
    65  H    0.149017
    66  H    0.148687
    67  H    0.142254
    68  H    0.120648
    69  H    0.140262
    70  H    0.125034
    71  H    0.119949
    72  H    0.141706
    73  H    0.141897
    74  H    0.142137
    75  H    0.148406
    76  H    0.149543
    77  H    0.120609
    78  H    0.139121
    79  H    0.140299
    80  H    0.140299
    81  H    0.140262
    82  H    0.120648
 Sum of Mulliken charges =  -0.00000

 Dipole moment (field-independent basis, Debye):
    X=             -0.0000    Y=             -0.0000    Z=              0.2471  Tot=              0.2471
 Quadrupole moment (field-independent basis, Debye-Ang):
   XX=           -226.2759   YY=           -221.4352   ZZ=           -228.4263
   XY=             -2.3079   XZ=             -0.0003   YZ=              0.0000

 Normal termination of Gaussian 16 at Fri Nov  4 23:30:57 2022.
