 Gaussian 16, Revision B.01,
 Gaussian 16:  ES64L-G16RevB.01 20-Dec-2017

 -----------------------------
 #p b3lyp/6-31g(d) opt SCF=XQC
 -----------------------------

 ------------------------------
 Gaussian input prepared by ASE
 ------------------------------
 Symbolic Z-matrix:
 Charge =  0 Multiplicity = 1

 SCF Done:  E(RB3LYP) =  -2162.48107822     A.U. after   16 cycles
 SCF Done:  E(RB3LYP) =  -2162.49288832     A.U. after   15 cycles
 SCF Done:  E(RB3LYP) =  -2162.50073145     A.U. after   14 cycles
 SCF Done:  E(RB3LYP) =  -2162.50536294     A.U. after   13 cycles
 SCF Done:  E(RB3LYP) =  -2162.50732613     A.U. after   13 cycles
 SCF Done:  E(RB3LYP) =  -2162.50826498     A.U. after   13 cycles
 SCF Done:  E(RB3LYP) =  -2162.50891191     A.U. after   12 cycles
 SCF Done:  E(RB3LYP) =  -2162.50907048     A.U. after   12 cycles
 SCF Done:  E(RB3LYP) =  -2162.50920900     A.U. after   12 cycles
 SCF Done:  E(RB3LYP) =  -2162.50928374     A.U. after   12 cycles
 SCF Done:  E(RB3LYP) =  -2162.50937298     A.U. after   10 cycles
 SCF Done:  E(RB3LYP) =  -2162.50938287     A.U. after   10 cycles
 SCF Done:  E(RB3LYP) =  -2162.50938862     A.U. after   10 cycles
 SCF Done:  E(RB3LYP) =  -2162.50939310     A.U. after   10 cycles
 SCF Done:  E(RB3LYP) =  -2162.50939683     A.U. after   10 cycles
 SCF Done:  E(RB3LYP) =  -2162.50939990     A.U. after   10 cycles
 SCF Done:  E(RB3LYP) =  -2162.50940050     A.U. after    9 cycles
 SCF Done:  E(RB3LYP) =  -2162.50940081     A.U. after    8 cycles
 SCF Done:  E(RB3LYP) =  -2162.50940089     A.U. after    7 cycles
 SCF Done:  E(RB3LYP) =  -2162.50940093     A.U. after    7 cycles
 Optimization completed.
    -- Stationary point found.

                         Standard orientation:
 ---------------------------------------------------------------------
 Center     Atomic      Atomic             Coordinates (Angstroms)
 Number     Number       Type             X           Y           Z
 ---------------------------------------------------------------------
      1          8           0        0.966983    0.084551   -2.232917
      2         15           0        1.571645   -0.224381   -0.901639
      3          6           0        3.132352   -1.170144   -1.121048
      4          6           0        3.597978   -1.351290   -2.428581
      5          6           0        4.730896   -2.141642   -2.623946
      6          6           0        5.342777   -2.721857   -1.515009
      7          6           0        4.793434   -2.486278   -0.251648
      8          7           0        3.712839   -1.728225   -0.047454
      9          7           0        1.991732    1.121230    0.068677
     10          6           0        3.362127    1.587649    0.072741
     11          6           0        3.786118    2.502980   -0.897781
     12          6           0        5.096688    2.980183   -0.880060
     13          6           0        5.986148    2.547925    0.106385
     14          6           0        5.561137    1.635761    1.074374
     15          6           0        4.250706    1.154696    1.061403
     16          6           0        0.997136    2.068537    0.487318
     17          6           0        1.292623    2.943817    1.545861
     18          6           0        0.335428    3.857514    1.979498
     19          6           0       -0.924112    3.909419    1.387174
     20          6           0       -1.241264    3.038220    0.333477
     21          6           0       -2.576227    3.090105   -0.320083
     22          6           0       -3.730849    3.392049    0.423791
     23          6           0       -4.983208    3.455254   -0.186628
     24          6           0       -5.111552    3.210982   -1.555290
     25          6           0       -3.975304    2.904210   -2.305904
     26          6           0       -2.722552    2.845952   -1.696947
     27          6           0       -0.268004    2.129808   -0.113883
     28          7           0        0.514718   -1.163047    0.052926
     29          6           0        0.812131   -1.627649    1.387509
     30          6           0        0.879273   -0.743585    2.469656
     31          6           0        1.149695   -1.227321    3.751782
     32          6           0        1.331976   -2.592429    3.971382
     33          6           0        1.243354   -3.478100    2.894643
     34          6           0        0.991369   -3.000098    1.611188
     35          6           0       -0.616821   -1.790598   -0.591829
     36          6           0       -0.456884   -2.664292   -1.672236
     37          6           0       -1.576793   -3.277386   -2.232570
     38          6           0       -2.848333   -3.038871   -1.715611
     39          6           0       -3.026108   -2.166072   -0.629345
     40          6           0       -4.380227   -1.896945   -0.079933
     41          6           0       -5.320153   -2.932381    0.056967
     42          6           0       -6.592157   -2.681792    0.569732
     43          6           0       -6.951780   -1.388958    0.955320
     44          6           0       -6.028182   -0.350603    0.822366
     45          6           0       -4.755727   -0.600759    0.310463
     46          6           0       -1.894052   -1.543501   -0.082392
     47          1           0        3.070878   -0.883497   -3.252895
     48          1           0        5.125983   -2.301375   -3.623631
     49          1           0        6.225240   -3.346287   -1.619039
     50          1           0        5.241751   -2.927122    0.637086
     51          1           0        3.082130    2.834178   -1.655569
     52          1           0        5.422494    3.688473   -1.637040
     53          1           0        7.006669    2.921170    0.120551
     54          1           0        6.249791    1.297020    1.843805
     55          1           0        3.909128    0.435607    1.797932
     56          1           0        2.267621    2.910400    2.018924
     57          1           0        0.580735    4.539731    2.789320
     58          1           0       -1.648358    4.647194    1.718272
     59          1           0       -3.648475    3.557998    1.494260
     60          1           0       -5.860761    3.690848    0.410365
     61          1           0       -6.087249    3.256925   -2.031257
     62          1           0       -4.061356    2.714904   -3.372552
     63          1           0       -1.845348    2.628005   -2.298991
     64          1           0       -0.497716    1.471326   -0.942514
     65          1           0        0.705693    0.313708    2.313853
     66          1           0        1.197832   -0.529691    4.584016
     67          1           0        1.531567   -2.965119    4.972439
     68          1           0        1.377119   -4.545187    3.052545
     69          1           0        0.926455   -3.686798    0.773113
     70          1           0        0.533258   -2.855170   -2.072442
     71          1           0       -1.454921   -3.946004   -3.080597
     72          1           0       -3.714936   -3.507932   -2.172541
     73          1           0       -5.040734   -3.945872   -0.218223
     74          1           0       -7.300507   -3.499617    0.675360
     75          1           0       -7.943553   -1.192910    1.354390
     76          1           0       -6.298481    0.663311    1.104757
     77          1           0       -4.057986    0.222002    0.184364
     78          1           0       -1.997867   -0.875688    0.766973
 ---------------------------------------------------------------------

 The electronic state is 1-A.
 Alpha  occ. eigenvalues --  -77.19136 -19.08976 -14.35526 -14.34902 -14.34243
 Alpha  occ. eigenvalues --  -10.23280 -10.23277 -10.22992 -10.22852 -10.22250
 Alpha  occ. eigenvalues --  -10.22168 -10.21776 -10.21118 -10.20756 -10.19486
 Alpha  occ. eigenvalues --  -10.19458 -10.19421 -10.19396 -10.19350 -10.19261
 Alpha  occ. eigenvalues --  -10.19180 -10.19055 -10.18918 -10.18686 -10.18577
 Alpha  occ. eigenvalues --  -10.18476 -10.18448 -10.18443 -10.18426 -10.18423
 Alpha  occ. eigenvalues --  -10.18342 -10.18321 -10.18302 -10.18218 -10.18209
 Alpha  occ. eigenvalues --  -10.18184 -10.18181 -10.18131 -10.18095 -10.18045
 Alpha  occ. eigenvalues --  -10.18043 -10.18004 -10.17985 -10.17984 -10.17855
 Alpha  occ. eigenvalues --  -10.17735  -6.64226  -4.80589  -4.80519  -4.80397
 Alpha  occ. eigenvalues --   -0.97956  -0.94916  -0.93093  -0.92179  -0.86000
 Alpha  occ. eigenvalues --   -0.85603  -0.84843  -0.84080  -0.83223  -0.82662
 Alpha  occ. eigenvalues --   -0.81193  -0.77389  -0.76784  -0.76599  -0.75174
 Alpha  occ. eigenvalues --   -0.74816  -0.74296  -0.73837  -0.73785  -0.73359
 Alpha  occ. eigenvalues --   -0.72449  -0.71656  -0.71315  -0.70480  -0.65328
 Alpha  occ. eigenvalues --   -0.63827  -0.62699  -0.61816  -0.61665  -0.61353
 Alpha  occ. eigenvalues --   -0.60994  -0.60770  -0.59860  -0.59504  -0.59044
 Alpha  occ. eigenvalues --   -0.57890  -0.57597  -0.56592  -0.55079  -0.53414
 Alpha  occ. eigenvalues --   -0.52612  -0.52574  -0.51764  -0.50178  -0.49318
 Alpha  occ. eigenvalues --   -0.49178  -0.48877  -0.48415  -0.48009  -0.47196
 Alpha  occ. eigenvalues --   -0.47162  -0.46147  -0.45807  -0.45418  -0.45103
 Alpha  occ. eigenvalues --   -0.44703  -0.44345  -0.43754  -0.43390  -0.43231
 Alpha  occ. eigenvalues --   -0.42790  -0.42502  -0.42316  -0.42266  -0.42109
 Alpha  occ. eigenvalues --   -0.41503  -0.41444  -0.41168  -0.41063  -0.40981
 Alpha  occ. eigenvalues --   -0.40801  -0.40498  -0.39192  -0.37536  -0.36942
 Alpha  occ. eigenvalues --   -0.36535  -0.36516  -0.36406  -0.36212  -0.36137
 Alpha  occ. eigenvalues --   -0.35869  -0.35573  -0.35394  -0.35297  -0.34933
 Alpha  occ. eigenvalues --   -0.34777  -0.34301  -0.34053  -0.33297  -0.33045
 Alpha  occ. eigenvalues --   -0.32902  -0.32784  -0.30618  -0.29716  -0.28468
 Alpha  occ. eigenvalues --   -0.28212  -0.27594  -0.26951  -0.26646  -0.26427
 Alpha  occ. eigenvalues --   -0.25843  -0.25345  -0.24815  -0.24606  -0.24422
 Alpha  occ. eigenvalues --   -0.24268  -0.24018  -0.22231  -0.21676  -0.21091
 Alpha  occ. eigenvalues --   -0.20517
 Alpha virt. eigenvalues --   -0.04428  -0.02655  -0.02367  -0.01942  -0.01157
 Alpha virt. eigenvalues --   -0.00460  -0.00022   0.00397   0.00435   0.00886
 Alpha virt. eigenvalues --    0.01136   0.01409   0.03502   0.03783   0.08477

 Mulliken charges:
               1
     1  O   -0.604691
     2  P    1.207399
     3  C    0.014763
     4  C   -0.159019
     5  C   -0.105151
     6  C   -0.135744
     7  C    0.037776
     8  N   -0.419269
     9  N   -0.730266
    10  C    0.202726
    11  C   -0.125877
    12  C   -0.143615
    13  C   -0.119484
    14  C   -0.145479
    15  C   -0.135095
    16  C    0.298816
    17  C   -0.166856
    18  C   -0.140563
    19  C   -0.176010
    20  C    0.080080
    21  C    0.085015
    22  C   -0.181290
    23  C   -0.137096
    24  C   -0.123821
    25  C   -0.133601
    26  C   -0.174377
    27  C   -0.260249
    28  N   -0.761968
    29  C    0.285665
    30  C   -0.146366
    31  C   -0.151414
    32  C   -0.122359
    33  C   -0.143453
    34  C   -0.132642
    35  C    0.273733
    36  C   -0.129961
    37  C   -0.151232
    38  C   -0.166128
    39  C    0.080709
    40  C    0.081486
    41  C   -0.172403
    42  C   -0.134679
    43  C   -0.126970
    44  C   -0.137873
    45  C   -0.175807
    46  C   -0.191518
    47  H    0.186072
    48  H    0.151531
    49  H    0.145173
    50  H    0.148317
    51  H    0.156968
    52  H    0.135821
    53  H    0.131561
    54  H    0.133692
    55  H    0.162923
    56  H    0.141708
    57  H    0.129819
    58  H    0.128522
    59  H    0.131237
    60  H    0.127875
    61  H    0.129527
    62  H    0.133844
    63  H    0.152862
    64  H    0.201884
    65  H    0.157920
    66  H    0.128962
    67  H    0.125638
    68  H    0.127861
    69  H    0.135717
    70  H    0.139480
    71  H    0.129738
    72  H    0.130318
    73  H    0.128650
    74  H    0.126284
    75  H    0.124895
    76  H    0.127932
    77  H    0.154450
    78  H    0.146976
 Sum of Mulliken charges =  -0.00000

 Dipole moment (field-independent basis, Debye):
    X=              3.5599    Y=             -1.2695    Z=              0.6051  Tot=              3.8276
 Quadrupole moment (field-independent basis, Debye-Ang):
   XX=           -229.7619   YY=           -253.8354   ZZ=           -258.6405
   XY=             -8.0101   XZ=             -4.9572   YZ=              8.5993

 Normal termination of Gaussian 16 at Sat Nov  5 00:42:08 2022.
