 Gaussian 16, Revision B.01,
 Gaussian 16:  ES64L-G16RevB.01 20-Dec-2017

 -------------------------------------------------------------------
 #p b3lyp/6-31g(d) 6D 10F nosymm GFInput td=(50-50,nstate=2) SCF=XQC
 -------------------------------------------------------------------

 ------------------------------
 Gaussian input prepared by ASE
 ------------------------------
 Symbolic Z-matrix:
 Charge =  0 Multiplicity = 1

                          Input orientation:
 ---------------------------------------------------------------------
 Center     Atomic      Atomic             Coordinates (Angstroms)
 Number     Number       Type             X           Y           Z
 ---------------------------------------------------------------------
      1          8           0        0.749081   -1.030207   -2.292012
      2         15           0        0.454883   -1.690204   -0.983880
      3          6           0        0.094930   -3.473895   -1.243293
      4          6           0        0.265150   -3.984637   -2.535358
      5          6           0       -0.088113   -5.313092   -2.773555
      6          6           0       -0.601492   -6.069050   -1.722003
      7          6           0       -0.740695   -5.461938   -0.470847
      8          7           0       -0.402439   -4.193327   -0.225420
      9          7           0        1.705873   -1.647109    0.183091
     10          6           0        2.576098   -2.794938    0.327113
     11          6           0        3.710990   -2.911018   -0.484095
     12          6           0        4.570373   -3.998610   -0.328421
     13          6           0        4.301542   -4.970980    0.637646
     14          6           0        3.169668   -4.852939    1.446725
     15          6           0        2.306011   -3.766678    1.295228
     16          6           0        2.217110   -0.397231    0.671267
     17          6           0        2.974928   -0.386454    1.854286
     18          6           0        3.464299    0.817342    2.354783
     19          6           0        3.201521    2.021478    1.705947
     20          6           0        2.439955    2.032570    0.527072
     21          6           0        2.162306    3.307576   -0.186530
     22          6           0        1.970228    4.504561    0.526214
     23          6           0        1.722977    5.705365   -0.138575
     24          6           0        1.655046    5.736264   -1.532779
     25          6           0        1.837777    4.555067   -2.253873
     26          6           0        2.090003    3.355467   -1.589831
     27          6           0        1.962643    0.815136    0.014620
     28          7           0       -0.899858   -0.982401   -0.226865
     29          6           0       -1.437669   -1.401426    1.046162
     30          6           0       -0.747370   -1.171384    2.241022
     31          6           0       -1.303928   -1.571462    3.458050
     32          6           0       -2.557797   -2.180658    3.498824
     33          6           0       -3.257196   -2.390828    2.307900
     34          6           0       -2.699982   -2.010062    1.089799
     35          6           0       -1.751106   -0.118215   -1.013295
     36          6           0       -2.360070   -0.559944   -2.192379
     37          6           0       -3.206524    0.298624   -2.892689
     38          6           0       -3.461622    1.583930   -2.419550
     39          6           0       -2.860006    2.042314   -1.235786
     40          6           0       -3.117335    3.415943   -0.730961
     41          6           0       -4.405290    3.974596   -0.789373
     42          6           0       -4.648602    5.264185   -0.318759
     43          6           0       -3.607732    6.023477    0.219283
     44          6           0       -2.322792    5.481258    0.281089
     45          6           0       -2.079057    4.191390   -0.188589
     46          6           0       -1.998856    1.175171   -0.546739
     47          1           0        0.658092   -3.342548   -3.316048
     48          1           0        0.034502   -5.747422   -3.762140
     49          1           0       -0.891998   -7.106222   -1.861127
     50          1           0       -1.142808   -6.020194    0.372857
     51          1           0        3.910144   -2.144714   -1.227499
     52          1           0        5.448719   -4.086327   -0.962184
     53          1           0        4.972227   -5.817337    0.759457
     54          1           0        2.956877   -5.607043    2.199760
     55          1           0        1.415565   -3.667676    1.906411
     56          1           0        3.182537   -1.316262    2.371860
     57          1           0        4.061954    0.811406    3.262627
     58          1           0        3.614873    2.947256    2.093947
     59          1           0        1.994135    4.489383    1.612228
     60          1           0        1.578055    6.617358    0.435248
     61          1           0        1.459383    6.670732   -2.051552
     62          1           0        1.790255    4.566259   -3.339504
     63          1           0        2.252094    2.449429   -2.166257
     64          1           0        1.394936    0.813762   -0.907716
     65          1           0        0.211408   -0.668744    2.221762
     66          1           0       -0.757537   -1.385536    4.379195
     67          1           0       -2.991314   -2.480489    4.449095
     68          1           0       -4.238063   -2.858892    2.325681
     69          1           0       -3.240579   -2.176642    0.163437
     70          1           0       -2.166595   -1.562439   -2.559192
     71          1           0       -3.669590   -0.039114   -3.816028
     72          1           0       -4.108160    2.249817   -2.983808
     73          1           0       -5.226040    3.381973   -1.184513
     74          1           0       -5.654734    5.673174   -0.365475
     75          1           0       -3.796710    7.029167    0.585588
     76          1           0       -1.499819    6.065445    0.683916
     77          1           0       -1.068643    3.793850   -0.162036
     78          1           0       -1.531025    1.495561    0.378819
 ---------------------------------------------------------------------

 SCF Done:  E(RB3LYP) =  -2162.50940767     A.U. after   16 cycles

 Excitation energies and oscillator strengths:

 Excited state symmetry could not be determined.
 Excited State   1:      Triplet-?Sym    3.2084 eV  386.44 nm  f=0.0000  <S**2>=2.000
     149 ->174        -0.12269
     155 ->169         0.10968
     155 ->170        -0.12826
     158 ->164        -0.38612
     158 ->173         0.10027
     160 ->164         0.31764
     160 ->166        -0.12675
     161 ->164         0.31700
     161 ->166        -0.12354
 This state for optimization and/or second-order correction.
 Total Energy, E(TD-HF/TD-DFT) =  -2162.39150170
 Copying the excited state density for this state as the 1-particle RhoCI density.

 Excited state symmetry could not be determined.
 Excited State   2:      Triplet-?Sym    3.2867 eV  377.23 nm  f=0.0000  <S**2>=2.000
     151 ->175         0.11154
     154 ->168        -0.10273
     157 ->171         0.18360
     159 ->165        -0.47755
     159 ->168        -0.12953
     160 ->165         0.19166
     161 ->165        -0.24131
     161 ->168         0.11126

 Excited state symmetry could not be determined.
 Excited State   3:      Singlet-?Sym    3.7572 eV  329.99 nm  f=0.0229  <S**2>=0.000
     160 ->162        -0.12909
     161 ->162         0.68327

 Excited state symmetry could not be determined.
 Excited State   4:      Singlet-?Sym    3.9144 eV  316.74 nm  f=0.0070  <S**2>=0.000
     158 ->162         0.13675
     159 ->162         0.11681
     160 ->162         0.65583
     161 ->162         0.13041

 Alpha  occ. eigenvalues --  -77.19136 -19.08976 -14.35526 -14.34901 -14.34243
 Alpha  occ. eigenvalues --  -10.23280 -10.23277 -10.22992 -10.22851 -10.22250
 Alpha  occ. eigenvalues --  -10.22168 -10.21776 -10.21117 -10.20756 -10.19486
 Alpha  occ. eigenvalues --  -10.19459 -10.19421 -10.19396 -10.19350 -10.19261
 Alpha  occ. eigenvalues --  -10.19179 -10.19055 -10.18918 -10.18686 -10.18577
 Alpha  occ. eigenvalues --  -10.18476 -10.18449 -10.18443 -10.18426 -10.18423
 Alpha  occ. eigenvalues --  -10.18342 -10.18321 -10.18302 -10.18218 -10.18209
 Alpha  occ. eigenvalues --  -10.18184 -10.18181 -10.18131 -10.18095 -10.18045
 Alpha  occ. eigenvalues --  -10.18044 -10.18004 -10.17986 -10.17984 -10.17855
 Alpha  occ. eigenvalues --  -10.17735  -6.64226  -4.80589  -4.80519  -4.80397
 Alpha  occ. eigenvalues --   -0.97956  -0.94916  -0.93093  -0.92179  -0.86000
 Alpha  occ. eigenvalues --   -0.85603  -0.84843  -0.84080  -0.83223  -0.82662
 Alpha  occ. eigenvalues --   -0.81193  -0.77389  -0.76784  -0.76599  -0.75174
 Alpha  occ. eigenvalues --   -0.74816  -0.74296  -0.73837  -0.73785  -0.73359
 Alpha  occ. eigenvalues --   -0.72449  -0.71656  -0.71315  -0.70480  -0.65328
 Alpha  occ. eigenvalues --   -0.63827  -0.62699  -0.61816  -0.61665  -0.61353
 Alpha  occ. eigenvalues --   -0.60994  -0.60770  -0.59860  -0.59504  -0.59044
 Alpha  occ. eigenvalues --   -0.57890  -0.57597  -0.56592  -0.55079  -0.53414
 Alpha  occ. eigenvalues --   -0.52612  -0.52574  -0.51764  -0.50178  -0.49319
 Alpha  occ. eigenvalues --   -0.49178  -0.48877  -0.48415  -0.48009  -0.47196
 Alpha  occ. eigenvalues --   -0.47162  -0.46147  -0.45807  -0.45418  -0.45103
 Alpha  occ. eigenvalues --   -0.44703  -0.44345  -0.43754  -0.43390  -0.43231
 Alpha  occ. eigenvalues --   -0.42790  -0.42503  -0.42316  -0.42266  -0.42109
 Alpha  occ. eigenvalues --   -0.41503  -0.41444  -0.41168  -0.41063  -0.40981
 Alpha  occ. eigenvalues --   -0.40801  -0.40498  -0.39192  -0.37536  -0.36942
 Alpha  occ. eigenvalues --   -0.36535  -0.36516  -0.36406  -0.36212  -0.36137
 Alpha  occ. eigenvalues --   -0.35869  -0.35573  -0.35394  -0.35297  -0.34933
 Alpha  occ. eigenvalues --   -0.34777  -0.34301  -0.34053  -0.33297  -0.33045
 Alpha  occ. eigenvalues --   -0.32902  -0.32784  -0.30618  -0.29716  -0.28468
 Alpha  occ. eigenvalues --   -0.28212  -0.27594  -0.26951  -0.26646  -0.26427
 Alpha  occ. eigenvalues --   -0.25843  -0.25345  -0.24815  -0.24606  -0.24422
 Alpha  occ. eigenvalues --   -0.24268  -0.24018  -0.22231  -0.21676  -0.21091
 Alpha  occ. eigenvalues --   -0.20517
 Alpha virt. eigenvalues --   -0.04428  -0.02655  -0.02367  -0.01942  -0.01157
 Alpha virt. eigenvalues --   -0.00459  -0.00022   0.00397   0.00435   0.00886
 Alpha virt. eigenvalues --    0.01136   0.01409   0.03502   0.03783   0.08476

 Mulliken charges:
               1
     1  O   -0.604700
     2  P    1.207291
     3  C    0.014821
     4  C   -0.159042
     5  C   -0.105130
     6  C   -0.135750
     7  C    0.037782
     8  N   -0.419288
     9  N   -0.730233
    10  C    0.202747
    11  C   -0.125904
    12  C   -0.143595
    13  C   -0.119502
    14  C   -0.145460
    15  C   -0.135102
    16  C    0.298801
    17  C   -0.166850
    18  C   -0.140559
    19  C   -0.176015
    20  C    0.080083
    21  C    0.085019
    22  C   -0.181286
    23  C   -0.137105
    24  C   -0.123814
    25  C   -0.133606
    26  C   -0.174380
    27  C   -0.260248
    28  N   -0.761895
    29  C    0.285603
    30  C   -0.146318
    31  C   -0.151424
    32  C   -0.122352
    33  C   -0.143459
    34  C   -0.132624
    35  C    0.273715
    36  C   -0.129958
    37  C   -0.151223
    38  C   -0.166134
    39  C    0.080737
    40  C    0.081478
    41  C   -0.172400
    42  C   -0.134688
    43  C   -0.126961
    44  C   -0.137874
    45  C   -0.175801
    46  C   -0.191535
    47  H    0.186074
    48  H    0.151529
    49  H    0.145172
    50  H    0.148319
    51  H    0.156963
    52  H    0.135819
    53  H    0.131561
    54  H    0.133689
    55  H    0.162927
    56  H    0.141705
    57  H    0.129819
    58  H    0.128523
    59  H    0.131236
    60  H    0.127876
    61  H    0.129527
    62  H    0.133845
    63  H    0.152866
    64  H    0.201884
    65  H    0.157919
    66  H    0.128966
    67  H    0.125638
    68  H    0.127862
    69  H    0.135715
    70  H    0.139479
    71  H    0.129738
    72  H    0.130316
    73  H    0.128651
    74  H    0.126285
    75  H    0.124894
    76  H    0.127934
    77  H    0.154438
    78  H    0.146971
 Sum of Mulliken charges =  -0.00000

 Dipole moment (field-independent basis, Debye):
    X=             -0.1520    Y=             -3.7735    Z=              0.6231  Tot=              3.8276
 Quadrupole moment (field-independent basis, Debye-Ang):
   XX=           -258.2013   YY=           -226.3227   ZZ=           -256.9895
   XY=             -2.0693   XZ=              6.6899   YZ=              7.4519

 Normal termination of Gaussian 16 at Sat Nov  5 10:43:52 2022.
