 Gaussian 16, Revision B.01,
 Gaussian 16:  ES64L-G16RevB.01 20-Dec-2017

 -------------------------------------------------------------------
 #p b3lyp/6-31g(d) 6D 10F nosymm GFInput td=(50-50,nstate=2) SCF=XQC
 -------------------------------------------------------------------

 ------------------------------
 Gaussian input prepared by ASE
 ------------------------------
 Symbolic Z-matrix:
 Charge =  0 Multiplicity = 1

                          Input orientation:
 ---------------------------------------------------------------------
 Center     Atomic      Atomic             Coordinates (Angstroms)
 Number     Number       Type             X           Y           Z
 ---------------------------------------------------------------------
      1          6           0        0.876759   -3.457008   -1.766458
      2          6           0        1.349700   -2.010264   -1.941648
      3          6           0        2.781918   -1.814079   -1.532998
      4          7           0        3.632468   -2.806824   -1.370072
      5          6           0        4.830052   -2.211479   -1.022005
      6          6           0        6.086744   -2.752954   -0.725269
      7          6           0        6.339541   -4.234971   -0.749034
      8          6           0        7.072510   -1.811180   -0.405320
      9          6           0        6.810339   -0.426472   -0.393777
     10          6           0        7.909507    0.570507   -0.064683
     11          8           0        7.589109    1.450141    1.000148
     12          6           0        7.520181    0.850528    2.299846
     13          6           0        6.607804    1.745554    3.132283
     14          6           0        8.917258    0.711013    2.912088
     15          7           0        5.604262    0.094452   -0.681200
     16          6           0        4.680565   -0.810225   -0.974572
     17          7           0        3.353279   -0.563984   -1.304469
     18          6           0        2.797947    0.787848   -1.366922
     19          6           0        2.364517    1.277746   -2.773860
     20          6           0        1.336520    2.400503   -2.489209
     21          6           0        0.754800    2.006417   -1.145126
     22          6           0       -0.389128    2.491858   -0.514987
     23          6           0       -0.737886    2.013675    0.762360
     24          6           0       -1.905336    2.558255    1.514604
     25          6           0       -1.709669    2.936006    2.855171
     26          6           0       -2.729654    3.490358    3.623538
     27          6           0       -3.988795    3.697140    3.060741
     28          6           0       -4.209958    3.326882    1.737583
     29          6           0       -3.195385    2.740342    0.967185
     30          6           0       -3.534402    2.446816   -0.448272
     31          7           0       -3.419079    3.384340   -1.379736
     32          7           0       -3.880134    2.847452   -2.534205
     33          7           0       -4.272566    1.635946   -2.350048
     34          7           0       -4.067339    1.333477   -1.035138
     35          6           0       -4.539226   -0.034299   -0.586710
     36          6           0       -6.082862    0.004040   -0.427727
     37          6           0       -6.723040   -1.035265    0.270362
     38          6           0       -8.108963   -1.061717    0.412662
     39          6           0       -8.891273   -0.040870   -0.130558
     40          6           0       -8.269003    0.995937   -0.821328
     41          6           0       -6.879554    1.016830   -0.974413
     42          6           0       -3.891007   -0.422280    0.772332
     43          6           0       -4.438297    0.063589    1.972267
     44          6           0       -3.912917   -0.303638    3.208070
     45          6           0       -2.831453   -1.184210    3.278071
     46          6           0       -2.283433   -1.682348    2.098638
     47          6           0       -2.806903   -1.304685    0.858938
     48          6           0       -4.104330   -1.014722   -1.713027
     49          6           0       -2.825992   -0.897293   -2.285579
     50          6           0       -2.397923   -1.780400   -3.273516
     51          6           0       -3.235221   -2.809267   -3.711966
     52          6           0       -4.503252   -2.934643   -3.152284
     53          6           0       -4.935275   -2.043528   -2.165320
     54          6           0        0.091766    1.055784    1.377646
     55          6           0        1.248457    0.586087    0.754925
     56          6           0        1.572969    1.064582   -0.511825
     57          1           0        1.496631   -4.144450   -2.347257
     58          1           0       -0.163716   -3.552536   -2.093372
     59          1           0        0.941839   -3.765218   -0.718312
     60          1           0        0.709938   -1.327348   -1.371428
     61          1           0        1.237341   -1.713917   -2.995510
     62          1           0        5.658608   -4.758074   -0.067707
     63          1           0        7.368970   -4.469683   -0.462173
     64          1           0        6.155433   -4.645209   -1.749008
     65          1           0        8.073692   -2.154757   -0.157245
     66          1           0        8.849384    0.029529    0.125199
     67          1           0        8.073062    1.225217   -0.927671
     68          1           0        7.060515   -0.146207    2.215139
     69          1           0        6.495306    1.352052    4.148908
     70          1           0        7.025924    2.756643    3.196347
     71          1           0        5.619858    1.813392    2.666959
     72          1           0        8.862251    0.248130    3.904490
     73          1           0        9.384734    1.696880    3.014136
     74          1           0        9.570441    0.087576    2.291429
     75          1           0        3.624473    1.415941   -1.010514
     76          1           0        3.217788    1.608953   -3.372148
     77          1           0        1.877580    0.458467   -3.313513
     78          1           0        0.579975    2.495140   -3.275469
     79          1           0        1.839172    3.375206   -2.415040
     80          1           0       -0.998956    3.250756   -0.994344
     81          1           0       -0.719846    2.819247    3.285935
     82          1           0       -2.532808    3.780784    4.652005
     83          1           0       -4.787913    4.150907    3.639895
     84          1           0       -5.184339    3.486291    1.284405
     85          1           0       -6.130970   -1.828811    0.714581
     86          1           0       -8.574747   -1.879398    0.956165
     87          1           0       -9.971505   -0.055267   -0.014612
     88          1           0       -8.860709    1.798744   -1.252649
     89          1           0       -6.432314    1.825239   -1.538030
     90          1           0       -5.292244    0.729161    1.943151
     91          1           0       -4.355691    0.095295    4.116229
     92          1           0       -2.429000   -1.484250    4.242000
     93          1           0       -1.448697   -2.377164    2.132454
     94          1           0       -2.371648   -1.725071   -0.038267
     95          1           0       -2.162686   -0.098034   -1.969843
     96          1           0       -1.411257   -1.654777   -3.710868
     97          1           0       -2.903784   -3.495022   -4.486796
     98          1           0       -5.174221   -3.720887   -3.487600
     99          1           0       -5.935672   -2.154489   -1.766534
    100          1           0       -0.187428    0.664709    2.350972
    101          1           0        1.877524   -0.149190    1.250535
 ---------------------------------------------------------------------

 SCF Done:  E(RB3LYP) =  -2314.66975051     A.U. after   16 cycles

 Excitation energies and oscillator strengths:

 Excited state symmetry could not be determined.
 Excited State   1:      Triplet-?Sym    3.3060 eV  375.02 nm  f=0.0000  <S**2>=2.000
     182 ->207         0.15063
     190 ->200        -0.11053
     193 ->196        -0.21661
     194 ->196         0.48826
     194 ->197        -0.15136
     194 ->199         0.10344
 This state for optimization and/or second-order correction.
 Total Energy, E(TD-HF/TD-DFT) =  -2314.54825550
 Copying the excited state density for this state as the 1-particle RhoCI density.

 Excited state symmetry could not be determined.
 Excited State   2:      Triplet-?Sym    3.3487 eV  370.25 nm  f=0.0000  <S**2>=2.000
     193 ->198        -0.15808
     195 ->198         0.64707

 Excited state symmetry could not be determined.
 Excited State   3:      Singlet-?Sym    4.5924 eV  269.98 nm  f=0.0180  <S**2>=0.000
     195 ->196         0.69117

 Excited state symmetry could not be determined.
 Excited State   4:      Singlet-?Sym    4.6524 eV  266.49 nm  f=0.2841  <S**2>=0.000
     192 ->198        -0.10267
     194 ->196         0.64281
     194 ->198         0.10113

 Alpha  occ. eigenvalues --  -19.13273 -14.43389 -14.39418 -14.38581 -14.38330
 Alpha  occ. eigenvalues --  -14.35006 -14.32397 -14.31168 -10.28229 -10.27173
 Alpha  occ. eigenvalues --  -10.25511 -10.24090 -10.23868 -10.22592 -10.22448
 Alpha  occ. eigenvalues --  -10.22021 -10.21792 -10.21496 -10.21406 -10.21319
 Alpha  occ. eigenvalues --  -10.21031 -10.20616 -10.20597 -10.20412 -10.20299
 Alpha  occ. eigenvalues --  -10.20245 -10.20123 -10.20122 -10.19980 -10.19960
 Alpha  occ. eigenvalues --  -10.19937 -10.19916 -10.19905 -10.19894 -10.19868
 Alpha  occ. eigenvalues --  -10.19862 -10.19839 -10.19777 -10.19726 -10.19692
 Alpha  occ. eigenvalues --  -10.19653 -10.19579 -10.19560 -10.19513 -10.19491
 Alpha  occ. eigenvalues --  -10.19469 -10.19444 -10.19429 -10.19400 -10.19317
 Alpha  occ. eigenvalues --  -10.19060 -10.18514 -10.18298 -10.17465 -10.16889
 Alpha  occ. eigenvalues --  -10.16528  -1.12789  -1.02063  -1.01572  -0.95006
 Alpha  occ. eigenvalues --   -0.93012  -0.90115  -0.89595  -0.87490  -0.87037
 Alpha  occ. eigenvalues --   -0.85966  -0.85853  -0.85699  -0.81985  -0.80663
 Alpha  occ. eigenvalues --   -0.80577  -0.78820  -0.77473  -0.77429  -0.76487
 Alpha  occ. eigenvalues --   -0.75872  -0.75475  -0.75259  -0.75200  -0.74797
 Alpha  occ. eigenvalues --   -0.74547  -0.74019  -0.71705  -0.70718  -0.70326
 Alpha  occ. eigenvalues --   -0.69804  -0.68354  -0.67267  -0.65739  -0.64569
 Alpha  occ. eigenvalues --   -0.64415  -0.62771  -0.62465  -0.61988  -0.61631
 Alpha  occ. eigenvalues --   -0.61223  -0.61066  -0.60869  -0.60376  -0.60067
 Alpha  occ. eigenvalues --   -0.59487  -0.58750  -0.57769  -0.56752  -0.55613
 Alpha  occ. eigenvalues --   -0.54437  -0.53991  -0.53219  -0.52544  -0.52174
 Alpha  occ. eigenvalues --   -0.51994  -0.51248  -0.49800  -0.49326  -0.48988
 Alpha  occ. eigenvalues --   -0.48700  -0.47952  -0.47685  -0.47514  -0.47235
 Alpha  occ. eigenvalues --   -0.46779  -0.46542  -0.45741  -0.45469  -0.45452
 Alpha  occ. eigenvalues --   -0.45191  -0.45025  -0.45015  -0.44709  -0.44080
 Alpha  occ. eigenvalues --   -0.43843  -0.43528  -0.43430  -0.43038  -0.42952
 Alpha  occ. eigenvalues --   -0.42814  -0.42601  -0.42146  -0.42085  -0.41805
 Alpha  occ. eigenvalues --   -0.41564  -0.41395  -0.40927  -0.40288  -0.39190
 Alpha  occ. eigenvalues --   -0.39060  -0.38664  -0.38526  -0.38354  -0.37993
 Alpha  occ. eigenvalues --   -0.37899  -0.37574  -0.37414  -0.37071  -0.36995
 Alpha  occ. eigenvalues --   -0.36933  -0.36721  -0.36557  -0.36390  -0.36099
 Alpha  occ. eigenvalues --   -0.35971  -0.35787  -0.35619  -0.35430  -0.35250
 Alpha  occ. eigenvalues --   -0.34669  -0.34645  -0.34500  -0.34319  -0.34253
 Alpha  occ. eigenvalues --   -0.33907  -0.33782  -0.33557  -0.33156  -0.30577
 Alpha  occ. eigenvalues --   -0.29998  -0.29941  -0.29569  -0.28952  -0.28813
 Alpha  occ. eigenvalues --   -0.28040  -0.27297  -0.26798  -0.26364  -0.25798
 Alpha  occ. eigenvalues --   -0.25674  -0.25206  -0.24938  -0.24919  -0.24638
 Alpha  occ. eigenvalues --   -0.24467  -0.24190  -0.23574  -0.22749  -0.22112
 Alpha virt. eigenvalues --   -0.03779  -0.03079  -0.02849  -0.02060  -0.01659
 Alpha virt. eigenvalues --   -0.01420  -0.01223  -0.00879  -0.00449  -0.00163
 Alpha virt. eigenvalues --    0.00012   0.01422   0.02017   0.02689   0.04450

 Mulliken charges:
               1
     1  C   -0.440280
     2  C   -0.366745
     3  C    0.512314
     4  N   -0.575243
     5  C    0.175280
     6  C    0.177243
     7  C   -0.519410
     8  C   -0.267682
     9  C    0.275589
    10  C   -0.082503
    11  O   -0.468458
    12  C    0.151614
    13  C   -0.445993
    14  C   -0.451411
    15  N   -0.565671
    16  C    0.509732
    17  N   -0.561976
    18  C   -0.056572
    19  C   -0.298011
    20  C   -0.352069
    21  C    0.118399
    22  C   -0.257109
    23  C    0.057784
    24  C    0.088344
    25  C   -0.184477
    26  C   -0.121968
    27  C   -0.132336
    28  C   -0.158801
    29  C    0.078514
    30  C    0.424749
    31  N   -0.356334
    32  N   -0.094661
    33  N   -0.057455
    34  N   -0.380594
    35  C    0.025703
    36  C    0.106295
    37  C   -0.173645
    38  C   -0.138014
    39  C   -0.123340
    40  C   -0.135899
    41  C   -0.170043
    42  C    0.109769
    43  C   -0.157677
    44  C   -0.129293
    45  C   -0.126783
    46  C   -0.137264
    47  C   -0.177103
    48  C    0.145234
    49  C   -0.165700
    50  C   -0.135423
    51  C   -0.124776
    52  C   -0.134319
    53  C   -0.176937
    54  C   -0.171301
    55  C   -0.203517
    56  C    0.117959
    57  H    0.170749
    58  H    0.145594
    59  H    0.152627
    60  H    0.171380
    61  H    0.163199
    62  H    0.174720
    63  H    0.150622
    64  H    0.175507
    65  H    0.120788
    66  H    0.120350
    67  H    0.155019
    68  H    0.118754
    69  H    0.133644
    70  H    0.150445
    71  H    0.157786
    72  H    0.137962
    73  H    0.150958
    74  H    0.141550
    75  H    0.206366
    76  H    0.156724
    77  H    0.152340
    78  H    0.164810
    79  H    0.164913
    80  H    0.179659
    81  H    0.142822
    82  H    0.136873
    83  H    0.138080
    84  H    0.147396
    85  H    0.150160
    86  H    0.135737
    87  H    0.134856
    88  H    0.139286
    89  H    0.163635
    90  H    0.148462
    91  H    0.135691
    92  H    0.134158
    93  H    0.136639
    94  H    0.158412
    95  H    0.150311
    96  H    0.136500
    97  H    0.134280
    98  H    0.134130
    99  H    0.150390
   100  H    0.138607
   101  H    0.139379
 Sum of Mulliken charges =  -0.00000

 Dipole moment (field-independent basis, Debye):
    X=             -2.0761    Y=             -3.4934    Z=              4.2705  Tot=              5.8951
 Quadrupole moment (field-independent basis, Debye-Ang):
   XX=           -300.3110   YY=           -333.3718   ZZ=           -312.2748
   XY=              0.6337   XZ=            -17.7938   YZ=             12.0309

 Normal termination of Gaussian 16 at Sat Nov  5 11:01:17 2022.
