 Gaussian 16, Revision B.01,
 Gaussian 16:  ES64L-G16RevB.01 20-Dec-2017

 -------------------------------------------------------------------
 #p b3lyp/6-31g(d) 6D 10F nosymm GFInput td=(50-50,nstate=2) SCF=XQC
 -------------------------------------------------------------------

 ------------------------------
 Gaussian input prepared by ASE
 ------------------------------
 Symbolic Z-matrix:
 Charge =  0 Multiplicity = 1

                          Input orientation:
 ---------------------------------------------------------------------
 Center     Atomic      Atomic             Coordinates (Angstroms)
 Number     Number       Type             X           Y           Z
 ---------------------------------------------------------------------
      1          6           0       -5.609389   -0.955905    0.239376
      2          6           0       -4.214938   -0.395231    0.388043
      3          6           0       -3.709109   -0.046330    1.647012
      4          6           0       -2.418350    0.452780    1.770719
      5          6           0       -1.581161    0.588304    0.652544
      6          6           0       -0.212152    1.158066    0.910609
      7          8           0       -0.093865    2.174314    1.585185
      8          6           0        1.009114    0.447875    0.403563
      9          6           0        0.994259   -0.932271    0.054990
     10          6           0        2.143105   -1.569341   -0.351915
     11          6           0        3.369556   -0.859349   -0.444550
     12          7           0        4.482365   -1.529527   -0.864792
     13          6           0        5.610510   -0.852011   -0.938977
     14          6           0        5.745061    0.522298   -0.611470
     15          6           0        4.634439    1.210338   -0.186981
     16          6           0        3.392664    0.528777   -0.089851
     17          6           0        2.199075    1.152223    0.341866
     18          6           0       -2.077372    0.268650   -0.629261
     19          6           0       -1.278449    0.477372   -1.899317
     20          6           0       -3.389963   -0.211272   -0.726333
     21          1           0       -5.981354   -0.842223   -0.783906
     22          1           0       -5.632685   -2.027287    0.479611
     23          1           0       -6.314792   -0.459315    0.914820
     24          1           0       -4.333847   -0.154620    2.530595
     25          1           0       -2.036030    0.747820    2.743358
     26          1           0        0.063723   -1.486410    0.132553
     27          1           0        2.150702   -2.623834   -0.609124
     28          1           0        6.484187   -1.408850   -1.277199
     29          1           0        6.713090    1.006206   -0.698988
     30          1           0        4.687638    2.264013    0.076521
     31          1           0        2.204697    2.198467    0.634664
     32          1           0       -0.589574   -0.352963   -2.094345
     33          1           0       -0.675472    1.389986   -1.860776
     34          1           0       -1.949449    0.556603   -2.760425
     35          1           0       -3.786233   -0.437354   -1.714656
 ---------------------------------------------------------------------

 SCF Done:  E(RB3LYP) =  -824.944886217     A.U. after   15 cycles

 Excitation energies and oscillator strengths:

 Excited state symmetry could not be determined.
 Excited State   1:      Triplet-?Sym    2.6143 eV  474.25 nm  f=0.0000  <S**2>=2.000
      66 -> 71         0.10787
      68 -> 70        -0.31580
      68 -> 71         0.17933
      69 -> 70         0.55231
 This state for optimization and/or second-order correction.
 Total Energy, E(TD-HF/TD-DFT) =  -824.848810853
 Copying the excited state density for this state as the 1-particle RhoCI density.

 Excited state symmetry could not be determined.
 Excited State   2:      Triplet-?Sym    2.9439 eV  421.16 nm  f=0.0000  <S**2>=2.000
      64 -> 70        -0.10657
      65 -> 70        -0.13636
      66 -> 70         0.26647
      67 -> 70         0.19063
      68 -> 70         0.40629
      69 -> 70         0.23269
      69 -> 71         0.28524

 Excited state symmetry could not be determined.
 Excited State   3:      Singlet-?Sym    3.4253 eV  361.96 nm  f=0.0031  <S**2>=0.000
      64 -> 70        -0.10476
      65 -> 70        -0.16922
      66 -> 70         0.28303
      66 -> 71         0.11174
      67 -> 70         0.22285
      68 -> 70         0.22740
      69 -> 70         0.46895
      69 -> 71         0.12303

 Excited state symmetry could not be determined.
 Excited State   4:      Singlet-?Sym    4.0189 eV  308.50 nm  f=0.0207  <S**2>=0.000
      65 -> 70        -0.13453
      65 -> 71         0.10869
      66 -> 70        -0.21434
      67 -> 70        -0.32223
      68 -> 70        -0.34170
      68 -> 71        -0.11973
      69 -> 70         0.40647

 Alpha  occ. eigenvalues --  -19.13557 -14.33434 -10.27556 -10.23296 -10.23288
 Alpha  occ. eigenvalues --  -10.21646 -10.21196 -10.20708 -10.20623 -10.20600
 Alpha  occ. eigenvalues --  -10.20532 -10.20439 -10.20325 -10.19735 -10.19612
 Alpha  occ. eigenvalues --  -10.19352 -10.18869 -10.18843 -10.18841 -10.18612
 Alpha  occ. eigenvalues --   -1.03422  -0.94832  -0.86440  -0.85721  -0.81412
 Alpha  occ. eigenvalues --   -0.79040  -0.76641  -0.76246  -0.74926  -0.70227
 Alpha  occ. eigenvalues --   -0.69126  -0.65989  -0.64185  -0.61498  -0.60254
 Alpha  occ. eigenvalues --   -0.59090  -0.56023  -0.53272  -0.52401  -0.50932
 Alpha  occ. eigenvalues --   -0.47913  -0.47687  -0.45786  -0.44756  -0.44242
 Alpha  occ. eigenvalues --   -0.43718  -0.42668  -0.42303  -0.41979  -0.41745
 Alpha  occ. eigenvalues --   -0.41331  -0.40997  -0.40904  -0.40133  -0.38827
 Alpha  occ. eigenvalues --   -0.38077  -0.37318  -0.35719  -0.34775  -0.34423
 Alpha  occ. eigenvalues --   -0.33963  -0.33659  -0.31211  -0.26032  -0.25809
 Alpha  occ. eigenvalues --   -0.25579  -0.24575  -0.24092  -0.23500
 Alpha virt. eigenvalues --   -0.07281  -0.04558  -0.01522  -0.00287   0.00988
 Alpha virt. eigenvalues --    0.03676   0.09506   0.09706   0.10075   0.11243
 Alpha virt. eigenvalues --    0.12098   0.12571   0.13629   0.13864   0.14080

 Mulliken charges:
               1
     1  C   -0.532313
     2  C    0.197680
     3  C   -0.189074
     4  C   -0.149224
     5  C    0.009750
     6  C    0.297520
     7  O   -0.456487
     8  C    0.082766
     9  C   -0.185904
    10  C   -0.147815
    11  C    0.246387
    12  N   -0.496672
    13  C    0.049609
    14  C   -0.158468
    15  C   -0.136835
    16  C    0.156834
    17  C   -0.245270
    18  C    0.160182
    19  C   -0.537615
    20  C   -0.252335
    21  H    0.158585
    22  H    0.168214
    23  H    0.162194
    24  H    0.126868
    25  H    0.149768
    26  H    0.153033
    27  H    0.149038
    28  H    0.145317
    29  H    0.142756
    30  H    0.150611
    31  H    0.163550
    32  H    0.173133
    33  H    0.166503
    34  H    0.158465
    35  H    0.119250
 Sum of Mulliken charges =  -0.00000

 Dipole moment (field-independent basis, Debye):
    X=             -0.2646    Y=             -0.5983    Z=             -1.3044  Tot=              1.4593
 Quadrupole moment (field-independent basis, Debye-Ang):
   XX=            -92.3294   YY=           -120.3380   ZZ=           -115.2408
   XY=             12.6515   XZ=             -0.8828   YZ=             -4.8204

 Normal termination of Gaussian 16 at Sat Nov  5 09:53:25 2022.
