 Gaussian 16, Revision B.01,
 Gaussian 16:  ES64L-G16RevB.01 20-Dec-2017

 -----------------------------
 #p b3lyp/6-31g(d) opt SCF=XQC
 -----------------------------

 ------------------------------
 Gaussian input prepared by ASE
 ------------------------------
 Symbolic Z-matrix:
 Charge =  0 Multiplicity = 1

 SCF Done:  E(RB3LYP) =  -824.939753727     A.U. after   15 cycles
 SCF Done:  E(RB3LYP) =  -824.943608047     A.U. after   13 cycles
 SCF Done:  E(RB3LYP) =  -824.942679513     A.U. after   14 cycles
 SCF Done:  E(RB3LYP) =  -824.944694068     A.U. after   13 cycles
 SCF Done:  E(RB3LYP) =  -824.944705040     A.U. after   12 cycles
 SCF Done:  E(RB3LYP) =  -824.944824982     A.U. after   11 cycles
 SCF Done:  E(RB3LYP) =  -824.944830411     A.U. after   10 cycles
 SCF Done:  E(RB3LYP) =  -824.944831626     A.U. after    8 cycles
 SCF Done:  E(RB3LYP) =  -824.944833712     A.U. after    9 cycles
 SCF Done:  E(RB3LYP) =  -824.944835225     A.U. after    9 cycles
 SCF Done:  E(RB3LYP) =  -824.944873752     A.U. after   11 cycles
 SCF Done:  E(RB3LYP) =  -824.944873914     A.U. after   10 cycles
 SCF Done:  E(RB3LYP) =  -824.944873914     A.U. after   10 cycles
 SCF Done:  E(RB3LYP) =  -824.944883271     A.U. after   10 cycles
 SCF Done:  E(RB3LYP) =  -824.944884140     A.U. after    9 cycles
 SCF Done:  E(RB3LYP) =  -824.944878671     A.U. after   11 cycles
 SCF Done:  E(RB3LYP) =  -824.944886161     A.U. after   10 cycles
 SCF Done:  E(RB3LYP) =  -824.944886393     A.U. after    8 cycles
 SCF Done:  E(RB3LYP) =  -824.944886440     A.U. after    6 cycles
 SCF Done:  E(RB3LYP) =  -824.944886448     A.U. after    6 cycles
 Optimization completed.
    -- Stationary point found.

                         Standard orientation:
 ---------------------------------------------------------------------
 Center     Atomic      Atomic             Coordinates (Angstroms)
 Number     Number       Type             X           Y           Z
 ---------------------------------------------------------------------
      1          6           0        5.954197   -1.085182   -0.282780
      2          6           0        4.583346   -0.460944   -0.173042
      3          6           0        4.216099    0.618751   -0.986669
      4          6           0        2.945705    1.172400   -0.886459
      5          6           0        1.992464    0.648703    0.000468
      6          6           0        0.658715    1.345484    0.032369
      7          8           0        0.612865    2.566912    0.120780
      8          6           0       -0.609390    0.555777   -0.113335
      9          6           0       -0.630743   -0.745530   -0.690112
     10          6           0       -1.816114   -1.421041   -0.862903
     11          6           0       -3.046185   -0.838197   -0.457846
     12          7           0       -4.197134   -1.550318   -0.637520
     13          6           0       -5.327445   -0.988196   -0.258496
     14          6           0       -5.427356    0.303469    0.320908
     15          6           0       -4.278142    1.032402    0.508082
     16          6           0       -3.032383    0.473691    0.118349
     17          6           0       -1.799836    1.150744    0.267157
     18          6           0        2.347649   -0.421331    0.849174
     19          6           0        1.415961   -0.983013    1.903382
     20          6           0        3.642605   -0.944980    0.741820
     21          1           0        6.213310   -1.647389    0.620088
     22          1           0        6.004503   -1.783004   -1.129319
     23          1           0        6.727889   -0.326518   -0.444795
     24          1           0        4.932758    1.034053   -1.691415
     25          1           0        2.670372    2.026052   -1.498600
     26          1           0        0.303342   -1.195452   -1.012661
     27          1           0       -1.850281   -2.408464   -1.312345
     28          1           0       -6.231928   -1.576523   -0.411986
     29          1           0       -6.399713    0.694456    0.604735
     30          1           0       -4.303736    2.027034    0.946882
     31          1           0       -1.774957    2.154355    0.682527
     32          1           0        0.710973   -1.711047    1.485053
     33          1           0        0.819661   -0.201207    2.384149
     34          1           0        1.989917   -1.492589    2.683724
     35          1           0        3.930034   -1.754868    1.409945
 ---------------------------------------------------------------------

 The electronic state is 1-A.
 Alpha  occ. eigenvalues --  -19.13557 -14.33434 -10.27556 -10.23296 -10.23288
 Alpha  occ. eigenvalues --  -10.21646 -10.21196 -10.20708 -10.20623 -10.20600
 Alpha  occ. eigenvalues --  -10.20532 -10.20439 -10.20325 -10.19735 -10.19612
 Alpha  occ. eigenvalues --  -10.19352 -10.18869 -10.18843 -10.18841 -10.18612
 Alpha  occ. eigenvalues --   -1.03422  -0.94832  -0.86440  -0.85721  -0.81412
 Alpha  occ. eigenvalues --   -0.79040  -0.76641  -0.76246  -0.74926  -0.70227
 Alpha  occ. eigenvalues --   -0.69126  -0.65989  -0.64185  -0.61498  -0.60254
 Alpha  occ. eigenvalues --   -0.59090  -0.56023  -0.53272  -0.52401  -0.50932
 Alpha  occ. eigenvalues --   -0.47913  -0.47687  -0.45786  -0.44756  -0.44242
 Alpha  occ. eigenvalues --   -0.43718  -0.42668  -0.42303  -0.41979  -0.41745
 Alpha  occ. eigenvalues --   -0.41331  -0.40997  -0.40904  -0.40133  -0.38827
 Alpha  occ. eigenvalues --   -0.38077  -0.37318  -0.35719  -0.34775  -0.34423
 Alpha  occ. eigenvalues --   -0.33963  -0.33659  -0.31211  -0.26032  -0.25809
 Alpha  occ. eigenvalues --   -0.25579  -0.24575  -0.24092  -0.23500
 Alpha virt. eigenvalues --   -0.07281  -0.04558  -0.01522  -0.00287   0.00988
 Alpha virt. eigenvalues --    0.03676   0.09506   0.09706   0.10075   0.11244
 Alpha virt. eigenvalues --    0.12098   0.12571   0.13629   0.13864   0.14080

 Mulliken charges:
               1
     1  C   -0.532313
     2  C    0.197681
     3  C   -0.189077
     4  C   -0.149231
     5  C    0.009765
     6  C    0.297502
     7  O   -0.456485
     8  C    0.082789
     9  C   -0.185912
    10  C   -0.147809
    11  C    0.246387
    12  N   -0.496680
    13  C    0.049609
    14  C   -0.158463
    15  C   -0.136830
    16  C    0.156835
    17  C   -0.245280
    18  C    0.160179
    19  C   -0.537619
    20  C   -0.252332
    21  H    0.158586
    22  H    0.168214
    23  H    0.162195
    24  H    0.126868
    25  H    0.149768
    26  H    0.153033
    27  H    0.149039
    28  H    0.145317
    29  H    0.142755
    30  H    0.150611
    31  H    0.163550
    32  H    0.173132
    33  H    0.166503
    34  H    0.158466
    35  H    0.119249
 Sum of Mulliken charges =  -0.00000

 Dipole moment (field-independent basis, Debye):
    X=              0.1228    Y=             -1.2881    Z=              0.6748  Tot=              1.4593
 Quadrupole moment (field-independent basis, Debye-Ang):
   XX=            -92.2920   YY=           -121.4316   ZZ=           -113.7964
   XY=            -11.7368   XZ=             -6.5621   YZ=             -1.7954

 Normal termination of Gaussian 16 at Fri Nov  4 23:20:41 2022.
