 Gaussian 16, Revision B.01,
 Gaussian 16:  ES64L-G16RevB.01 20-Dec-2017

 -------------------------------------------------------------------
 #p b3lyp/6-31g(d) 6D 10F nosymm GFInput td=(50-50,nstate=2) SCF=XQC
 -------------------------------------------------------------------

 ------------------------------
 Gaussian input prepared by ASE
 ------------------------------
 Symbolic Z-matrix:
 Charge =  0 Multiplicity = 1

                          Input orientation:
 ---------------------------------------------------------------------
 Center     Atomic      Atomic             Coordinates (Angstroms)
 Number     Number       Type             X           Y           Z
 ---------------------------------------------------------------------
      1          6           0       10.885128   -1.547890   -1.265417
      2          6           0        9.721626   -0.963663   -0.521853
      3          6           0        9.721021   -0.298467    0.675479
      4          6           0        8.428095    0.122924    1.100464
      5          6           0        7.418840   -0.215302    0.229302
      6          6           0        5.981747    0.053365    0.338924
      7          6           0        5.525353    1.151125    1.098446
      8          6           0        4.167703    1.424191    1.238712
      9          6           0        3.235325    0.601466    0.600752
     10          6           0        3.675323   -0.493092   -0.171072
     11          6           0        5.027780   -0.768229   -0.298553
     12          6           0        2.487843   -1.248817   -0.767455
     13          6           0        2.431665   -2.705197   -0.253534
     14          6           0        2.529078   -1.237338   -2.312097
     15          6           0        1.314057   -0.425401   -0.235374
     16          6           0       -0.042859   -0.627467   -0.453783
     17          6           0       -0.955541    0.262472    0.135368
     18          6           0       -0.490776    1.321465    0.951429
     19          6           0        0.866776    1.524972    1.166111
     20          6           0        1.772899    0.645457    0.561997
     21          6           0       -1.654293    2.121464    1.526458
     22          6           0       -1.657382    2.078289    3.070957
     23          6           0       -1.627066    3.589010    1.040784
     24          6           0       -2.847951    1.371649    0.942509
     25          6           0       -4.189559    1.626397    1.171909
     26          6           0       -5.171602    0.818336    0.566988
     27          6           0       -6.602102    1.040830    0.796249
     28          6           0       -7.641041    0.145139    0.695458
     29          6           0       -8.916155    0.707007    0.991851
     30          6           0       -8.873203    2.035343    1.323431
     31          6           0      -10.007712    2.943005    1.693481
     32         16           0       -7.225513    2.618191    1.263894
     33          6           0       -4.746044   -0.219880   -0.281977
     34          6           0       -3.395083   -0.490251   -0.532816
     35          6           0       -3.064152   -1.581920   -1.495750
     36          6           0       -2.419225   -1.300098   -2.710997
     37          6           0       -2.156350   -2.314895   -3.631018
     38          6           0       -2.535112   -3.630708   -3.353372
     39          6           0       -3.182067   -3.922600   -2.151890
     40          6           0       -3.447396   -2.905671   -1.233020
     41          6           0       -2.427877    0.310343    0.110377
     42         16           0        8.093829   -1.070608   -1.152215
     43          1           0       11.808856   -1.365303   -0.707101
     44          1           0       10.784309   -2.631939   -1.401231
     45          1           0       11.002489   -1.103391   -2.261613
     46          1           0       10.627470   -0.121857    1.246552
     47          1           0        8.246582    0.634851    2.039387
     48          1           0        6.252404    1.808821    1.565254
     49          1           0        3.846511    2.279027    1.828634
     50          1           0        5.362128   -1.629070   -0.872801
     51          1           0        3.310291   -3.268701   -0.588615
     52          1           0        1.538996   -3.214494   -0.634397
     53          1           0        2.402562   -2.736054    0.840336
     54          1           0        2.574486   -0.213583   -2.697335
     55          1           0        3.406863   -1.780765   -2.680856
     56          1           0        1.635348   -1.719605   -2.724643
     57          1           0       -0.388146   -1.454915   -1.062950
     58          1           0        1.217437    2.342020    1.792966
     59          1           0       -2.532313    2.602163    3.472911
     60          1           0       -1.678702    1.046567    3.436099
     61          1           0       -0.761210    2.564824    3.473011
     62          1           0       -0.730734    4.100934    1.409822
     63          1           0       -2.502997    4.136065    1.408237
     64          1           0       -1.624801    3.642074   -0.052606
     65          1           0       -4.489126    2.431383    1.838508
     66          1           0       -7.493803   -0.899304    0.442570
     67          1           0       -9.841768    0.139913    0.968617
     68          1           0      -10.096850    3.792445    1.004848
     69          1           0      -10.950124    2.386992    1.662077
     70          1           0       -9.893779    3.352817    2.704818
     71          1           0       -5.491831   -0.812831   -0.802588
     72          1           0       -2.129167   -0.276777   -2.933148
     73          1           0       -1.662095   -2.076406   -4.569309
     74          1           0       -2.330050   -4.421227   -4.070334
     75          1           0       -3.480353   -4.943327   -1.926968
     76          1           0       -3.946911   -3.136301   -0.295765
 ---------------------------------------------------------------------

 SCF Done:  E(RB3LYP) =  -2341.17210744     A.U. after   15 cycles

 Excitation energies and oscillator strengths:

 Excited state symmetry could not be determined.
 Excited State   1:      Triplet-?Sym    2.2133 eV  560.17 nm  f=0.0000  <S**2>=2.000
     152 ->155         0.22946
     153 ->154         0.64028
 This state for optimization and/or second-order correction.
 Total Energy, E(TD-HF/TD-DFT) =  -2341.09076915
 Copying the excited state density for this state as the 1-particle RhoCI density.

 Excited state symmetry could not be determined.
 Excited State   2:      Triplet-?Sym    2.5687 eV  482.67 nm  f=0.0000  <S**2>=2.000
     151 ->155        -0.13969
     152 ->154         0.45736
     152 ->159         0.13146
     153 ->155         0.45238

 Excited state symmetry could not be determined.
 Excited State   3:      Singlet-?Sym    3.1289 eV  396.26 nm  f=1.7116  <S**2>=0.000
     153 ->154         0.70297

 Excited state symmetry could not be determined.
 Excited State   4:      Singlet-?Sym    3.7154 eV  333.70 nm  f=0.0054  <S**2>=0.000
     152 ->154         0.58815
     153 ->155        -0.38071

 Alpha  occ. eigenvalues --  -88.89798 -88.89683 -10.21787 -10.21671 -10.21587
 Alpha  occ. eigenvalues --  -10.21473 -10.20389 -10.20348 -10.20296 -10.20240
 Alpha  occ. eigenvalues --  -10.19868 -10.19837 -10.19525 -10.19447 -10.19298
 Alpha  occ. eigenvalues --  -10.19141 -10.19113 -10.19060 -10.19053 -10.18981
 Alpha  occ. eigenvalues --  -10.18933 -10.18836 -10.18808 -10.18794 -10.18778
 Alpha  occ. eigenvalues --  -10.18733 -10.18700 -10.18692 -10.18666 -10.18660
 Alpha  occ. eigenvalues --  -10.18585 -10.18582 -10.18579 -10.18551 -10.18525
 Alpha  occ. eigenvalues --  -10.18485 -10.18367 -10.18195 -10.17802 -10.17774
 Alpha  occ. eigenvalues --  -10.17581 -10.17543  -7.95928  -7.95814  -5.92338
 Alpha  occ. eigenvalues --   -5.92223  -5.91977  -5.91863  -5.91613  -5.91499
 Alpha  occ. eigenvalues --   -0.89173  -0.88208  -0.87599  -0.87102  -0.85615
 Alpha  occ. eigenvalues --   -0.83811  -0.82342  -0.79671  -0.78836  -0.77804
 Alpha  occ. eigenvalues --   -0.76141  -0.75808  -0.74447  -0.74285  -0.73731
 Alpha  occ. eigenvalues --   -0.72794  -0.72578  -0.72063  -0.71543  -0.70718
 Alpha  occ. eigenvalues --   -0.68483  -0.68253  -0.68085  -0.66112  -0.64784
 Alpha  occ. eigenvalues --   -0.62576  -0.62236  -0.60929  -0.60301  -0.59006
 Alpha  occ. eigenvalues --   -0.57989  -0.56878  -0.56121  -0.54985  -0.53441
 Alpha  occ. eigenvalues --   -0.53236  -0.52679  -0.52539  -0.51370  -0.50301
 Alpha  occ. eigenvalues --   -0.49518  -0.48972  -0.48135  -0.47121  -0.45936
 Alpha  occ. eigenvalues --   -0.45501  -0.44883  -0.44598  -0.44177  -0.43929
 Alpha  occ. eigenvalues --   -0.43359  -0.43013  -0.42919  -0.42694  -0.42653
 Alpha  occ. eigenvalues --   -0.42578  -0.42343  -0.42286  -0.41974  -0.41931
 Alpha  occ. eigenvalues --   -0.41614  -0.40955  -0.40710  -0.40038  -0.39049
 Alpha  occ. eigenvalues --   -0.38826  -0.38575  -0.38232  -0.38101  -0.37497
 Alpha  occ. eigenvalues --   -0.37271  -0.37192  -0.37008  -0.36594  -0.36475
 Alpha  occ. eigenvalues --   -0.36252  -0.35886  -0.35547  -0.35098  -0.34637
 Alpha  occ. eigenvalues --   -0.34354  -0.33870  -0.33737  -0.33608  -0.33458
 Alpha  occ. eigenvalues --   -0.33259  -0.33067  -0.32334  -0.31458  -0.31064
 Alpha  occ. eigenvalues --   -0.30827  -0.29434  -0.26573  -0.25646  -0.25084
 Alpha  occ. eigenvalues --   -0.24608  -0.24559  -0.24265  -0.23667  -0.23334
 Alpha  occ. eigenvalues --   -0.22877  -0.20376  -0.18175
 Alpha virt. eigenvalues --   -0.05438  -0.02888  -0.01783  -0.00587  -0.00094
 Alpha virt. eigenvalues --    0.00228   0.00996   0.01531   0.02817   0.03420
 Alpha virt. eigenvalues --    0.03880   0.05906   0.07810   0.08049   0.08608

 Mulliken charges:
               1
     1  C   -0.509847
     2  C   -0.095121
     3  C   -0.132737
     4  C   -0.122086
     5  C   -0.225870
     6  C    0.177134
     7  C   -0.187516
     8  C   -0.196748
     9  C    0.078492
    10  C    0.106712
    11  C   -0.287356
    12  C   -0.063464
    13  C   -0.439032
    14  C   -0.440047
    15  C    0.092902
    16  C   -0.283918
    17  C    0.083654
    18  C    0.099482
    19  C   -0.278285
    20  C    0.090018
    21  C   -0.067565
    22  C   -0.438532
    23  C   -0.436416
    24  C    0.103876
    25  C   -0.288487
    26  C    0.188391
    27  C   -0.227668
    28  C   -0.120411
    29  C   -0.133078
    30  C   -0.094666
    31  C   -0.510115
    32  S    0.229226
    33  C   -0.243723
    34  C    0.022032
    35  C    0.051654
    36  C   -0.162194
    37  C   -0.134201
    38  C   -0.127361
    39  C   -0.133205
    40  C   -0.159994
    41  C    0.023004
    42  S    0.228613
    43  H    0.166274
    44  H    0.169961
    45  H    0.170583
    46  H    0.131956
    47  H    0.137233
    48  H    0.128891
    49  H    0.128653
    50  H    0.140327
    51  H    0.144469
    52  H    0.149493
    53  H    0.156385
    54  H    0.155519
    55  H    0.144316
    56  H    0.148245
    57  H    0.150902
    58  H    0.123826
    59  H    0.145523
    60  H    0.157883
    61  H    0.144006
    62  H    0.144275
    63  H    0.145571
    64  H    0.156541
    65  H    0.140522
    66  H    0.137994
    67  H    0.132591
    68  H    0.171013
    69  H    0.166641
    70  H    0.170200
    71  H    0.134532
    72  H    0.140855
    73  H    0.132828
    74  H    0.130509
    75  H    0.131419
    76  H    0.134516
 Sum of Mulliken charges =  -0.00000

 Dipole moment (field-independent basis, Debye):
    X=             -0.2440    Y=             -0.4480    Z=              0.2058  Tot=              0.5501
 Quadrupole moment (field-independent basis, Debye-Ang):
   XX=           -217.4812   YY=           -245.3572   ZZ=           -252.4263
   XY=             -1.8054   XZ=             -3.2129   YZ=             12.4311

 Normal termination of Gaussian 16 at Sat Nov  5 10:10:16 2022.
