 Gaussian 16, Revision B.01,
 Gaussian 16:  ES64L-G16RevB.01 20-Dec-2017

 -----------------------------
 #p b3lyp/6-31g(d) opt SCF=XQC
 -----------------------------

 ------------------------------
 Gaussian input prepared by ASE
 ------------------------------
 Symbolic Z-matrix:
 Charge =  0 Multiplicity = 1

 SCF Done:  E(RB3LYP) =  -2341.16115880     A.U. after   15 cycles
 SCF Done:  E(RB3LYP) =  -2341.17052316     A.U. after   13 cycles
 SCF Done:  E(RB3LYP) =  -2341.17097382     A.U. after   12 cycles
 SCF Done:  E(RB3LYP) =  -2341.17113237     A.U. after   11 cycles
 SCF Done:  E(RB3LYP) =  -2341.17115729     A.U. after   10 cycles
 SCF Done:  E(RB3LYP) =  -2341.17117259     A.U. after   10 cycles
 SCF Done:  E(RB3LYP) =  -2341.17119178     A.U. after   12 cycles
 SCF Done:  E(RB3LYP) =  -2341.17135668     A.U. after   12 cycles
 SCF Done:  E(RB3LYP) =  -2341.17128252     A.U. after   13 cycles
 SCF Done:  E(RB3LYP) =  -2341.17153429     A.U. after   13 cycles
 SCF Done:  E(RB3LYP) =  -2341.17204612     A.U. after   12 cycles
 SCF Done:  E(RB3LYP) =  -2341.17208412     A.U. after   12 cycles
 SCF Done:  E(RB3LYP) =  -2341.17210338     A.U. after   11 cycles
 SCF Done:  E(RB3LYP) =  -2341.17210553     A.U. after    9 cycles
 SCF Done:  E(RB3LYP) =  -2341.17210557     A.U. after   10 cycles
 SCF Done:  E(RB3LYP) =  -2341.17210704     A.U. after    9 cycles
 SCF Done:  E(RB3LYP) =  -2341.17210760     A.U. after    9 cycles
 SCF Done:  E(RB3LYP) =  -2341.17210811     A.U. after    7 cycles
 SCF Done:  E(RB3LYP) =  -2341.17210828     A.U. after    7 cycles
 SCF Done:  E(RB3LYP) =  -2341.17210829     A.U. after    6 cycles
 Optimization completed.
    -- Stationary point found.

                         Standard orientation:
 ---------------------------------------------------------------------
 Center     Atomic      Atomic             Coordinates (Angstroms)
 Number     Number       Type             X           Y           Z
 ---------------------------------------------------------------------
      1          6           0       11.063456    0.569577    0.277701
      2          6           0        9.792350   -0.188146    0.036682
      3          6           0        9.634212   -1.449144   -0.474167
      4          6           0        8.275107   -1.864754   -0.573861
      5          6           0        7.372326   -0.923097   -0.137761
      6          6           0        5.909180   -1.004382   -0.092660
      7          6           0        5.275015   -2.261421   -0.003580
      8          6           0        3.888063   -2.375996    0.022650
      9          6           0        3.105406   -1.219126   -0.025281
     10          6           0        3.723729    0.045377   -0.103237
     11          6           0        5.104972    0.154226   -0.140839
     12          6           0        2.677583    1.159136   -0.148178
     13          6           0        2.766109    1.962039   -1.465685
     14          6           0        2.815929    2.113166    1.059480
     15          6           0        1.380749    0.351847   -0.074676
     16          6           0        0.075258    0.826624   -0.069088
     17          6           0       -0.974691   -0.102666    0.009062
     18          6           0       -0.695342   -1.489497    0.054796
     19          6           0        0.610843   -1.963129    0.053027
     20          6           0        1.653986   -1.031574   -0.007120
     21          6           0       -1.981907   -2.307128    0.080486
     22          6           0       -2.078604   -3.241886   -1.145984
     23          6           0       -2.102275   -3.132407    1.382307
     24          6           0       -3.035686   -1.204866    0.029445
     25          6           0       -4.410230   -1.363428   -0.024630
     26          6           0       -5.245978   -0.231832   -0.090327
     27          6           0       -6.704638   -0.353583   -0.167010
     28          6           0       -7.618366    0.536862   -0.680846
     29          6           0       -8.968675    0.091679   -0.591767
     30          6           0       -9.108867   -1.141265   -0.011714
     31          6           0      -10.366665   -1.916908    0.241702
     32         16           0       -7.543862   -1.773147    0.446131
     33          6           0       -4.643869    1.039746   -0.073305
     34          6           0       -3.256790    1.222476   -0.012167
     35          6           0       -2.734615    2.619269    0.057124
     36          6           0       -2.052264    3.078019    1.195599
     37          6           0       -1.609593    4.398090    1.278127
     38          6           0       -1.842554    5.284716    0.223834
     39          6           0       -2.524808    4.842596   -0.910348
     40          6           0       -2.970095    3.521942   -0.990706
     41          6           0       -2.437280    0.074614    0.018710
     42         16           0        8.233357    0.508402    0.414673
     43          1           0       11.920475   -0.044996   -0.015805
     44          1           0       11.104093    1.500135   -0.302114
     45          1           0       11.189441    0.837240    1.334226
     46          1           0       10.474026   -2.064802   -0.781809
     47          1           0        7.972957   -2.821767   -0.985475
     48          1           0        5.885315   -3.156698    0.067770
     49          1           0        3.428212   -3.358516    0.094127
     50          1           0        5.577581    1.129754   -0.227911
     51          1           0        3.726368    2.486145   -1.536498
     52          1           0        1.968216    2.711873   -1.514819
     53          1           0        2.670998    1.303849   -2.335220
     54          1           0        2.761096    1.563007    2.004395
     55          1           0        3.775070    2.643094    1.027434
     56          1           0        2.015727    2.862266    1.051935
     57          1           0       -0.127146    1.889978   -0.126439
     58          1           0        0.818702   -3.030316    0.090242
     59          1           0       -3.034666   -3.778005   -1.151945
     60          1           0       -1.997658   -2.676259   -2.079658
     61          1           0       -1.275831   -3.988010   -1.127539
     62          1           0       -1.300316   -3.877337    1.442376
     63          1           0       -3.059937   -3.664551    1.417702
     64          1           0       -2.036478   -2.487944    2.264724
     65          1           0       -4.847509   -2.358681   -0.043488
     66          1           0       -7.329344    1.477009   -1.138101
     67          1           0       -9.815070    0.666089   -0.955860
     68          1           0      -10.514147   -2.124975    1.308786
     69          1           0      -11.230524   -1.343615   -0.109526
     70          1           0      -10.368392   -2.880764   -0.282424
     71          1           0       -5.277154    1.921596   -0.062625
     72          1           0       -1.875155    2.392989    2.020243
     73          1           0       -1.088949    4.736755    2.170198
     74          1           0       -1.497418    6.313174    0.288343
     75          1           0       -2.710559    5.525006   -1.735733
     76          1           0       -3.496839    3.178605   -1.877167
 ---------------------------------------------------------------------

 The electronic state is 1-A.
 Alpha  occ. eigenvalues --  -88.89798 -88.89683 -10.21787 -10.21671 -10.21587
 Alpha  occ. eigenvalues --  -10.21473 -10.20389 -10.20348 -10.20296 -10.20240
 Alpha  occ. eigenvalues --  -10.19868 -10.19837 -10.19525 -10.19447 -10.19298
 Alpha  occ. eigenvalues --  -10.19141 -10.19113 -10.19060 -10.19053 -10.18981
 Alpha  occ. eigenvalues --  -10.18933 -10.18836 -10.18808 -10.18794 -10.18778
 Alpha  occ. eigenvalues --  -10.18733 -10.18700 -10.18692 -10.18666 -10.18660
 Alpha  occ. eigenvalues --  -10.18585 -10.18582 -10.18579 -10.18551 -10.18525
 Alpha  occ. eigenvalues --  -10.18485 -10.18367 -10.18195 -10.17802 -10.17774
 Alpha  occ. eigenvalues --  -10.17581 -10.17543  -7.95928  -7.95814  -5.92338
 Alpha  occ. eigenvalues --   -5.92223  -5.91977  -5.91863  -5.91613  -5.91499
 Alpha  occ. eigenvalues --   -0.89173  -0.88208  -0.87599  -0.87102  -0.85615
 Alpha  occ. eigenvalues --   -0.83811  -0.82342  -0.79671  -0.78836  -0.77804
 Alpha  occ. eigenvalues --   -0.76141  -0.75808  -0.74447  -0.74285  -0.73731
 Alpha  occ. eigenvalues --   -0.72794  -0.72578  -0.72063  -0.71543  -0.70718
 Alpha  occ. eigenvalues --   -0.68483  -0.68253  -0.68085  -0.66112  -0.64784
 Alpha  occ. eigenvalues --   -0.62576  -0.62236  -0.60929  -0.60301  -0.59006
 Alpha  occ. eigenvalues --   -0.57989  -0.56878  -0.56121  -0.54985  -0.53441
 Alpha  occ. eigenvalues --   -0.53236  -0.52679  -0.52539  -0.51370  -0.50301
 Alpha  occ. eigenvalues --   -0.49518  -0.48972  -0.48135  -0.47121  -0.45936
 Alpha  occ. eigenvalues --   -0.45501  -0.44883  -0.44598  -0.44177  -0.43929
 Alpha  occ. eigenvalues --   -0.43359  -0.43013  -0.42919  -0.42694  -0.42653
 Alpha  occ. eigenvalues --   -0.42578  -0.42343  -0.42286  -0.41974  -0.41931
 Alpha  occ. eigenvalues --   -0.41614  -0.40955  -0.40710  -0.40039  -0.39049
 Alpha  occ. eigenvalues --   -0.38826  -0.38575  -0.38232  -0.38101  -0.37497
 Alpha  occ. eigenvalues --   -0.37271  -0.37192  -0.37008  -0.36594  -0.36475
 Alpha  occ. eigenvalues --   -0.36252  -0.35886  -0.35547  -0.35098  -0.34637
 Alpha  occ. eigenvalues --   -0.34354  -0.33870  -0.33737  -0.33608  -0.33458
 Alpha  occ. eigenvalues --   -0.33259  -0.33067  -0.32334  -0.31458  -0.31064
 Alpha  occ. eigenvalues --   -0.30827  -0.29434  -0.26573  -0.25646  -0.25084
 Alpha  occ. eigenvalues --   -0.24608  -0.24559  -0.24265  -0.23667  -0.23334
 Alpha  occ. eigenvalues --   -0.22877  -0.20376  -0.18175
 Alpha virt. eigenvalues --   -0.05438  -0.02888  -0.01783  -0.00587  -0.00094
 Alpha virt. eigenvalues --    0.00228   0.00996   0.01531   0.02817   0.03420
 Alpha virt. eigenvalues --    0.03880   0.05906   0.07810   0.08049   0.08608

 Mulliken charges:
               1
     1  C   -0.509847
     2  C   -0.095121
     3  C   -0.132735
     4  C   -0.122092
     5  C   -0.225865
     6  C    0.177135
     7  C   -0.187512
     8  C   -0.196755
     9  C    0.078494
    10  C    0.106738
    11  C   -0.287375
    12  C   -0.063469
    13  C   -0.439049
    14  C   -0.440039
    15  C    0.092920
    16  C   -0.283918
    17  C    0.083643
    18  C    0.099505
    19  C   -0.278294
    20  C    0.090012
    21  C   -0.067562
    22  C   -0.438530
    23  C   -0.436431
    24  C    0.103888
    25  C   -0.288498
    26  C    0.188396
    27  C   -0.227675
    28  C   -0.120401
    29  C   -0.133085
    30  C   -0.094657
    31  C   -0.510116
    32  S    0.229224
    33  C   -0.243722
    34  C    0.022026
    35  C    0.051641
    36  C   -0.162185
    37  C   -0.134201
    38  C   -0.127364
    39  C   -0.133197
    40  C   -0.159996
    41  C    0.023003
    42  S    0.228610
    43  H    0.166274
    44  H    0.169962
    45  H    0.170583
    46  H    0.131956
    47  H    0.137233
    48  H    0.128891
    49  H    0.128654
    50  H    0.140328
    51  H    0.144473
    52  H    0.149495
    53  H    0.156387
    54  H    0.155518
    55  H    0.144315
    56  H    0.148242
    57  H    0.150898
    58  H    0.123827
    59  H    0.145521
    60  H    0.157883
    61  H    0.144005
    62  H    0.144277
    63  H    0.145574
    64  H    0.156544
    65  H    0.140524
    66  H    0.137990
    67  H    0.132591
    68  H    0.171012
    69  H    0.166641
    70  H    0.170201
    71  H    0.134532
    72  H    0.140855
    73  H    0.132828
    74  H    0.130510
    75  H    0.131418
    76  H    0.134516
 Sum of Mulliken charges =  -0.00000

 Dipole moment (field-independent basis, Debye):
    X=             -0.2004    Y=              0.2477    Z=             -0.4485  Tot=              0.5501
 Quadrupole moment (field-independent basis, Debye-Ang):
   XX=           -217.0053   YY=           -236.5582   ZZ=           -261.6562
   XY=              0.8572   XZ=              2.4249   YZ=             -1.1652

 1\1\GINC-NODE61\FOpt\RB3LYP\6-31G(d)\C40H34S2\WYKGROUP\05-Nov-2022\0\\
 #p b3lyp/6-31g(d) opt SCF=XQC\\Gaussian input prepared by ASE\\0,1\C,1
 0.8851282804,-1.5478895501,-1.2654165118\C,9.7216262257,-0.9636630419,
 -0.5218531581\C,9.7210207239,-0.2984674756,0.6754786535\C,8.4280953921
 ,0.1229235457,1.1004635593\C,7.4188400494,-0.2153018345,0.229301794\C,
 5.9817467063,0.0533645508,0.33892354\C,5.5253533207,1.1511253065,1.098
 4460786\C,4.1677031125,1.4241910773,1.2387115632\C,3.2353247387,0.6014
 664167,0.6007522565\C,3.6753229122,-0.4930915266,-0.1710722392\C,5.027

 Normal termination of Gaussian 16 at Sat Nov  5 00:53:36 2022.
