 Gaussian 16, Revision B.01,
 Gaussian 16:  ES64L-G16RevB.01 20-Dec-2017

 -----------------------------
 #p b3lyp/6-31g(d) opt SCF=XQC
 -----------------------------

 ------------------------------
 Gaussian input prepared by ASE
 ------------------------------
 Symbolic Z-matrix:
 Charge =  0 Multiplicity = 1

 SCF Done:  E(RB3LYP) =  -1438.42651990     A.U. after   14 cycles
 SCF Done:  E(RB3LYP) =  -1438.43522016     A.U. after   14 cycles
 SCF Done:  E(RB3LYP) =  -1438.43707189     A.U. after   12 cycles
 SCF Done:  E(RB3LYP) =  -1438.43759786     A.U. after   12 cycles
 SCF Done:  E(RB3LYP) =  -1438.43780311     A.U. after   12 cycles
 SCF Done:  E(RB3LYP) =  -1438.43790400     A.U. after   11 cycles
 SCF Done:  E(RB3LYP) =  -1438.43797809     A.U. after   11 cycles
 SCF Done:  E(RB3LYP) =  -1438.43803631     A.U. after   11 cycles
 SCF Done:  E(RB3LYP) =  -1438.43807063     A.U. after   10 cycles
 SCF Done:  E(RB3LYP) =  -1438.43807919     A.U. after    9 cycles
 SCF Done:  E(RB3LYP) =  -1438.43817862     A.U. after   10 cycles
 SCF Done:  E(RB3LYP) =  -1438.43811573     A.U. after   11 cycles
 SCF Done:  E(RB3LYP) =  -1438.43817908     A.U. after   11 cycles
 SCF Done:  E(RB3LYP) =  -1438.43818115     A.U. after   10 cycles
 SCF Done:  E(RB3LYP) =  -1438.43818142     A.U. after    9 cycles
 SCF Done:  E(RB3LYP) =  -1438.43818110     A.U. after    8 cycles
 SCF Done:  E(RB3LYP) =  -1438.43818392     A.U. after    9 cycles
 SCF Done:  E(RB3LYP) =  -1438.43818399     A.U. after    7 cycles
 SCF Done:  E(RB3LYP) =  -1438.43818401     A.U. after    6 cycles
 SCF Done:  E(RB3LYP) =  -1438.43818401     A.U. after    5 cycles
 Optimization completed.
    -- Stationary point found.

                         Standard orientation:
 ---------------------------------------------------------------------
 Center     Atomic      Atomic             Coordinates (Angstroms)
 Number     Number       Type             X           Y           Z
 ---------------------------------------------------------------------
      1          6           0       -5.624404    2.745108    2.525191
      2          6           0       -5.162174    1.292636    2.698656
      3          6           0       -3.986011    0.883283    1.797299
      4          6           0       -4.340372    0.853879    0.302661
      5          7           0       -3.212512    0.438746   -0.534343
      6          6           0       -2.165811    1.274124   -0.872484
      7          6           0       -1.185488    0.479787   -1.418929
      8          6           0        0.156806    0.891757   -1.966144
      9          7           0        1.328797    0.654309   -1.101892
     10          6           0        1.294997    1.410032    0.152476
     11          6           0        1.365557    2.913334   -0.043552
     12          6           0        0.526325    3.767252    0.681587
     13          6           0        0.620097    5.154381    0.544320
     14          6           0        1.554531    5.707558   -0.331258
     15          6           0        2.393794    4.864452   -1.064733
     16          6           0        2.300786    3.480709   -0.920532
     17          6           0        1.605401   -0.770051   -0.879809
     18          6           0        3.038286   -1.032824   -0.446593
     19          6           0        4.107165   -0.462449   -1.148267
     20          6           0        5.445676   -0.722807   -0.809427
     21          6           0        5.666289   -1.580075    0.251467
     22          6           0        4.613002   -2.153132    0.956332
     23          6           0        3.293628   -1.897577    0.638053
     24          8           0        5.110200   -2.930144    1.980123
     25          6           0        6.523793   -2.983157    1.762313
     26          8           0        6.864653   -1.976021    0.804591
     27          7           0       -1.601293   -0.833801   -1.411415
     28          6           0       -2.813615   -0.838997   -0.877555
     29          6           0       -3.618639   -2.061589   -0.699254
     30          6           0       -4.980393   -2.129467   -1.038152
     31          6           0       -5.694287   -3.317070   -0.877554
     32          6           0       -5.057603   -4.459308   -0.389904
     33          6           0       -3.697572   -4.409444   -0.074487
     34          6           0       -2.984093   -3.222889   -0.227940
     35          1           0       -6.418418    2.990283    3.239199
     36          1           0       -6.020405    2.937332    1.521278
     37          1           0       -4.797120    3.445305    2.695530
     38          1           0       -4.862438    1.136837    3.742780
     39          1           0       -6.008107    0.612750    2.523549
     40          1           0       -3.636806   -0.116720    2.083174
     41          1           0       -3.140901    1.567283    1.953184
     42          1           0       -5.171194    0.166718    0.135246
     43          1           0       -4.658161    1.840860   -0.047826
     44          1           0       -2.216900    2.340491   -0.703968
     45          1           0        0.336424    0.355439   -2.904864
     46          1           0        0.135882    1.961180   -2.199289
     47          1           0        2.167138    1.088364    0.735225
     48          1           0        0.404832    1.163980    0.760433
     49          1           0       -0.204911    3.339884    1.364991
     50          1           0       -0.039480    5.800646    1.118275
     51          1           0        1.628315    6.786124   -0.443650
     52          1           0        3.124567    5.287535   -1.749619
     53          1           0        2.947434    2.822303   -1.493120
     54          1           0        1.409468   -1.284520   -1.828418
     55          1           0        0.913469   -1.223841   -0.149438
     56          1           0        3.885676    0.204113   -1.975798
     57          1           0        6.270666   -0.274665   -1.353144
     58          1           0        2.482991   -2.347084    1.203244
     59          1           0        7.044368   -2.781723    2.702818
     60          1           0        6.797084   -3.972895    1.367189
     61          1           0       -5.474391   -1.262951   -1.468463
     62          1           0       -6.745749   -3.352895   -1.150220
     63          1           0       -5.614176   -5.384477   -0.267004
     64          1           0       -3.191204   -5.297663    0.294044
     65          1           0       -1.925734   -3.178196    0.007818
 ---------------------------------------------------------------------

 The electronic state is 1-A.
 Alpha  occ. eigenvalues --  -19.18485 -19.18474 -14.38803 -14.31835 -14.30241
 Alpha  occ. eigenvalues --  -10.30000 -10.23957 -10.23875 -10.23792 -10.23577
 Alpha  occ. eigenvalues --  -10.20477 -10.20400 -10.19973 -10.19936 -10.19849
 Alpha  occ. eigenvalues --  -10.19515 -10.19512 -10.19423 -10.19353 -10.19240
 Alpha  occ. eigenvalues --  -10.19211 -10.19134 -10.18948 -10.18736 -10.18684
 Alpha  occ. eigenvalues --  -10.18592 -10.18541 -10.18496 -10.18435 -10.18299
 Alpha  occ. eigenvalues --  -10.18245 -10.18220 -10.17782 -10.17757  -1.11754
 Alpha  occ. eigenvalues --   -1.02612  -1.00946  -0.91407  -0.88118  -0.85624
 Alpha  occ. eigenvalues --   -0.85064  -0.84325  -0.80204  -0.77772  -0.76680
 Alpha  occ. eigenvalues --   -0.75344  -0.74625  -0.74499  -0.73570  -0.73546
 Alpha  occ. eigenvalues --   -0.72661  -0.69209  -0.68470  -0.66416  -0.65528
 Alpha  occ. eigenvalues --   -0.62323  -0.61539  -0.61327  -0.60545  -0.59744
 Alpha  occ. eigenvalues --   -0.58942  -0.58624  -0.57606  -0.55751  -0.55206
 Alpha  occ. eigenvalues --   -0.52406  -0.51464  -0.51141  -0.50810  -0.50139
 Alpha  occ. eigenvalues --   -0.49806  -0.48432  -0.47835  -0.46819  -0.46333
 Alpha  occ. eigenvalues --   -0.45722  -0.45417  -0.45101  -0.44566  -0.43993
 Alpha  occ. eigenvalues --   -0.43673  -0.43522  -0.43078  -0.42496  -0.42115
 Alpha  occ. eigenvalues --   -0.41564  -0.41454  -0.41283  -0.40760  -0.39559
 Alpha  occ. eigenvalues --   -0.39156  -0.38884  -0.38689  -0.37809  -0.37538
 Alpha  occ. eigenvalues --   -0.37489  -0.37009  -0.36317  -0.36157  -0.35548
 Alpha  occ. eigenvalues --   -0.34926  -0.34885  -0.34629  -0.34395  -0.34193
 Alpha  occ. eigenvalues --   -0.34055  -0.33887  -0.33648  -0.33194  -0.32623
 Alpha  occ. eigenvalues --   -0.29850  -0.26714  -0.26364  -0.25618  -0.25115
 Alpha  occ. eigenvalues --   -0.24279  -0.23926  -0.23406  -0.21049  -0.20405
 Alpha  occ. eigenvalues --   -0.19482
 Alpha virt. eigenvalues --   -0.02034  -0.00297   0.00254   0.00562   0.00967
 Alpha virt. eigenvalues --    0.01877   0.04168   0.06743   0.07318   0.08861
 Alpha virt. eigenvalues --    0.09294   0.10353   0.10818   0.10939   0.11191

 Mulliken charges:
               1
     1  C   -0.448261
     2  C   -0.257296
     3  C   -0.254034
     4  C   -0.165681
     5  N   -0.436579
     6  C   -0.028745
     7  C    0.232675
     8  C   -0.237804
     9  N   -0.381867
    10  C   -0.201189
    11  C    0.141321
    12  C   -0.193520
    13  C   -0.129384
    14  C   -0.130220
    15  C   -0.131342
    16  C   -0.164609
    17  C   -0.202271
    18  C    0.136975
    19  C   -0.184964
    20  C   -0.182766
    21  C    0.327598
    22  C    0.335304
    23  C   -0.247406
    24  O   -0.534752
    25  C    0.192711
    26  O   -0.532197
    27  N   -0.518845
    28  C    0.380164
    29  C    0.108642
    30  C   -0.175018
    31  C   -0.139080
    32  C   -0.123952
    33  C   -0.136989
    34  C   -0.151907
    35  H    0.150586
    36  H    0.145099
    37  H    0.145702
    38  H    0.143517
    39  H    0.137957
    40  H    0.152997
    41  H    0.142879
    42  H    0.162754
    43  H    0.160543
    44  H    0.153620
    45  H    0.155109
    46  H    0.153953
    47  H    0.165674
    48  H    0.121955
    49  H    0.118456
    50  H    0.123277
    51  H    0.125363
    52  H    0.127209
    53  H    0.142049
    54  H    0.162812
    55  H    0.133449
    56  H    0.138742
    57  H    0.140874
    58  H    0.137164
    59  H    0.162377
    60  H    0.149520
    61  H    0.135225
    62  H    0.131257
    63  H    0.131398
    64  H    0.133847
    65  H    0.149923
 Sum of Mulliken charges =  -0.00000

 Dipole moment (field-independent basis, Debye):
    X=             -3.3559    Y=              0.7031    Z=              1.9533  Tot=              3.9462
 Quadrupole moment (field-independent basis, Debye-Ang):
   XX=           -174.7751   YY=           -186.4759   ZZ=           -199.4038
   XY=             -6.6489   XZ=             -3.8270   YZ=             -5.2125

 Normal termination of Gaussian 16 at Sat Nov  5 00:18:44 2022.
