 Gaussian 16, Revision B.01,
 Gaussian 16:  ES64L-G16RevB.01 20-Dec-2017

 -----------------------------
 #p b3lyp/6-31g(d) opt SCF=XQC
 -----------------------------

 ------------------------------
 Gaussian input prepared by ASE
 ------------------------------
 Symbolic Z-matrix:
 Charge =  0 Multiplicity = 1

 SCF Done:  E(RB3LYP) =  -1560.74445674     A.U. after   15 cycles
 SCF Done:  E(RB3LYP) =  -1560.75287209     A.U. after   12 cycles
 SCF Done:  E(RB3LYP) =  -1560.75403783     A.U. after   12 cycles
 SCF Done:  E(RB3LYP) =  -1560.75481051     A.U. after   12 cycles
 SCF Done:  E(RB3LYP) =  -1560.75500903     A.U. after   12 cycles
 SCF Done:  E(RB3LYP) =  -1560.75532730     A.U. after   12 cycles
 SCF Done:  E(RB3LYP) =  -1560.75537056     A.U. after   11 cycles
 SCF Done:  E(RB3LYP) =  -1560.75541631     A.U. after   11 cycles
 SCF Done:  E(RB3LYP) =  -1560.75542465     A.U. after    9 cycles
 SCF Done:  E(RB3LYP) =  -1560.75542665     A.U. after    9 cycles
 SCF Done:  E(RB3LYP) =  -1560.75542745     A.U. after    8 cycles
 SCF Done:  E(RB3LYP) =  -1560.75542784     A.U. after    8 cycles
 SCF Done:  E(RB3LYP) =  -1560.75542792     A.U. after    7 cycles
 SCF Done:  E(RB3LYP) =  -1560.75542797     A.U. after    7 cycles
 Optimization completed.
    -- Stationary point found.

                         Standard orientation:
 ---------------------------------------------------------------------
 Center     Atomic      Atomic             Coordinates (Angstroms)
 Number     Number       Type             X           Y           Z
 ---------------------------------------------------------------------
      1          8           0       -0.082442   -1.942597    1.434578
      2          6           0       -0.358578   -0.909983    0.829539
      3          6           0        0.744796   -0.029665    0.207283
      4          7           0        2.068023   -0.597568    0.399701
      5          6           0        2.582897   -0.505061    1.772521
      6          6           0        2.873480    0.940890    2.217333
      7          6           0        3.478077    1.792352    1.114227
      8          6           0        3.924638    3.091837    1.395021
      9          6           0        4.434016    3.914923    0.394120
     10          6           0        4.493494    3.447847   -0.921553
     11          6           0        4.049700    2.160181   -1.212170
     12          6           0        3.550086    1.319640   -0.207377
     13          6           0        3.070331   -0.090314   -0.551907
     14          6           0        4.199820   -1.126582   -0.711108
     15          6           0        3.844705   -2.475448   -0.867703
     16          6           0        4.819125   -3.451721   -1.063218
     17          6           0        6.170913   -3.098668   -1.103903
     18          6           0        6.534005   -1.762934   -0.942982
     19          6           0        5.555301   -0.783555   -0.747229
     20          7           0       -1.664748   -0.494306    0.682342
     21          6           0       -2.689963   -1.279968    1.396469
     22          6           0       -3.304726   -2.417213    0.596674
     23          6           0       -2.547729   -3.517497    0.164274
     24          6           0       -3.135905   -4.564982   -0.544031
     25          6           0       -4.503296   -4.541462   -0.830148
     26          6           0       -5.282223   -3.465684   -0.406790
     27          6           0       -4.666990   -2.436960    0.295908
     28          9           0       -5.443065   -1.390577    0.694667
     29          6           0       -2.047192    0.771406    0.051698
     30          6           0       -3.279296    0.725196   -0.893373
     31          6           0       -3.690657    2.181301   -0.942512
     32          6           0       -4.482972    2.839059   -1.880601
     33          6           0       -4.751905    4.200697   -1.708845
     34          6           0       -4.233243    4.892872   -0.610698
     35          6           0       -3.437785    4.232803    0.331244
     36          6           0       -3.170413    2.876407    0.160349
     37          6           0       -2.353849    1.944593    1.027819
     38          1           0        0.642533    1.003180    0.587270
     39          1           0        0.562898    0.029994   -0.872938
     40          1           0        1.871173   -0.990247    2.442251
     41          1           0        3.506349   -1.092880    1.802337
     42          1           0        3.539053    0.925034    3.090419
     43          1           0        1.948816    1.425171    2.565320
     44          1           0        3.866561    3.459137    2.418061
     45          1           0        4.776882    4.917534    0.636070
     46          1           0        4.877687    4.084478   -1.714187
     47          1           0        4.092424    1.792618   -2.235891
     48          1           0        2.568939   -0.033816   -1.528867
     49          1           0        2.795656   -2.748357   -0.806439
     50          1           0        4.523726   -4.491436   -1.180481
     51          1           0        6.932031   -3.859799   -1.255184
     52          1           0        7.582332   -1.475735   -0.964202
     53          1           0        5.855784    0.251220   -0.619842
     54          1           0       -3.476349   -0.598070    1.722864
     55          1           0       -2.206252   -1.692420    2.285006
     56          1           0       -1.489540   -3.537683    0.403166
     57          1           0       -2.527012   -5.404809   -0.866323
     58          1           0       -4.965379   -5.357371   -1.378838
     59          1           0       -6.347435   -3.409277   -0.606032
     60          1           0       -1.209874    1.091873   -0.568927
     61          1           0       -4.089687    0.123177   -0.468637
     62          1           0       -3.033390    0.296195   -1.870921
     63          1           0       -4.885050    2.305137   -2.738457
     64          1           0       -5.364229    4.725443   -2.437503
     65          1           0       -4.444667    5.952175   -0.490878
     66          1           0       -3.031017    4.775589    1.181380
     67          1           0       -1.439970    2.397023    1.430017
     68          1           0       -2.940761    1.590164    1.887482
 ---------------------------------------------------------------------

 The electronic state is 1-A.
 Alpha  occ. eigenvalues --  -24.70914 -19.11312 -14.36679 -14.32460 -10.28650
 Alpha  occ. eigenvalues --  -10.27025 -10.23821 -10.22543 -10.22325 -10.22223
 Alpha  occ. eigenvalues --  -10.20159 -10.19768 -10.19697 -10.19638 -10.19562
 Alpha  occ. eigenvalues --  -10.19408 -10.19350 -10.19328 -10.19291 -10.19047
 Alpha  occ. eigenvalues --  -10.19013 -10.18993 -10.18993 -10.18970 -10.18937
 Alpha  occ. eigenvalues --  -10.18936 -10.18761 -10.18726 -10.18704 -10.18644
 Alpha  occ. eigenvalues --  -10.18541 -10.18483 -10.18075 -10.18024 -10.17970
 Alpha  occ. eigenvalues --  -10.17795 -10.17494  -1.21689  -1.03427  -0.93706
 Alpha  occ. eigenvalues --   -0.93028  -0.87038  -0.85935  -0.85159  -0.84192
 Alpha  occ. eigenvalues --   -0.81027  -0.78115  -0.77814  -0.76997  -0.75720
 Alpha  occ. eigenvalues --   -0.74503  -0.73735  -0.73166  -0.73002  -0.71837
 Alpha  occ. eigenvalues --   -0.71168  -0.69866  -0.68275  -0.64633  -0.62526
 Alpha  occ. eigenvalues --   -0.62075  -0.61124  -0.60218  -0.60051  -0.59143
 Alpha  occ. eigenvalues --   -0.58864  -0.58161  -0.57533  -0.55494  -0.53887
 Alpha  occ. eigenvalues --   -0.53048  -0.51352  -0.50788  -0.50416  -0.49879
 Alpha  occ. eigenvalues --   -0.49062  -0.48837  -0.48248  -0.47846  -0.47577
 Alpha  occ. eigenvalues --   -0.46465  -0.45876  -0.45141  -0.45039  -0.44657
 Alpha  occ. eigenvalues --   -0.44174  -0.43998  -0.43545  -0.43449  -0.42249
 Alpha  occ. eigenvalues --   -0.42014  -0.41665  -0.41447  -0.41238  -0.40848
 Alpha  occ. eigenvalues --   -0.40822  -0.40433  -0.40119  -0.39706  -0.39562
 Alpha  occ. eigenvalues --   -0.38323  -0.37864  -0.37614  -0.37186  -0.36835
 Alpha  occ. eigenvalues --   -0.36212  -0.35927  -0.35382  -0.35227  -0.34880
 Alpha  occ. eigenvalues --   -0.34741  -0.34221  -0.34037  -0.33825  -0.33500
 Alpha  occ. eigenvalues --   -0.33361  -0.32989  -0.32687  -0.32011  -0.25703
 Alpha  occ. eigenvalues --   -0.24911  -0.24842  -0.24533  -0.24312  -0.24018
 Alpha  occ. eigenvalues --   -0.23879  -0.23744  -0.23684  -0.23359  -0.20813
 Alpha virt. eigenvalues --   -0.01128  -0.00699  -0.00494   0.00097   0.00154
 Alpha virt. eigenvalues --    0.00490   0.00794   0.01243   0.02384   0.06761
 Alpha virt. eigenvalues --    0.08891   0.09634   0.09922   0.10352   0.10651

 Mulliken charges:
               1
     1  O   -0.518498
     2  C    0.608910
     3  C   -0.234279
     4  N   -0.377868
     5  C   -0.168051
     6  C   -0.365500
     7  C    0.132956
     8  C   -0.187646
     9  C   -0.127133
    10  C   -0.132930
    11  C   -0.184200
    12  C    0.088018
    13  C   -0.134171
    14  C    0.133043
    15  C   -0.154454
    16  C   -0.135336
    17  C   -0.125866
    18  C   -0.136228
    19  C   -0.186163
    20  N   -0.434693
    21  C   -0.262195
    22  C    0.105215
    23  C   -0.191204
    24  C   -0.127885
    25  C   -0.132410
    26  C   -0.189710
    27  C    0.315178
    28  F   -0.305567
    29  C    0.003951
    30  C   -0.375078
    31  C    0.130384
    32  C   -0.198131
    33  C   -0.131761
    34  C   -0.132088
    35  C   -0.198847
    36  C    0.136652
    37  C   -0.358907
    38  H    0.150968
    39  H    0.168334
    40  H    0.173973
    41  H    0.159075
    42  H    0.153282
    43  H    0.146509
    44  H    0.121006
    45  H    0.127370
    46  H    0.127999
    47  H    0.128371
    48  H    0.143996
    49  H    0.147651
    50  H    0.126772
    51  H    0.124669
    52  H    0.125462
    53  H    0.140028
    54  H    0.166037
    55  H    0.194782
    56  H    0.182493
    57  H    0.134653
    58  H    0.136939
    59  H    0.144605
    60  H    0.167645
    61  H    0.180958
    62  H    0.154022
    63  H    0.127727
    64  H    0.128627
    65  H    0.128480
    66  H    0.126341
    67  H    0.152392
    68  H    0.161323
 Sum of Mulliken charges =  -0.00000

 Dipole moment (field-independent basis, Debye):
    X=             -0.9677    Y=              1.9675    Z=             -1.0744  Tot=              2.4417
 Quadrupole moment (field-independent basis, Debye-Ang):
   XX=           -210.0084   YY=           -202.5017   ZZ=           -208.8589
   XY=              5.6097   XZ=              4.8240   YZ=              8.3914

 Normal termination of Gaussian 16 at Fri Nov  4 23:39:28 2022.
