 Gaussian 16, Revision B.01,
 Gaussian 16:  ES64L-G16RevB.01 20-Dec-2017

 -------------------------------------------------------------------
 #p b3lyp/6-31g(d) 6D 10F nosymm GFInput td=(50-50,nstate=2) SCF=XQC
 -------------------------------------------------------------------

 ------------------------------
 Gaussian input prepared by ASE
 ------------------------------
 Symbolic Z-matrix:
 Charge =  0 Multiplicity = 1

                          Input orientation:
 ---------------------------------------------------------------------
 Center     Atomic      Atomic             Coordinates (Angstroms)
 Number     Number       Type             X           Y           Z
 ---------------------------------------------------------------------
      1          8           0       -0.288693    2.494103    0.177858
      2          6           0        0.213888    1.374845    0.235203
      3          6           0       -0.643660    0.104510    0.060692
      4          7           0       -2.036422    0.419855   -0.206216
      5          6           0       -2.784648    0.927003    0.951906
      6          6           0       -2.983157   -0.127372    2.057329
      7          6           0       -3.267600   -1.515793    1.510753
      8          6           0       -3.604613   -2.559252    2.385133
      9          6           0       -3.818589   -3.853943    1.919592
     10          6           0       -3.684855   -4.129370    0.556160
     11          6           0       -3.347330   -3.101336   -0.320605
     12          6           0       -3.145636   -1.791893    0.138101
     13          6           0       -2.777169   -0.680597   -0.844797
     14          6           0       -3.969648   -0.107911   -1.635345
     15          6           0       -3.750806    1.021329   -2.439702
     16          6           0       -4.778256    1.555710   -3.214051
     17          6           0       -6.048196    0.972078   -3.197996
     18          6           0       -6.277156   -0.145490   -2.397662
     19          6           0       -5.245210   -0.681530   -1.621057
     20          7           0        1.563855    1.207161    0.458828
     21          6           0        2.338989    2.428230    0.752877
     22          6           0        2.956004    3.108413   -0.458557
     23          6           0        2.170523    3.671676   -1.476591
     24          6           0        2.754930    4.316663   -2.566240
     25          6           0        4.144997    4.422341   -2.659629
     26          6           0        4.950711    3.879536   -1.659907
     27          6           0        4.338777    3.242258   -0.587533
     28          9           0        5.142893    2.711391    0.375689
     29          6           0        2.202027   -0.100640    0.627342
     30          6           0        3.575260   -0.292137   -0.073326
     31          6           0        4.155022   -1.464151    0.689649
     32          6           0        5.179812   -2.332335    0.320214
     33          6           0        5.568347   -3.342209    1.206262
     34          6           0        4.937523   -3.478945    2.446184
     35          6           0        3.908678   -2.607502    2.817353
     36          6           0        3.522115   -1.601313    1.934938
     37          6           0        2.455013   -0.542027    2.098530
     38          1           0       -0.494879   -0.556658    0.933811
     39          1           0       -0.257265   -0.450111   -0.803378
     40          1           0       -2.272068    1.810854    1.334742
     41          1           0       -3.759355    1.256376    0.576881
     42          1           0       -3.797521    0.191757    2.721020
     43          1           0       -2.089965   -0.180300    2.697667
     44          1           0       -3.696586   -2.346230    3.448644
     45          1           0       -4.081707   -4.646039    2.615782
     46          1           0       -3.837350   -5.138082    0.181437
     47          1           0       -3.240285   -3.311461   -1.383301
     48          1           0       -2.098803   -1.118181   -1.591373
     49          1           0       -2.770702    1.488189   -2.426488
     50          1           0       -4.589073    2.432113   -3.828984
     51          1           0       -6.850837    1.388989   -3.800873
     52          1           0       -7.262383   -0.604244   -2.369448
     53          1           0       -5.441820   -1.549704   -1.000659
     54          1           0        3.124314    2.170658    1.464806
     55          1           0        1.653018    3.125333    1.239787
     56          1           0        1.091287    3.600304   -1.390584
     57          1           0        2.123609    4.744359   -3.339830
     58          1           0        4.603482    4.927021   -3.505430
     59          1           0        6.033593    3.941558   -1.692691
     60          1           0        1.538600   -0.845667    0.187144
     61          1           0        4.216319    0.587166    0.050899
     62          1           0        3.468332   -0.467259   -1.149435
     63          1           0        5.670375   -2.231856   -0.645139
     64          1           0        6.362929   -4.028846    0.926250
     65          1           0        5.244520   -4.271053    3.124046
     66          1           0        3.416016   -2.720237    3.780360
     67          1           0        1.540957   -0.902074    2.584842
     68          1           0        2.825528    0.301968    2.698113
 ---------------------------------------------------------------------

 SCF Done:  E(RB3LYP) =  -1560.75541971     A.U. after   15 cycles

 Excitation energies and oscillator strengths:

 Excited state symmetry could not be determined.
 Excited State   1:      Triplet-?Sym    3.6823 eV  336.70 nm  f=0.0000  <S**2>=2.000
     123 ->132        -0.36721
     123 ->134         0.13836
     123 ->137         0.12229
     123 ->138         0.12449
     125 ->134         0.19843
     125 ->137        -0.10054
     125 ->138         0.10922
     127 ->134         0.21068
     127 ->135        -0.10127
     127 ->137        -0.15933
     129 ->132         0.26297
     129 ->134         0.12673
     130 ->134         0.10103
 This state for optimization and/or second-order correction.
 Total Energy, E(TD-HF/TD-DFT) =  -1560.62009694
 Copying the excited state density for this state as the 1-particle RhoCI density.

 Excited state symmetry could not be determined.
 Excited State   2:      Triplet-?Sym    3.7261 eV  332.75 nm  f=0.0000  <S**2>=2.000
     123 ->132        -0.10731
     123 ->137        -0.11981
     123 ->138         0.10399
     125 ->132        -0.14466
     125 ->134         0.11933
     125 ->138        -0.30369
     126 ->138        -0.12350
     127 ->132         0.15652
     127 ->138         0.18615
     129 ->132        -0.11394
     129 ->134        -0.16809
     129 ->137        -0.36637

 Excited state symmetry could not be determined.
 Excited State   3:      Singlet-?Sym    4.6696 eV  265.51 nm  f=0.0006  <S**2>=0.000
     130 ->132         0.69689

 Excited state symmetry could not be determined.
 Excited State   4:      Singlet-?Sym    4.8550 eV  255.37 nm  f=0.0030  <S**2>=0.000
     130 ->134         0.64750
     130 ->135        -0.26063

 Alpha  occ. eigenvalues --  -24.70914 -19.11312 -14.36679 -14.32460 -10.28650
 Alpha  occ. eigenvalues --  -10.27025 -10.23821 -10.22543 -10.22326 -10.22223
 Alpha  occ. eigenvalues --  -10.20159 -10.19768 -10.19697 -10.19638 -10.19562
 Alpha  occ. eigenvalues --  -10.19408 -10.19350 -10.19328 -10.19291 -10.19047
 Alpha  occ. eigenvalues --  -10.19013 -10.18993 -10.18993 -10.18970 -10.18937
 Alpha  occ. eigenvalues --  -10.18936 -10.18761 -10.18726 -10.18704 -10.18644
 Alpha  occ. eigenvalues --  -10.18541 -10.18483 -10.18075 -10.18024 -10.17970
 Alpha  occ. eigenvalues --  -10.17795 -10.17494  -1.21689  -1.03427  -0.93706
 Alpha  occ. eigenvalues --   -0.93028  -0.87038  -0.85935  -0.85159  -0.84192
 Alpha  occ. eigenvalues --   -0.81027  -0.78115  -0.77814  -0.76997  -0.75720
 Alpha  occ. eigenvalues --   -0.74503  -0.73735  -0.73166  -0.73002  -0.71837
 Alpha  occ. eigenvalues --   -0.71168  -0.69866  -0.68275  -0.64633  -0.62525
 Alpha  occ. eigenvalues --   -0.62075  -0.61124  -0.60218  -0.60051  -0.59143
 Alpha  occ. eigenvalues --   -0.58864  -0.58161  -0.57533  -0.55494  -0.53887
 Alpha  occ. eigenvalues --   -0.53048  -0.51352  -0.50788  -0.50416  -0.49879
 Alpha  occ. eigenvalues --   -0.49062  -0.48837  -0.48248  -0.47845  -0.47577
 Alpha  occ. eigenvalues --   -0.46465  -0.45876  -0.45141  -0.45039  -0.44657
 Alpha  occ. eigenvalues --   -0.44174  -0.43998  -0.43545  -0.43449  -0.42249
 Alpha  occ. eigenvalues --   -0.42014  -0.41665  -0.41447  -0.41238  -0.40848
 Alpha  occ. eigenvalues --   -0.40822  -0.40433  -0.40119  -0.39706  -0.39562
 Alpha  occ. eigenvalues --   -0.38323  -0.37864  -0.37614  -0.37186  -0.36835
 Alpha  occ. eigenvalues --   -0.36212  -0.35927  -0.35382  -0.35227  -0.34880
 Alpha  occ. eigenvalues --   -0.34741  -0.34221  -0.34037  -0.33825  -0.33500
 Alpha  occ. eigenvalues --   -0.33361  -0.32989  -0.32687  -0.32011  -0.25703
 Alpha  occ. eigenvalues --   -0.24911  -0.24841  -0.24533  -0.24312  -0.24018
 Alpha  occ. eigenvalues --   -0.23879  -0.23744  -0.23684  -0.23359  -0.20813
 Alpha virt. eigenvalues --   -0.01128  -0.00699  -0.00494   0.00097   0.00154
 Alpha virt. eigenvalues --    0.00490   0.00794   0.01243   0.02384   0.06761
 Alpha virt. eigenvalues --    0.08891   0.09634   0.09923   0.10352   0.10651

 Mulliken charges:
               1
     1  O   -0.518498
     2  C    0.608931
     3  C   -0.234302
     4  N   -0.377870
     5  C   -0.168078
     6  C   -0.365492
     7  C    0.132940
     8  C   -0.187649
     9  C   -0.127141
    10  C   -0.132915
    11  C   -0.184213
    12  C    0.088039
    13  C   -0.134145
    14  C    0.133054
    15  C   -0.154468
    16  C   -0.135338
    17  C   -0.125861
    18  C   -0.136228
    19  C   -0.186163
    20  N   -0.434713
    21  C   -0.262195
    22  C    0.105215
    23  C   -0.191204
    24  C   -0.127887
    25  C   -0.132415
    26  C   -0.189704
    27  C    0.315190
    28  F   -0.305570
    29  C    0.003987
    30  C   -0.375087
    31  C    0.130365
    32  C   -0.198119
    33  C   -0.131759
    34  C   -0.132095
    35  C   -0.198845
    36  C    0.136688
    37  C   -0.358948
    38  H    0.150969
    39  H    0.168337
    40  H    0.173977
    41  H    0.159080
    42  H    0.153284
    43  H    0.146509
    44  H    0.121008
    45  H    0.127369
    46  H    0.127999
    47  H    0.128370
    48  H    0.143992
    49  H    0.147651
    50  H    0.126772
    51  H    0.124669
    52  H    0.125462
    53  H    0.140027
    54  H    0.166037
    55  H    0.194782
    56  H    0.182492
    57  H    0.134653
    58  H    0.136938
    59  H    0.144605
    60  H    0.167642
    61  H    0.180957
    62  H    0.154019
    63  H    0.127726
    64  H    0.128626
    65  H    0.128480
    66  H    0.126340
    67  H    0.152395
    68  H    0.161327
 Sum of Mulliken charges =  -0.00000

 Dipole moment (field-independent basis, Debye):
    X=              1.3735    Y=             -2.0067    Z=              0.2196  Tot=              2.4417
 Quadrupole moment (field-independent basis, Debye-Ang):
   XX=           -209.4006   YY=           -211.0363   ZZ=           -201.0902
   XY=              3.1968   XZ=             -6.5524   YZ=             -7.6913

 Normal termination of Gaussian 16 at Sat Nov  5 10:00:10 2022.
