 Gaussian 16, Revision B.01,
 Gaussian 16:  ES64L-G16RevB.01 20-Dec-2017

 -------------------------------------------------------------------
 #p b3lyp/6-31g(d) 6D 10F nosymm GFInput td=(50-50,nstate=2) SCF=XQC
 -------------------------------------------------------------------

 ------------------------------
 Gaussian input prepared by ASE
 ------------------------------
 Symbolic Z-matrix:
 Charge =  0 Multiplicity = 1

                          Input orientation:
 ---------------------------------------------------------------------
 Center     Atomic      Atomic             Coordinates (Angstroms)
 Number     Number       Type             X           Y           Z
 ---------------------------------------------------------------------
      1          6           0       -4.413737   -1.040917   -4.292961
      2          6           0       -4.463259    0.018646   -3.184676
      3          6           0       -3.357713   -0.111979   -2.124450
      4          6           0       -3.481128   -1.377973   -1.262819
      5          7           0       -2.432093   -1.469577   -0.244922
      6          6           0       -1.137950   -1.867999   -0.517380
      7          6           0       -0.389167   -1.571654    0.597120
      8          6           0        1.079277   -1.816395    0.830986
      9          7           0        1.977367   -0.653737    0.694831
     10          6           0        2.000707   -0.085855   -0.655230
     11          6           0        2.569173   -1.028883   -1.699676
     12          6           0        1.945392   -1.174139   -2.944308
     13          6           0        2.490442   -2.001328   -3.929418
     14          6           0        3.668829   -2.703941   -3.677329
     15          6           0        4.297263   -2.571054   -2.436126
     16          6           0        3.752983   -1.740010   -1.457700
     17          6           0        1.755532    0.372545    1.720582
     18          6           0        2.953215    1.289357    1.907387
     19          6           0        4.237716    0.754902    2.064205
     20          6           0        5.361434    1.567626    2.289919
     21          6           0        5.143348    2.930248    2.359014
     22          6           0        3.872157    3.473387    2.205006
     23          6           0        2.761871    2.685213    1.973914
     24          8           0        3.944147    4.847515    2.280429
     25          6           0        5.284858    5.133888    2.691502
     26          8           0        6.061640    3.941903    2.538149
     27          7           0       -1.194098   -0.983770    1.548404
     28          6           0       -2.410536   -0.929374    1.026792
     29          6           0       -3.576721   -0.374460    1.738599
     30          6           0       -4.825653   -1.017332    1.765373
     31          6           0       -5.892771   -0.467539    2.475884
     32          6           0       -5.726801    0.724565    3.182438
     33          6           0       -4.481733    1.358176    3.183559
     34          6           0       -3.416378    0.814435    2.469502
     35          1           0       -5.185301   -0.853028   -5.047786
     36          1           0       -4.577993   -2.053466   -3.906474
     37          1           0       -3.442169   -1.033533   -4.802561
     38          1           0       -4.383669    1.013942   -3.640045
     39          1           0       -5.445219   -0.009092   -2.691223
     40          1           0       -3.387063    0.757684   -1.456245
     41          1           0       -2.372423   -0.101810   -2.609699
     42          1           0       -4.452332   -1.391160   -0.765757
     43          1           0       -3.416990   -2.281849   -1.876705
     44          1           0       -0.874449   -2.325971   -1.460234
     45          1           0        1.215741   -2.210309    1.844545
     46          1           0        1.430656   -2.582443    0.132299
     47          1           0        2.632158    0.810047   -0.607015
     48          1           0        0.999670    0.254354   -0.978851
     49          1           0        1.025250   -0.628682   -3.144822
     50          1           0        1.991773   -2.098910   -4.890631
     51          1           0        4.094278   -3.351306   -4.439754
     52          1           0        5.215838   -3.115505   -2.231452
     53          1           0        4.235504   -1.638732   -0.490009
     54          1           0        1.548145   -0.154872    2.659597
     55          1           0        0.857067    0.981073    1.519110
     56          1           0        4.360829   -0.321826    2.003633
     57          1           0        6.355654    1.149168    2.406067
     58          1           0        1.777547    3.125634    1.848348
     59          1           0        5.699231    5.922200    2.056692
     60          1           0        5.286952    5.439931    3.748255
     61          1           0       -4.953065   -1.972451    1.263808
     62          1           0       -6.850288   -0.981501    2.490208
     63          1           0       -6.558193    1.150998    3.737196
     64          1           0       -4.340543    2.280208    3.741304
     65          1           0       -2.444211    1.296711    2.471603
 ---------------------------------------------------------------------

 SCF Done:  E(RB3LYP) =  -1438.43818883     A.U. after   14 cycles

 Excitation energies and oscillator strengths:

 Excited state symmetry could not be determined.
 Excited State   1:      Triplet-?Sym    3.3487 eV  370.24 nm  f=0.0000  <S**2>=2.000
     112 ->122         0.14181
     114 ->122        -0.15996
     115 ->123         0.23165
     119 ->122         0.43499
     120 ->122        -0.37985
     121 ->122        -0.16405
 This state for optimization and/or second-order correction.
 Total Energy, E(TD-HF/TD-DFT) =  -1438.31512605
 Copying the excited state density for this state as the 1-particle RhoCI density.

 Excited state symmetry could not be determined.
 Excited State   2:      Triplet-?Sym    3.5149 eV  352.73 nm  f=0.0000  <S**2>=2.000
     117 ->126         0.23102
     118 ->126        -0.18121
     120 ->127        -0.18884
     121 ->124         0.23580
     121 ->125        -0.13459
     121 ->126         0.10942
     121 ->127         0.50421

 Excited state symmetry could not be determined.
 Excited State   3:      Singlet-?Sym    4.3531 eV  284.82 nm  f=0.0461  <S**2>=0.000
     120 ->122         0.24883
     121 ->122         0.65396

 Excited state symmetry could not be determined.
 Excited State   4:      Singlet-?Sym    4.5539 eV  272.26 nm  f=0.0550  <S**2>=0.000
     120 ->122         0.64614
     121 ->122        -0.26295

 Alpha  occ. eigenvalues --  -19.18485 -19.18474 -14.38803 -14.31835 -14.30241
 Alpha  occ. eigenvalues --  -10.30000 -10.23957 -10.23875 -10.23792 -10.23577
 Alpha  occ. eigenvalues --  -10.20477 -10.20400 -10.19973 -10.19936 -10.19849
 Alpha  occ. eigenvalues --  -10.19515 -10.19512 -10.19423 -10.19353 -10.19240
 Alpha  occ. eigenvalues --  -10.19211 -10.19134 -10.18948 -10.18736 -10.18684
 Alpha  occ. eigenvalues --  -10.18592 -10.18542 -10.18496 -10.18435 -10.18299
 Alpha  occ. eigenvalues --  -10.18245 -10.18220 -10.17782 -10.17757  -1.11754
 Alpha  occ. eigenvalues --   -1.02612  -1.00946  -0.91407  -0.88118  -0.85624
 Alpha  occ. eigenvalues --   -0.85064  -0.84325  -0.80204  -0.77771  -0.76680
 Alpha  occ. eigenvalues --   -0.75344  -0.74625  -0.74499  -0.73570  -0.73546
 Alpha  occ. eigenvalues --   -0.72661  -0.69209  -0.68470  -0.66416  -0.65528
 Alpha  occ. eigenvalues --   -0.62323  -0.61539  -0.61327  -0.60545  -0.59744
 Alpha  occ. eigenvalues --   -0.58942  -0.58624  -0.57606  -0.55751  -0.55206
 Alpha  occ. eigenvalues --   -0.52406  -0.51464  -0.51141  -0.50810  -0.50139
 Alpha  occ. eigenvalues --   -0.49806  -0.48432  -0.47835  -0.46819  -0.46333
 Alpha  occ. eigenvalues --   -0.45722  -0.45417  -0.45101  -0.44566  -0.43993
 Alpha  occ. eigenvalues --   -0.43673  -0.43522  -0.43078  -0.42496  -0.42115
 Alpha  occ. eigenvalues --   -0.41564  -0.41454  -0.41283  -0.40760  -0.39559
 Alpha  occ. eigenvalues --   -0.39156  -0.38884  -0.38689  -0.37809  -0.37538
 Alpha  occ. eigenvalues --   -0.37489  -0.37009  -0.36317  -0.36157  -0.35548
 Alpha  occ. eigenvalues --   -0.34926  -0.34885  -0.34629  -0.34395  -0.34193
 Alpha  occ. eigenvalues --   -0.34055  -0.33887  -0.33648  -0.33194  -0.32623
 Alpha  occ. eigenvalues --   -0.29850  -0.26714  -0.26364  -0.25618  -0.25115
 Alpha  occ. eigenvalues --   -0.24279  -0.23926  -0.23406  -0.21049  -0.20405
 Alpha  occ. eigenvalues --   -0.19482
 Alpha virt. eigenvalues --   -0.02034  -0.00297   0.00254   0.00562   0.00967
 Alpha virt. eigenvalues --    0.01877   0.04168   0.06743   0.07318   0.08861
 Alpha virt. eigenvalues --    0.09294   0.10353   0.10818   0.10939   0.11191

 Mulliken charges:
               1
     1  C   -0.448291
     2  C   -0.257283
     3  C   -0.254017
     4  C   -0.165696
     5  N   -0.436575
     6  C   -0.028746
     7  C    0.232695
     8  C   -0.237814
     9  N   -0.381873
    10  C   -0.201187
    11  C    0.141321
    12  C   -0.193525
    13  C   -0.129377
    14  C   -0.130219
    15  C   -0.131341
    16  C   -0.164614
    17  C   -0.202272
    18  C    0.136953
    19  C   -0.184943
    20  C   -0.182766
    21  C    0.327590
    22  C    0.335299
    23  C   -0.247391
    24  O   -0.534750
    25  C    0.192712
    26  O   -0.532199
    27  N   -0.518854
    28  C    0.380161
    29  C    0.108641
    30  C   -0.175018
    31  C   -0.139078
    32  C   -0.123951
    33  C   -0.136994
    34  C   -0.151897
    35  H    0.150591
    36  H    0.145106
    37  H    0.145708
    38  H    0.143516
    39  H    0.137955
    40  H    0.152995
    41  H    0.142877
    42  H    0.162755
    43  H    0.160546
    44  H    0.153618
    45  H    0.155109
    46  H    0.153954
    47  H    0.165675
    48  H    0.121956
    49  H    0.118457
    50  H    0.123276
    51  H    0.125362
    52  H    0.127210
    53  H    0.142047
    54  H    0.162813
    55  H    0.133457
    56  H    0.138738
    57  H    0.140874
    58  H    0.137162
    59  H    0.162376
    60  H    0.149520
    61  H    0.135226
    62  H    0.131257
    63  H    0.131399
    64  H    0.133846
    65  H    0.149920
 Sum of Mulliken charges =  -0.00000

 Dipole moment (field-independent basis, Debye):
    X=             -3.2107    Y=              0.1373    Z=             -2.2903  Tot=              3.9462
 Quadrupole moment (field-independent basis, Debye-Ang):
   XX=           -181.2025   YY=           -188.5687   ZZ=           -194.6392
   XY=              2.7182   XZ=              6.0216   YZ=             10.2606

 Normal termination of Gaussian 16 at Sat Nov  5 10:10:44 2022.
