 Gaussian 16, Revision B.01,
 Gaussian 16:  ES64L-G16RevB.01 20-Dec-2017

 -----------------------------
 #p b3lyp/6-31g(d) opt SCF=XQC
 -----------------------------

 ------------------------------
 Gaussian input prepared by ASE
 ------------------------------
 Symbolic Z-matrix:
 Charge =  0 Multiplicity = 1

 SCF Done:  E(RB3LYP) =  -1346.93836080     A.U. after   15 cycles
 SCF Done:  E(RB3LYP) =  -1346.94686284     A.U. after   13 cycles
 SCF Done:  E(RB3LYP) =  -1346.94747603     A.U. after   12 cycles
 SCF Done:  E(RB3LYP) =  -1346.94770590     A.U. after   11 cycles
 SCF Done:  E(RB3LYP) =  -1346.94778319     A.U. after   10 cycles
 SCF Done:  E(RB3LYP) =  -1346.94784203     A.U. after   11 cycles
 SCF Done:  E(RB3LYP) =  -1346.94785697     A.U. after   10 cycles
 SCF Done:  E(RB3LYP) =  -1346.94786145     A.U. after   10 cycles
 SCF Done:  E(RB3LYP) =  -1346.94786296     A.U. after    9 cycles
 SCF Done:  E(RB3LYP) =  -1346.94786452     A.U. after    9 cycles
 SCF Done:  E(RB3LYP) =  -1346.94786519     A.U. after    8 cycles
 SCF Done:  E(RB3LYP) =  -1346.94786547     A.U. after    7 cycles
 SCF Done:  E(RB3LYP) =  -1346.94786560     A.U. after    7 cycles
 SCF Done:  E(RB3LYP) =  -1346.94786563     A.U. after    6 cycles
 Optimization completed.
    -- Stationary point found.

                         Standard orientation:
 ---------------------------------------------------------------------
 Center     Atomic      Atomic             Coordinates (Angstroms)
 Number     Number       Type             X           Y           Z
 ---------------------------------------------------------------------
      1          6           0       -4.462869   -4.146406   -0.653468
      2          6           0       -5.189692   -3.218569    0.344238
      3          6           0       -4.408666   -1.935460    0.541888
      4          6           0       -4.672251   -0.833290   -0.192462
      5          7           0       -3.863508    0.336207   -0.155486
      6          6           0       -4.485671    1.608018   -0.077636
      7          6           0       -5.709818    1.769757    0.591766
      8          6           0       -6.332838    3.017388    0.629934
      9          6           0       -5.741365    4.126476    0.025157
     10          6           0       -4.516012    3.971803   -0.630313
     11          6           0       -3.895382    2.727660   -0.691498
     12          6           0       -2.455154    0.224796    0.024870
     13          6           0       -1.700336   -0.633221   -0.790312
     14          6           0       -0.325273   -0.742459   -0.621137
     15          6           0        0.360899    0.009744    0.350839
     16          6           0        1.828528   -0.102487    0.519505
     17          6           0        2.434156   -0.011186    1.780777
     18          6           0        3.813990   -0.109426    1.946327
     19          6           0        4.661949   -0.314427    0.841364
     20          7           0        6.047257   -0.471963    0.995045
     21          6           0        6.595029   -0.610854    2.339432
     22          6           0        6.952307   -0.095813   -0.040332
     23          6           0        8.029879   -0.935683   -0.359687
     24          6           0        8.951200   -0.564290   -1.338184
     25          6           0        8.801126    0.639972   -2.028275
     26          6           0        7.723381    1.474177   -1.723354
     27          6           0        6.810695    1.117563   -0.731648
     28          6           0        4.058295   -0.419810   -0.430011
     29          6           0        2.683622   -0.309966   -0.579333
     30          6           0       -0.405744    0.871286    1.153392
     31          6           0       -1.786585    0.971520    1.005331
     32          6           0       -5.801846   -0.835120   -1.140812
     33          6           0       -6.714207   -1.817518   -1.121837
     34          6           0       -6.641146   -2.918232   -0.091532
     35          1           0       -3.434185   -4.340904   -0.329576
     36          1           0       -4.422417   -3.690099   -1.648870
     37          1           0       -4.979582   -5.110940   -0.739366
     38          1           0       -5.234016   -3.744695    1.306946
     39          1           0       -3.552123   -1.954419    1.210135
     40          1           0       -6.162817    0.917003    1.086580
     41          1           0       -7.281004    3.121460    1.151389
     42          1           0       -6.225588    5.098133    0.063266
     43          1           0       -4.044542    4.824863   -1.111682
     44          1           0       -2.952582    2.611397   -1.216475
     45          1           0       -2.203907   -1.224611   -1.548655
     46          1           0        0.228090   -1.435039   -1.249305
     47          1           0        1.814204    0.121705    2.663398
     48          1           0        4.224141   -0.026474    2.946218
     49          1           0        7.649962   -0.877973    2.268178
     50          1           0        6.521065    0.320709    2.923443
     51          1           0        6.071929   -1.403360    2.885317
     52          1           0        8.132298   -1.886972    0.155201
     53          1           0        9.779624   -1.227776   -1.572360
     54          1           0        9.514182    0.924102   -2.797033
     55          1           0        7.598820    2.417437   -2.248930
     56          1           0        5.982535    1.775499   -0.487053
     57          1           0        4.678213   -0.589713   -1.303667
     58          1           0        2.262768   -0.373157   -1.579251
     59          1           0        0.087885    1.485509    1.901446
     60          1           0       -2.352309    1.643924    1.642659
     61          1           0       -5.860915   -0.022152   -1.858543
     62          1           0       -7.541497   -1.812464   -1.828039
     63          1           0       -7.114405   -3.833644   -0.468949
     64          1           0       -7.231270   -2.612706    0.788715
 ---------------------------------------------------------------------

 The electronic state is 1-A.
 Alpha  occ. eigenvalues --  -14.35652 -14.35618 -10.22765 -10.22436 -10.22213
 Alpha  occ. eigenvalues --  -10.22056 -10.21816 -10.21636 -10.19250 -10.19183
 Alpha  occ. eigenvalues --  -10.19013 -10.18985 -10.18880 -10.18873 -10.18872
 Alpha  occ. eigenvalues --  -10.18420 -10.18417 -10.18386 -10.18329 -10.18303
 Alpha  occ. eigenvalues --  -10.18246 -10.18236 -10.18234 -10.18181 -10.18150
 Alpha  occ. eigenvalues --  -10.18121 -10.18053 -10.18014 -10.17987 -10.17980
 Alpha  occ. eigenvalues --  -10.17937 -10.17829 -10.17077 -10.16942  -0.95497
 Alpha  occ. eigenvalues --   -0.95258  -0.85679  -0.84832  -0.84268  -0.83458
 Alpha  occ. eigenvalues --   -0.82289  -0.76945  -0.75584  -0.75083  -0.74804
 Alpha  occ. eigenvalues --   -0.74521  -0.73877  -0.73771  -0.73235  -0.72496
 Alpha  occ. eigenvalues --   -0.69994  -0.67508  -0.67272  -0.62947  -0.61807
 Alpha  occ. eigenvalues --   -0.60992  -0.60754  -0.59968  -0.59207  -0.58465
 Alpha  occ. eigenvalues --   -0.58164  -0.56999  -0.55844  -0.53370  -0.52504
 Alpha  occ. eigenvalues --   -0.52034  -0.50829  -0.49134  -0.48298  -0.47901
 Alpha  occ. eigenvalues --   -0.47661  -0.46482  -0.45474  -0.44778  -0.44548
 Alpha  occ. eigenvalues --   -0.44315  -0.44015  -0.43730  -0.43523  -0.43087
 Alpha  occ. eigenvalues --   -0.42596  -0.42290  -0.41966  -0.41612  -0.41411
 Alpha  occ. eigenvalues --   -0.41332  -0.40932  -0.40651  -0.39809  -0.38718
 Alpha  occ. eigenvalues --   -0.38145  -0.37152  -0.36465  -0.36394  -0.36133
 Alpha  occ. eigenvalues --   -0.35924  -0.35504  -0.35382  -0.34725  -0.34634
 Alpha  occ. eigenvalues --   -0.34486  -0.34069  -0.33708  -0.32959  -0.32320
 Alpha  occ. eigenvalues --   -0.31946  -0.30739  -0.29682  -0.27998  -0.26096
 Alpha  occ. eigenvalues --   -0.25236  -0.24790  -0.24307  -0.24109  -0.23825
 Alpha  occ. eigenvalues --   -0.21638  -0.18859  -0.16932
 Alpha virt. eigenvalues --   -0.02472  -0.01806  -0.00551  -0.00128   0.00145
 Alpha virt. eigenvalues --    0.00931   0.01386   0.01805   0.04710   0.08909
 Alpha virt. eigenvalues --    0.09001   0.09423   0.10420   0.10451   0.11155

 Mulliken charges:
               1
     1  C   -0.441379
     2  C   -0.116606
     3  C   -0.207772
     4  C    0.291346
     5  N   -0.645290
     6  C    0.282670
     7  C   -0.171047
     8  C   -0.139863
     9  C   -0.129938
    10  C   -0.140089
    11  C   -0.161681
    12  C    0.276493
    13  C   -0.157839
    14  C   -0.192335
    15  C    0.099146
    16  C    0.092979
    17  C   -0.189173
    18  C   -0.203959
    19  C    0.343369
    20  N   -0.567407
    21  C   -0.314005
    22  C    0.258742
    23  C   -0.160219
    24  C   -0.138545
    25  C   -0.126832
    26  C   -0.142002
    27  C   -0.147243
    28  C   -0.180186
    29  C   -0.187468
    30  C   -0.192096
    31  C   -0.169544
    32  C   -0.123908
    33  C   -0.134695
    34  C   -0.301746
    35  H    0.145126
    36  H    0.152427
    37  H    0.136039
    38  H    0.128125
    39  H    0.136270
    40  H    0.142968
    41  H    0.127869
    42  H    0.124172
    43  H    0.128531
    44  H    0.142451
    45  H    0.137990
    46  H    0.130603
    47  H    0.127851
    48  H    0.125459
    49  H    0.165885
    50  H    0.150865
    51  H    0.164167
    52  H    0.133669
    53  H    0.131440
    54  H    0.129206
    55  H    0.133048
    56  H    0.145630
    57  H    0.141734
    58  H    0.128893
    59  H    0.129966
    60  H    0.142697
    61  H    0.140896
    62  H    0.128477
    63  H    0.137054
    64  H    0.148615
 Sum of Mulliken charges =  -0.00000

 Dipole moment (field-independent basis, Debye):
    X=              1.4663    Y=             -0.4378    Z=              0.4967  Tot=              1.6089
 Quadrupole moment (field-independent basis, Debye-Ang):
   XX=           -169.9470   YY=           -191.5091   ZZ=           -190.4566
   XY=              1.1665   XZ=              0.7686   YZ=             -1.5668

 1\1\GINC-NODE89\FOpt\RB3LYP\6-31G(d)\C32H30N2\WYKGROUP\04-Nov-2022\0\\
 #p b3lyp/6-31g(d) opt SCF=XQC\\Gaussian input prepared by ASE\\0,1\C,-
 4.8564794541,-3.3314754954,-0.8963583341\C,-5.414245096,-2.507780242,0
 .2847403531\C,-4.4755011628,-1.3693201963,0.6284044905\C,-4.6420430247
 ,-0.1382802771,0.0989436321\N,-3.6977351749,0.9124683631,0.2643729368\
 C,-4.1576483185,2.2144239206,0.5869264106\C,-5.317445924,2.3967188005,
 1.3579210592\C,-5.7831546246,3.6816629634,1.6376145437\C,-5.094489014,
 4.8037140411,1.1767323893\C,-3.9319310371,4.6258973279,0.4204960906\C,

 Normal termination of Gaussian 16 at Fri Nov  4 23:26:21 2022.
