 Gaussian 16, Revision B.01,
 Gaussian 16:  ES64L-G16RevB.01 20-Dec-2017

 -------------------------------------------------------------------
 #p b3lyp/6-31g(d) 6D 10F nosymm GFInput td=(50-50,nstate=2) SCF=XQC
 -------------------------------------------------------------------

 ------------------------------
 Gaussian input prepared by ASE
 ------------------------------
 Symbolic Z-matrix:
 Charge =  0 Multiplicity = 1

                          Input orientation:
 ---------------------------------------------------------------------
 Center     Atomic      Atomic             Coordinates (Angstroms)
 Number     Number       Type             X           Y           Z
 ---------------------------------------------------------------------
      1          6           0       -4.856479   -3.331475   -0.896358
      2          6           0       -5.414245   -2.507780    0.284740
      3          6           0       -4.475501   -1.369320    0.628404
      4          6           0       -4.642043   -0.138280    0.098944
      5          7           0       -3.697735    0.912468    0.264373
      6          6           0       -4.157648    2.214424    0.586926
      7          6           0       -5.317446    2.396719    1.357921
      8          6           0       -5.783155    3.681663    1.637615
      9          6           0       -5.094489    4.803714    1.176732
     10          6           0       -3.931931    4.625897    0.420496
     11          6           0       -3.469354    3.348457    0.118858
     12          6           0       -2.305599    0.618101    0.325250
     13          6           0       -1.702305   -0.170566   -0.666973
     14          6           0       -0.343487   -0.457277   -0.614420
     15          6           0        0.477173    0.042821    0.414073
     16          6           0        1.927376   -0.256943    0.459141
     17          6           0        2.603590   -0.443643    1.673146
     18          6           0        3.968273   -0.719501    1.723541
     19          6           0        4.727531   -0.830406    0.543190
     20          7           0        6.089902   -1.163004    0.572087
     21          6           0        6.685351   -1.582700    1.835424
     22          6           0        6.979208   -0.722261   -0.451383
     23          6           0        7.930144   -1.611045   -0.975135
     24          6           0        8.837930   -1.186202   -1.944491
     25          6           0        8.798474    0.125022   -2.422122
     26          6           0        7.845944    1.010669   -1.913473
     27          6           0        6.949174    0.597164   -0.929366
     28          6           0        4.051063   -0.656046   -0.683142
     29          6           0        2.693725   -0.372079   -0.716075
     30          6           0       -0.138069    0.838341    1.395251
     31          6           0       -1.502613    1.113362    1.362466
     32          6           0       -5.810889    0.141900   -0.755840
     33          6           0       -6.832556   -0.723370   -0.829145
     34          6           0       -6.839521   -1.981119    0.005394
     35          1           0       -3.843368   -3.689242   -0.680639
     36          1           0       -4.812658   -2.723514   -1.806930
     37          1           0       -5.489135   -4.205440   -1.097921
     38          1           0       -5.471979   -3.178305    1.152290
     39          1           0       -3.594255   -1.593268    1.223241
     40          1           0       -5.843657    1.528853    1.741519
     41          1           0       -6.683876    3.801588    2.234343
     42          1           0       -5.455776    5.802930    1.402745
     43          1           0       -3.386679    5.489795    0.048888
     44          1           0       -2.575600    3.217760   -0.482899
     45          1           0       -2.311620   -0.568675   -1.472364
     46          1           0        0.089581   -1.092668   -1.382016
     47          1           0        2.050288   -0.391620    2.607047
     48          1           0        4.436253   -0.849437    2.692561
     49          1           0        7.695451   -1.948918    1.648623
     50          1           0        6.754030   -0.758633    2.563811
     51          1           0        6.099507   -2.392279    2.283821
     52          1           0        7.943767   -2.640028   -0.626483
     53          1           0        9.567440   -1.888818   -2.338807
     54          1           0        9.500070    0.452487   -3.184157
     55          1           0        7.808854    2.036000   -2.272369
     56          1           0        6.219793    1.292582   -0.525690
     57          1           0        4.600342   -0.745822   -1.614094
     58          1           0        2.217509   -0.221595   -1.681228
     59          1           0        0.463606    1.261630    2.194837
     60          1           0       -1.949891    1.728823    2.136745
     61          1           0       -5.808587    1.064237   -1.329280
     62          1           0       -7.688423   -0.509972   -1.465628
     63          1           0       -7.438169   -2.763337   -0.478499
     64          1           0       -7.342617   -1.762819    0.962298
 ---------------------------------------------------------------------

 SCF Done:  E(RB3LYP) =  -1346.94786388     A.U. after   15 cycles

 Excitation energies and oscillator strengths:

 Excited state symmetry could not be determined.
 Excited State   1:      Triplet-?Sym    2.3393 eV  530.01 nm  f=0.0000  <S**2>=2.000
     116 ->119         0.25172
     116 ->120         0.19110
     117 ->119        -0.24273
     117 ->120        -0.19046
     118 ->119         0.45711
     118 ->120         0.23335
 This state for optimization and/or second-order correction.
 Total Energy, E(TD-HF/TD-DFT) =  -1346.86189630
 Copying the excited state density for this state as the 1-particle RhoCI density.

 Excited state symmetry could not be determined.
 Excited State   2:      Triplet-?Sym    2.7806 eV  445.89 nm  f=0.0000  <S**2>=2.000
     116 ->119         0.10377
     117 ->119        -0.18520
     118 ->119        -0.36799
     118 ->120         0.46707
     118 ->122         0.11439

 Excited state symmetry could not be determined.
 Excited State   3:      Singlet-?Sym    3.4176 eV  362.78 nm  f=0.3770  <S**2>=0.000
     118 ->119         0.69102

 Excited state symmetry could not be determined.
 Excited State   4:      Singlet-?Sym    3.6049 eV  343.93 nm  f=0.4997  <S**2>=0.000
     118 ->120         0.68695

 Alpha  occ. eigenvalues --  -14.35652 -14.35618 -10.22765 -10.22436 -10.22213
 Alpha  occ. eigenvalues --  -10.22056 -10.21816 -10.21636 -10.19250 -10.19183
 Alpha  occ. eigenvalues --  -10.19013 -10.18985 -10.18880 -10.18873 -10.18872
 Alpha  occ. eigenvalues --  -10.18420 -10.18417 -10.18386 -10.18329 -10.18302
 Alpha  occ. eigenvalues --  -10.18246 -10.18236 -10.18234 -10.18181 -10.18150
 Alpha  occ. eigenvalues --  -10.18121 -10.18053 -10.18014 -10.17987 -10.17980
 Alpha  occ. eigenvalues --  -10.17937 -10.17830 -10.17077 -10.16942  -0.95497
 Alpha  occ. eigenvalues --   -0.95258  -0.85679  -0.84831  -0.84268  -0.83458
 Alpha  occ. eigenvalues --   -0.82289  -0.76945  -0.75584  -0.75083  -0.74804
 Alpha  occ. eigenvalues --   -0.74521  -0.73877  -0.73771  -0.73235  -0.72496
 Alpha  occ. eigenvalues --   -0.69995  -0.67508  -0.67272  -0.62947  -0.61807
 Alpha  occ. eigenvalues --   -0.60992  -0.60754  -0.59968  -0.59207  -0.58465
 Alpha  occ. eigenvalues --   -0.58164  -0.56999  -0.55844  -0.53370  -0.52504
 Alpha  occ. eigenvalues --   -0.52033  -0.50829  -0.49134  -0.48298  -0.47901
 Alpha  occ. eigenvalues --   -0.47661  -0.46482  -0.45474  -0.44778  -0.44548
 Alpha  occ. eigenvalues --   -0.44315  -0.44015  -0.43730  -0.43523  -0.43087
 Alpha  occ. eigenvalues --   -0.42596  -0.42290  -0.41966  -0.41612  -0.41411
 Alpha  occ. eigenvalues --   -0.41332  -0.40932  -0.40651  -0.39809  -0.38718
 Alpha  occ. eigenvalues --   -0.38145  -0.37152  -0.36465  -0.36394  -0.36133
 Alpha  occ. eigenvalues --   -0.35924  -0.35504  -0.35382  -0.34725  -0.34634
 Alpha  occ. eigenvalues --   -0.34486  -0.34069  -0.33708  -0.32959  -0.32320
 Alpha  occ. eigenvalues --   -0.31946  -0.30739  -0.29682  -0.27998  -0.26096
 Alpha  occ. eigenvalues --   -0.25236  -0.24790  -0.24307  -0.24109  -0.23825
 Alpha  occ. eigenvalues --   -0.21638  -0.18859  -0.16932
 Alpha virt. eigenvalues --   -0.02472  -0.01806  -0.00551  -0.00128   0.00145
 Alpha virt. eigenvalues --    0.00931   0.01386   0.01805   0.04710   0.08909
 Alpha virt. eigenvalues --    0.09002   0.09423   0.10420   0.10451   0.11155

 Mulliken charges:
               1
     1  C   -0.441374
     2  C   -0.116605
     3  C   -0.207782
     4  C    0.291336
     5  N   -0.645302
     6  C    0.282678
     7  C   -0.171035
     8  C   -0.139860
     9  C   -0.129946
    10  C   -0.140079
    11  C   -0.161697
    12  C    0.276513
    13  C   -0.157840
    14  C   -0.192340
    15  C    0.099145
    16  C    0.092985
    17  C   -0.189176
    18  C   -0.203963
    19  C    0.343384
    20  N   -0.567414
    21  C   -0.314009
    22  C    0.258751
    23  C   -0.160220
    24  C   -0.138543
    25  C   -0.126841
    26  C   -0.141976
    27  C   -0.147260
    28  C   -0.180191
    29  C   -0.187466
    30  C   -0.192096
    31  C   -0.169552
    32  C   -0.123903
    33  C   -0.134690
    34  C   -0.301737
    35  H    0.145126
    36  H    0.152425
    37  H    0.136038
    38  H    0.128125
    39  H    0.136271
    40  H    0.142963
    41  H    0.127869
    42  H    0.124172
    43  H    0.128530
    44  H    0.142454
    45  H    0.137989
    46  H    0.130603
    47  H    0.127852
    48  H    0.125460
    49  H    0.165886
    50  H    0.150865
    51  H    0.164168
    52  H    0.133667
    53  H    0.131440
    54  H    0.129206
    55  H    0.133046
    56  H    0.145629
    57  H    0.141735
    58  H    0.128893
    59  H    0.129964
    60  H    0.142701
    61  H    0.140891
    62  H    0.128477
    63  H    0.137053
    64  H    0.148613
 Sum of Mulliken charges =  -0.00000

 Dipole moment (field-independent basis, Debye):
    X=              1.4267    Y=             -0.6731    Z=              0.3165  Tot=              1.6089
 Quadrupole moment (field-independent basis, Debye-Ang):
   XX=           -169.6900   YY=           -191.1091   ZZ=           -190.9463
   XY=             -1.3062   XZ=             -0.5631   YZ=             -1.6715

 Normal termination of Gaussian 16 at Sat Nov  5 10:09:47 2022.
