 Gaussian 16, Revision B.01,
 Gaussian 16:  ES64L-G16RevB.01 20-Dec-2017

 -----------------------------
 #p b3lyp/6-31g(d) opt SCF=XQC
 -----------------------------

 ------------------------------
 Gaussian input prepared by ASE
 ------------------------------
 Symbolic Z-matrix:
 Charge =  0 Multiplicity = 1

 SCF Done:  E(RB3LYP) =  -1684.70961902     A.U. after   16 cycles
 SCF Done:  E(RB3LYP) =  -1684.71665812     A.U. after   15 cycles
 SCF Done:  E(RB3LYP) =  -1684.71763114     A.U. after   15 cycles
 SCF Done:  E(RB3LYP) =  -1684.72162898     A.U. after   15 cycles
 SCF Done:  E(RB3LYP) =  -1684.72247559     A.U. after   12 cycles
 SCF Done:  E(RB3LYP) =  -1684.72266370     A.U. after   11 cycles
 SCF Done:  E(RB3LYP) =  -1684.72287047     A.U. after   11 cycles
 SCF Done:  E(RB3LYP) =  -1684.72302086     A.U. after   11 cycles
 SCF Done:  E(RB3LYP) =  -1684.72316923     A.U. after   12 cycles
 SCF Done:  E(RB3LYP) =  -1684.72324664     A.U. after   11 cycles
 SCF Done:  E(RB3LYP) =  -1684.72567854     A.U. after   11 cycles
 SCF Done:  E(RB3LYP) =  -1684.72568062     A.U. after   10 cycles
 SCF Done:  E(RB3LYP) =  -1684.72568156     A.U. after    7 cycles
 SCF Done:  E(RB3LYP) =  -1684.72568383     A.U. after    9 cycles
 SCF Done:  E(RB3LYP) =  -1684.72568511     A.U. after    9 cycles
 SCF Done:  E(RB3LYP) =  -1684.72568536     A.U. after    7 cycles
 SCF Done:  E(RB3LYP) =  -1684.72568618     A.U. after    9 cycles
 SCF Done:  E(RB3LYP) =  -1684.72568662     A.U. after    8 cycles
 SCF Done:  E(RB3LYP) =  -1684.72568671     A.U. after    7 cycles
 SCF Done:  E(RB3LYP) =  -1684.72568673     A.U. after    6 cycles
 Optimization completed.
    -- Stationary point found.

                         Standard orientation:
 ---------------------------------------------------------------------
 Center     Atomic      Atomic             Coordinates (Angstroms)
 Number     Number       Type             X           Y           Z
 ---------------------------------------------------------------------
      1          8           0       -1.121176   -0.906661   -2.566555
      2          6           0       -0.562915   -0.282241   -1.668908
      3          6           0        0.963213   -0.209991   -1.631726
      4          6           0        1.485842    1.152542   -1.147814
      5          6           0        3.003052    1.233490   -1.091896
      6          6           0        3.681300    2.181311   -1.864593
      7          6           0        5.084140    2.299846   -1.854443
      8          6           0        5.774782    1.428435   -1.039007
      9          6           0        5.112688    0.479299   -0.262805
     10          6           0        3.739824    0.354641   -0.262738
     11          8           0        6.031650   -0.237658    0.470579
     12          6           0        7.313957    0.171424   -0.017953
     13          8           0        7.130750    1.342158   -0.820632
     14          6           0        0.834108    1.485845    0.207563
     15          6           0       -0.673141    1.322482    0.181924
     16          6           0       -1.304826    0.401014   -0.602235
     17          6           0       -2.787239    0.148571   -0.338890
     18          6           0       -3.360159   -1.171027   -0.857348
     19          6           0       -4.492542   -1.225301   -1.664860
     20          6           0       -5.044889   -2.444233   -2.071759
     21          6           0       -4.466484   -3.635724   -1.651032
     22          6           0       -3.341017   -3.613499   -0.821108
     23          6           0       -2.796638   -2.390713   -0.427008
     24          8           0       -1.703194   -2.273073    0.397631
     25          6           0       -0.979232   -3.447197    0.756021
     26          6           0        0.249497   -3.024125    1.525274
     27          6           0        0.132921   -2.179552    2.638178
     28          6           0        1.264843   -1.791415    3.353422
     29          6           0        2.530103   -2.248199    2.970325
     30          6           0        2.654568   -3.091952    1.866028
     31          6           0        1.518415   -3.473058    1.145930
     32          7           0       -3.640710    1.286693   -0.710929
     33          6           0       -3.678036    2.376129    0.200587
     34          6           0       -4.869416    3.112989    0.270997
     35          6           0       -5.037457    4.180323    1.147627
     36          6           0       -4.002465    4.505092    2.025446
     37          6           0       -2.816141    3.782647    1.985039
     38          6           0       -2.617795    2.734209    1.067976
     39          7           0       -1.327291    2.150838    1.077544
     40          1           0        1.310329   -1.003232   -0.953269
     41          1           0        1.336476   -0.448912   -2.631713
     42          1           0        1.142900    1.910516   -1.864862
     43          1           0        3.107896    2.849222   -2.501968
     44          1           0        5.598677    3.039803   -2.457934
     45          1           0        3.256172   -0.397756    0.352190
     46          1           0        7.966312    0.408588    0.827223
     47          1           0        7.745094   -0.631536   -0.633212
     48          1           0        1.100923    2.511035    0.495382
     49          1           0        1.241635    0.821917    0.984329
     50          1           0       -2.872449    0.084365    0.754626
     51          1           0       -4.957115   -0.293108   -1.965725
     52          1           0       -5.924391   -2.453799   -2.709484
     53          1           0       -4.884847   -4.591414   -1.955871
     54          1           0       -2.903087   -4.547716   -0.488120
     55          1           0       -0.694709   -4.006906   -0.144668
     56          1           0       -1.617939   -4.101533    1.369338
     57          1           0       -0.849076   -1.819094    2.931195
     58          1           0        1.161226   -1.137186    4.215315
     59          1           0        3.411986   -1.948509    3.530033
     60          1           0        3.634052   -3.449377    1.559979
     61          1           0        1.620819   -4.123619    0.280388
     62          1           0       -3.473538    1.579668   -1.669151
     63          1           0       -5.675652    2.804242   -0.388136
     64          1           0       -5.972311    4.732756    1.163050
     65          1           0       -4.112164    5.317679    2.737976
     66          1           0       -2.003628    4.048271    2.659943
     67          1           0       -0.698992    2.652405    1.691359
 ---------------------------------------------------------------------

 The electronic state is 1-A.
 Alpha  occ. eigenvalues --  -19.19475 -19.19444 -19.16975 -19.10273 -14.37981
 Alpha  occ. eigenvalues --  -14.32456 -10.30899 -10.25026 -10.24923 -10.24712
 Alpha  occ. eigenvalues --  -10.24500 -10.24458 -10.23849 -10.23098 -10.22195
 Alpha  occ. eigenvalues --  -10.21908 -10.20425 -10.20341 -10.20336 -10.19837
 Alpha  occ. eigenvalues --  -10.19795 -10.19778 -10.19741 -10.19721 -10.19702
 Alpha  occ. eigenvalues --  -10.19513 -10.19451 -10.19263 -10.19124 -10.18886
 Alpha  occ. eigenvalues --  -10.18379 -10.18321 -10.17801 -10.17770 -10.17425
 Alpha  occ. eigenvalues --  -10.17297 -10.17214 -10.16668 -10.16524  -1.12744
 Alpha  occ. eigenvalues --   -1.05512  -1.03620  -1.00301  -0.96833  -0.91386
 Alpha  occ. eigenvalues --   -0.86667  -0.86207  -0.85123  -0.83245  -0.82423
 Alpha  occ. eigenvalues --   -0.78333  -0.77826  -0.76101  -0.75620  -0.75058
 Alpha  occ. eigenvalues --   -0.74570  -0.72969  -0.72647  -0.72149  -0.70872
 Alpha  occ. eigenvalues --   -0.68522  -0.68015  -0.65831  -0.63176  -0.62425
 Alpha  occ. eigenvalues --   -0.61873  -0.61522  -0.61318  -0.60086  -0.58797
 Alpha  occ. eigenvalues --   -0.57891  -0.57224  -0.56531  -0.53998  -0.52755
 Alpha  occ. eigenvalues --   -0.52414  -0.52305  -0.51887  -0.51758  -0.50998
 Alpha  occ. eigenvalues --   -0.49951  -0.49437  -0.48089  -0.47899  -0.47318
 Alpha  occ. eigenvalues --   -0.46908  -0.46506  -0.45997  -0.44946  -0.44666
 Alpha  occ. eigenvalues --   -0.44308  -0.43717  -0.43633  -0.43500  -0.42755
 Alpha  occ. eigenvalues --   -0.42598  -0.42451  -0.42268  -0.41629  -0.40850
 Alpha  occ. eigenvalues --   -0.40511  -0.39940  -0.39622  -0.39316  -0.38712
 Alpha  occ. eigenvalues --   -0.38472  -0.38372  -0.37460  -0.37008  -0.36604
 Alpha  occ. eigenvalues --   -0.36450  -0.35943  -0.35657  -0.35304  -0.35170
 Alpha  occ. eigenvalues --   -0.34904  -0.34575  -0.34179  -0.33992  -0.33710
 Alpha  occ. eigenvalues --   -0.32700  -0.32195  -0.31326  -0.30783  -0.30341
 Alpha  occ. eigenvalues --   -0.27195  -0.25745  -0.25346  -0.25087  -0.24725
 Alpha  occ. eigenvalues --   -0.23643  -0.22601  -0.21740  -0.20717  -0.19664
 Alpha  occ. eigenvalues --   -0.18259
 Alpha virt. eigenvalues --   -0.03167  -0.01232  -0.00776  -0.00151   0.00006
 Alpha virt. eigenvalues --    0.00944   0.01902   0.02196   0.03049   0.05948
 Alpha virt. eigenvalues --    0.06762   0.08568   0.09115   0.09768   0.10248

 Mulliken charges:
               1
     1  O   -0.501948
     2  C    0.392586
     3  C   -0.353142
     4  C   -0.206321
     5  C    0.173975
     6  C   -0.212124
     7  C   -0.183344
     8  C    0.332004
     9  C    0.326073
    10  C   -0.250057
    11  O   -0.535505
    12  C    0.191618
    13  O   -0.530580
    14  C   -0.357129
    15  C    0.306867
    16  C    0.073403
    17  C   -0.124141
    18  C    0.124344
    19  C   -0.178638
    20  C   -0.131942
    21  C   -0.137095
    22  C   -0.195341
    23  C    0.353382
    24  O   -0.539299
    25  C   -0.112134
    26  C    0.138533
    27  C   -0.157723
    28  C   -0.138429
    29  C   -0.130534
    30  C   -0.134320
    31  C   -0.185417
    32  N   -0.661406
    33  C    0.263356
    34  C   -0.169527
    35  C   -0.139016
    36  C   -0.131693
    37  C   -0.214476
    38  C    0.349325
    39  N   -0.774421
    40  H    0.166359
    41  H    0.162120
    42  H    0.140596
    43  H    0.128897
    44  H    0.145018
    45  H    0.157211
    46  H    0.164291
    47  H    0.153490
    48  H    0.143465
    49  H    0.179237
    50  H    0.173150
    51  H    0.126685
    52  H    0.117906
    53  H    0.120792
    54  H    0.127279
    55  H    0.153835
    56  H    0.149788
    57  H    0.144338
    58  H    0.132325
    59  H    0.136505
    60  H    0.139302
    61  H    0.134943
    62  H    0.322003
    63  H    0.136348
    64  H    0.128265
    65  H    0.128402
    66  H    0.120261
    67  H    0.327424
 Sum of Mulliken charges =  -0.00000

 Dipole moment (field-independent basis, Debye):
    X=              3.5024    Y=              1.5594    Z=              3.3112  Tot=              5.0658
 Quadrupole moment (field-independent basis, Debye-Ang):
   XX=           -212.0259   YY=           -207.1607   ZZ=           -223.6983
   XY=             -9.0539   XZ=              2.0514   YZ=             -0.6283

 Normal termination of Gaussian 16 at Sat Nov  5 01:03:16 2022.
