 Gaussian 16, Revision B.01,
 Gaussian 16:  ES64L-G16RevB.01 20-Dec-2017

 -------------------------------------------------------------------
 #p b3lyp/6-31g(d) 6D 10F nosymm GFInput td=(50-50,nstate=2) SCF=XQC
 -------------------------------------------------------------------

 ------------------------------
 Gaussian input prepared by ASE
 ------------------------------
 Symbolic Z-matrix:
 Charge =  0 Multiplicity = 1

                          Input orientation:
 ---------------------------------------------------------------------
 Center     Atomic      Atomic             Coordinates (Angstroms)
 Number     Number       Type             X           Y           Z
 ---------------------------------------------------------------------
      1          8           0       -0.380452   -1.273309    2.752567
      2          6           0        0.110716   -0.817654    1.723753
      3          6           0        0.975415    0.440774    1.789512
      4          6           0        2.156344    0.407071    0.805602
      5          6           0        3.016864    1.659723    0.850021
      6          6           0        4.371066    1.565784    1.185814
      7          6           0        5.214271    2.691669    1.245001
      8          6           0        4.641616    3.911947    0.954714
      9          6           0        3.293931    4.021087    0.617739
     10          6           0        2.458744    2.926201    0.554645
     11          8           0        2.990930    5.338077    0.352978
     12          6           0        4.158401    6.080763    0.721424
     13          8           0        5.232291    5.154178    0.912933
     14          6           0        1.620659    0.117904   -0.609431
     15          6           0        0.691556   -1.079890   -0.644098
     16          6           0       -0.107032   -1.428198    0.406604
     17          6           0       -1.186660   -2.477641    0.154225
     18          6           0       -2.349966   -2.516004    1.146003
     19          6           0       -2.736545   -3.684577    1.795853
     20          6           0       -3.847141   -3.717706    2.645516
     21          6           0       -4.599469   -2.565397    2.838905
     22          6           0       -4.248849   -1.381333    2.182398
     23          6           0       -3.135350   -1.360493    1.341829
     24          8           0       -2.726102   -0.248152    0.645624
     25          6           0       -3.366234    0.999569    0.899700
     26          6           0       -2.628823    2.070162    0.131213
     27          6           0       -2.400099    1.924873   -1.244296
     28          6           0       -1.724192    2.913833   -1.957444
     29          6           0       -1.273037    4.066689   -1.306537
     30          6           0       -1.499702    4.220817    0.061583
     31          6           0       -2.170832    3.223656    0.775643
     32          7           0       -0.639673   -3.821771   -0.082983
     33          6           0       -0.112136   -4.072353   -1.378374
     34          6           0       -0.203544   -5.384528   -1.865351
     35          6           0        0.247957   -5.745236   -3.131034
     36          6           0        0.769242   -4.759823   -3.970363
     37          6           0        0.859299   -3.449380   -3.516982
     38          6           0        0.452022   -3.084014   -2.220757
     39          7           0        0.689765   -1.734200   -1.863974
     40          1           0        0.323613    1.296186    1.558320
     41          1           0        1.318209    0.560720    2.821251
     42          1           0        2.795640   -0.440480    1.087116
     43          1           0        4.790354    0.589806    1.415614
     44          1           0        6.263521    2.605703    1.506098
     45          1           0        1.412693    3.047160    0.291386
     46          1           0        4.416546    6.775142   -0.083147
     47          1           0        3.968121    6.621033    1.660077
     48          1           0        2.466214   -0.036482   -1.292254
     49          1           0        1.069585    0.994975   -0.979981
     50          1           0       -1.640652   -2.190326   -0.804160
     51          1           0       -2.163692   -4.587685    1.618178
     52          1           0       -4.118622   -4.643275    3.145445
     53          1           0       -5.466963   -2.574768    3.493630
     54          1           0       -4.848128   -0.489969    2.329913
     55          1           0       -3.352886    1.220505    1.975097
     56          1           0       -4.418972    0.945524    0.581766
     57          1           0       -2.744226    1.026123   -1.748213
     58          1           0       -1.554114    2.790063   -3.023919
     59          1           0       -0.749348    4.839159   -1.863171
     60          1           0       -1.150300    5.112155    0.575628
     61          1           0       -2.337517    3.343645    1.843677
     62          1           0       -0.008225   -4.103306    0.661316
     63          1           0       -0.661009   -6.119419   -1.209258
     64          1           0        0.169263   -6.775197   -3.466237
     65          1           0        1.108000   -5.005540   -4.972808
     66          1           0        1.281476   -2.684913   -4.167817
     67          1           0        1.216167   -1.249655   -2.578968
 ---------------------------------------------------------------------

 SCF Done:  E(RB3LYP) =  -1684.72569203     A.U. after   17 cycles

 Excitation energies and oscillator strengths:

 Excited state symmetry could not be determined.
 Excited State   1:      Triplet-?Sym    2.5712 eV  482.21 nm  f=0.0000  <S**2>=2.000
     129 ->137         0.10162
     132 ->137        -0.11404
     136 ->137         0.65584
 This state for optimization and/or second-order correction.
 Total Energy, E(TD-HF/TD-DFT) =  -1684.63120265
 Copying the excited state density for this state as the 1-particle RhoCI density.

 Excited state symmetry could not be determined.
 Excited State   2:      Triplet-?Sym    3.1380 eV  395.11 nm  f=0.0000  <S**2>=2.000
     131 ->137         0.20796
     133 ->137         0.32416
     134 ->137        -0.10692
     135 ->137         0.52677
     135 ->144         0.10199

 Excited state symmetry could not be determined.
 Excited State   3:      Singlet-?Sym    3.4098 eV  363.61 nm  f=0.0451  <S**2>=0.000
     133 ->137         0.19770
     135 ->137         0.39569
     136 ->137         0.52411

 Excited state symmetry could not be determined.
 Excited State   4:      Singlet-?Sym    3.6274 eV  341.80 nm  f=0.0741  <S**2>=0.000
     131 ->137         0.12085
     133 ->137         0.16111
     135 ->137         0.47321
     136 ->137        -0.45090

 Alpha  occ. eigenvalues --  -19.19475 -19.19444 -19.16975 -19.10273 -14.37981
 Alpha  occ. eigenvalues --  -14.32456 -10.30899 -10.25026 -10.24923 -10.24712
 Alpha  occ. eigenvalues --  -10.24500 -10.24458 -10.23849 -10.23098 -10.22195
 Alpha  occ. eigenvalues --  -10.21908 -10.20425 -10.20341 -10.20336 -10.19837
 Alpha  occ. eigenvalues --  -10.19795 -10.19778 -10.19741 -10.19721 -10.19701
 Alpha  occ. eigenvalues --  -10.19512 -10.19451 -10.19263 -10.19124 -10.18886
 Alpha  occ. eigenvalues --  -10.18379 -10.18321 -10.17801 -10.17770 -10.17425
 Alpha  occ. eigenvalues --  -10.17297 -10.17214 -10.16668 -10.16524  -1.12744
 Alpha  occ. eigenvalues --   -1.05512  -1.03620  -1.00301  -0.96833  -0.91387
 Alpha  occ. eigenvalues --   -0.86667  -0.86206  -0.85123  -0.83245  -0.82423
 Alpha  occ. eigenvalues --   -0.78333  -0.77825  -0.76101  -0.75620  -0.75058
 Alpha  occ. eigenvalues --   -0.74570  -0.72969  -0.72647  -0.72149  -0.70872
 Alpha  occ. eigenvalues --   -0.68522  -0.68015  -0.65831  -0.63176  -0.62425
 Alpha  occ. eigenvalues --   -0.61873  -0.61522  -0.61318  -0.60086  -0.58797
 Alpha  occ. eigenvalues --   -0.57891  -0.57224  -0.56531  -0.53998  -0.52755
 Alpha  occ. eigenvalues --   -0.52414  -0.52305  -0.51887  -0.51758  -0.50998
 Alpha  occ. eigenvalues --   -0.49951  -0.49437  -0.48089  -0.47899  -0.47318
 Alpha  occ. eigenvalues --   -0.46908  -0.46507  -0.45997  -0.44947  -0.44666
 Alpha  occ. eigenvalues --   -0.44308  -0.43717  -0.43633  -0.43500  -0.42755
 Alpha  occ. eigenvalues --   -0.42598  -0.42451  -0.42268  -0.41629  -0.40850
 Alpha  occ. eigenvalues --   -0.40511  -0.39940  -0.39622  -0.39317  -0.38712
 Alpha  occ. eigenvalues --   -0.38472  -0.38372  -0.37461  -0.37008  -0.36604
 Alpha  occ. eigenvalues --   -0.36450  -0.35943  -0.35657  -0.35304  -0.35170
 Alpha  occ. eigenvalues --   -0.34904  -0.34575  -0.34179  -0.33992  -0.33710
 Alpha  occ. eigenvalues --   -0.32700  -0.32195  -0.31326  -0.30783  -0.30341
 Alpha  occ. eigenvalues --   -0.27196  -0.25745  -0.25345  -0.25087  -0.24725
 Alpha  occ. eigenvalues --   -0.23643  -0.22602  -0.21740  -0.20717  -0.19664
 Alpha  occ. eigenvalues --   -0.18259
 Alpha virt. eigenvalues --   -0.03167  -0.01232  -0.00776  -0.00151   0.00006
 Alpha virt. eigenvalues --    0.00944   0.01902   0.02196   0.03049   0.05948
 Alpha virt. eigenvalues --    0.06762   0.08568   0.09115   0.09768   0.10248

 Mulliken charges:
               1
     1  O   -0.501949
     2  C    0.392598
     3  C   -0.353158
     4  C   -0.206319
     5  C    0.173967
     6  C   -0.212127
     7  C   -0.183346
     8  C    0.331985
     9  C    0.326091
    10  C   -0.250052
    11  O   -0.535507
    12  C    0.191614
    13  O   -0.530572
    14  C   -0.357112
    15  C    0.306879
    16  C    0.073376
    17  C   -0.124151
    18  C    0.124373
    19  C   -0.178640
    20  C   -0.131939
    21  C   -0.137095
    22  C   -0.195350
    23  C    0.353376
    24  O   -0.539304
    25  C   -0.112143
    26  C    0.138510
    27  C   -0.157665
    28  C   -0.138452
    29  C   -0.130531
    30  C   -0.134315
    31  C   -0.185413
    32  N   -0.661394
    33  C    0.263352
    34  C   -0.169523
    35  C   -0.139014
    36  C   -0.131693
    37  C   -0.214475
    38  C    0.349314
    39  N   -0.774428
    40  H    0.166363
    41  H    0.162123
    42  H    0.140595
    43  H    0.128898
    44  H    0.145018
    45  H    0.157213
    46  H    0.164292
    47  H    0.153491
    48  H    0.143464
    49  H    0.179237
    50  H    0.173146
    51  H    0.126689
    52  H    0.117906
    53  H    0.120792
    54  H    0.127281
    55  H    0.153837
    56  H    0.149787
    57  H    0.144335
    58  H    0.132323
    59  H    0.136507
    60  H    0.139296
    61  H    0.134940
    62  H    0.322002
    63  H    0.136343
    64  H    0.128266
    65  H    0.128402
    66  H    0.120261
    67  H    0.327424
 Sum of Mulliken charges =  -0.00000

 Dipole moment (field-independent basis, Debye):
    X=              2.0101    Y=              3.2283    Z=             -3.3464  Tot=              5.0657
 Quadrupole moment (field-independent basis, Debye-Ang):
   XX=           -217.9659   YY=           -203.7984   ZZ=           -221.6166
   XY=             -4.3858   XZ=             -4.2261   YZ=              6.5233

 Normal termination of Gaussian 16 at Sat Nov  5 10:05:34 2022.
