 Gaussian 16, Revision B.01,
 Gaussian 16:  ES64L-G16RevB.01 20-Dec-2017

 -------------------------------------------------------------------
 #p b3lyp/6-31g(d) 6D 10F nosymm GFInput td=(50-50,nstate=2) SCF=XQC
 -------------------------------------------------------------------

 ------------------------------
 Gaussian input prepared by ASE
 ------------------------------
 Symbolic Z-matrix:
 Charge =  0 Multiplicity = 1

                          Input orientation:
 ---------------------------------------------------------------------
 Center     Atomic      Atomic             Coordinates (Angstroms)
 Number     Number       Type             X           Y           Z
 ---------------------------------------------------------------------
      1          6           0        2.257241   -0.822696    1.420669
      2          6           0        2.238120    0.441574    0.619286
      3          6           0        1.831689    1.707953    0.991829
      4          6           0        1.285493    2.132440    2.323813
      5          6           0       -0.231308    1.972809    2.546150
      6          8           0       -0.804038    2.542105    3.471403
      7          7           0       -0.863350    1.134881    1.682082
      8          6           0       -2.249269    0.757054    1.836280
      9          6           0       -3.192484    1.635147    0.948816
     10          6           0       -2.971575    1.505548   -0.542787
     11          6           0       -3.782234    0.661756   -1.315178
     12          6           0       -3.573401    0.524893   -2.688258
     13          6           0       -2.544516    1.231890   -3.312929
     14          6           0       -1.733537    2.080368   -2.557178
     15          6           0       -1.950584    2.219765   -1.185695
     16          6           0       -2.350163   -0.738751    1.479039
     17          8           0       -1.496873   -1.245876    0.758703
     18          7           0       -3.439888   -1.446384    1.951947
     19          6           0       -4.311486   -0.925829    3.011651
     20          6           0       -3.588538   -2.830733    1.602300
     21          6           0       -3.860189   -3.778305    2.596044
     22          6           0       -4.055468   -5.118086    2.255747
     23          6           0       -3.971045   -5.525211    0.925348
     24          6           0       -3.693375   -4.579439   -0.064883
     25          6           0       -3.506771   -3.239007    0.264071
     26          6           0        1.969237    2.550788   -0.168808
     27          6           0        1.709919    3.908582   -0.421365
     28          6           0        1.957247    4.419148   -1.690922
     29          6           0        2.464484    3.596963   -2.716842
     30          6           0        2.733916    2.249510   -2.494584
     31          6           0        2.474163    1.738281   -1.218391
     32          7           0        2.624618    0.453480   -0.720884
     33          6           0        3.124306   -0.679246   -1.474243
     34          6           0        4.637007   -0.864918   -1.449464
     35          6           0        5.500713    0.012152   -0.787933
     36          6           0        6.871177   -0.247194   -0.826983
     37          6           0        7.327930   -1.365315   -1.520889
     38          6           0        6.383099   -2.178719   -2.149722
     39          7           0        5.067811   -1.944299   -2.121194
     40          1           0        3.206854   -1.360958    1.317626
     41          1           0        2.117294   -0.596182    2.481009
     42          1           0        1.447212   -1.502838    1.125017
     43          1           0        1.762854    1.576458    3.141900
     44          1           0        1.508608    3.186531    2.519468
     45          1           0       -0.340067    0.651531    0.962720
     46          1           0       -2.507004    0.948476    2.881207
     47          1           0       -3.023523    2.667608    1.274003
     48          1           0       -4.235659    1.393739    1.185142
     49          1           0       -4.589172    0.110125   -0.836824
     50          1           0       -4.217454   -0.130076   -3.269686
     51          1           0       -2.380261    1.126780   -4.382192
     52          1           0       -0.928952    2.637290   -3.029802
     53          1           0       -1.316309    2.887628   -0.610279
     54          1           0       -4.537734    0.127474    2.848638
     55          1           0       -5.253200   -1.476770    2.985312
     56          1           0       -3.869104   -1.035638    4.010230
     57          1           0       -3.910016   -3.476680    3.637819
     58          1           0       -4.266471   -5.841990    3.038258
     59          1           0       -4.119984   -6.568305    0.660753
     60          1           0       -3.628035   -4.884572   -1.105803
     61          1           0       -3.293121   -2.508719   -0.506714
     62          1           0        1.322181    4.552245    0.364459
     63          1           0        1.761235    5.467947   -1.896592
     64          1           0        2.656243    4.022761   -3.697980
     65          1           0        3.135825    1.625386   -3.287510
     66          1           0        2.652248   -1.593754   -1.103302
     67          1           0        2.797343   -0.577048   -2.514653
     68          1           0        5.108694    0.875427   -0.261291
     69          1           0        7.568672    0.416732   -0.323134
     70          1           0        8.385386   -1.605185   -1.577235
     71          1           0        6.697344   -3.062507   -2.703172
 ---------------------------------------------------------------------

 SCF Done:  E(RB3LYP) =  -1646.28368092     A.U. after   15 cycles

 Excitation energies and oscillator strengths:

 Excited state symmetry could not be determined.
 Excited State   1:      Triplet-?Sym    3.1924 eV  388.38 nm  f=0.0000  <S**2>=2.000
     133 ->141         0.12650
     136 ->146         0.13871
     137 ->140         0.13133
     137 ->141         0.64003
 This state for optimization and/or second-order correction.
 Total Energy, E(TD-HF/TD-DFT) =  -1646.16636393
 Copying the excited state density for this state as the 1-particle RhoCI density.

 Excited state symmetry could not be determined.
 Excited State   2:      Triplet-?Sym    3.8812 eV  319.45 nm  f=0.0000  <S**2>=2.000
     129 ->138         0.13496
     137 ->138         0.68211

 Excited state symmetry could not be determined.
 Excited State   3:      Singlet-?Sym    3.9123 eV  316.91 nm  f=0.0005  <S**2>=0.000
     137 ->138         0.70433

 Excited state symmetry could not be determined.
 Excited State   4:      Singlet-?Sym    4.3780 eV  283.20 nm  f=0.0015  <S**2>=0.000
     137 ->140         0.69902

 Alpha  occ. eigenvalues --  -19.12321 -19.09775 -14.38147 -14.37769 -14.34508
 Alpha  occ. eigenvalues --  -14.33269 -10.29469 -10.27490 -10.23556 -10.23471
 Alpha  occ. eigenvalues --  -10.23449 -10.23400 -10.23291 -10.22765 -10.22285
 Alpha  occ. eigenvalues --  -10.21310 -10.21268 -10.20230 -10.20119 -10.19544
 Alpha  occ. eigenvalues --  -10.19505 -10.19399 -10.19165 -10.19146 -10.19127
 Alpha  occ. eigenvalues --  -10.19037 -10.19023 -10.18941 -10.18590 -10.18344
 Alpha  occ. eigenvalues --  -10.18249 -10.18158 -10.18151 -10.18116 -10.18004
 Alpha  occ. eigenvalues --  -10.17962 -10.17816 -10.17804 -10.17727  -1.04502
 Alpha  occ. eigenvalues --   -1.01695  -0.98569  -0.94907  -0.94598  -0.91417
 Alpha  occ. eigenvalues --   -0.85030  -0.84677  -0.84200  -0.81531  -0.80640
 Alpha  occ. eigenvalues --   -0.78807  -0.77586  -0.75514  -0.75359  -0.74933
 Alpha  occ. eigenvalues --   -0.74035  -0.73489  -0.73429  -0.72215  -0.71001
 Alpha  occ. eigenvalues --   -0.69164  -0.66844  -0.65714  -0.63456  -0.62357
 Alpha  occ. eigenvalues --   -0.61588  -0.60764  -0.59660  -0.59484  -0.58641
 Alpha  occ. eigenvalues --   -0.57786  -0.56767  -0.55942  -0.55249  -0.52699
 Alpha  occ. eigenvalues --   -0.51633  -0.51522  -0.50663  -0.50428  -0.49308
 Alpha  occ. eigenvalues --   -0.48453  -0.48188  -0.47636  -0.47135  -0.46746
 Alpha  occ. eigenvalues --   -0.46133  -0.45437  -0.44966  -0.44863  -0.44657
 Alpha  occ. eigenvalues --   -0.44535  -0.44449  -0.43808  -0.43569  -0.43081
 Alpha  occ. eigenvalues --   -0.42256  -0.42055  -0.41784  -0.41480  -0.41242
 Alpha  occ. eigenvalues --   -0.41013  -0.40634  -0.40497  -0.40151  -0.39636
 Alpha  occ. eigenvalues --   -0.38790  -0.38694  -0.37998  -0.37721  -0.37608
 Alpha  occ. eigenvalues --   -0.37420  -0.37074  -0.36810  -0.36255  -0.35989
 Alpha  occ. eigenvalues --   -0.35510  -0.34949  -0.34689  -0.34078  -0.33122
 Alpha  occ. eigenvalues --   -0.33057  -0.32363  -0.31935  -0.28881  -0.28410
 Alpha  occ. eigenvalues --   -0.27406  -0.26394  -0.26094  -0.25913  -0.25064
 Alpha  occ. eigenvalues --   -0.24828  -0.24000  -0.23818  -0.23325  -0.22475
 Alpha  occ. eigenvalues --   -0.21498  -0.19426
 Alpha virt. eigenvalues --   -0.02981  -0.01465  -0.01221  -0.00766  -0.00218
 Alpha virt. eigenvalues --    0.00413   0.00688   0.02389   0.02682   0.04312
 Alpha virt. eigenvalues --    0.06402   0.07556   0.08530   0.09579   0.09611

 Mulliken charges:
               1
     1  C   -0.546696
     2  C    0.283176
     3  C   -0.015763
     4  C   -0.466199
     5  C    0.608763
     6  O   -0.534970
     7  N   -0.606638
     8  C   -0.061168
     9  C   -0.365436
    10  C    0.172892
    11  C   -0.182701
    12  C   -0.128763
    13  C   -0.130146
    14  C   -0.132820
    15  C   -0.184991
    16  C    0.617323
    17  O   -0.520237
    18  N   -0.532527
    19  C   -0.339001
    20  C    0.288193
    21  C   -0.162699
    22  C   -0.141430
    23  C   -0.122642
    24  C   -0.147658
    25  C   -0.128220
    26  C    0.096120
    27  C   -0.219317
    28  C   -0.141328
    29  C   -0.155433
    30  C   -0.170378
    31  C    0.294803
    32  N   -0.561638
    33  C   -0.215483
    34  C    0.275239
    35  C   -0.161987
    36  C   -0.105091
    37  C   -0.139780
    38  C    0.038580
    39  N   -0.465392
    40  H    0.165316
    41  H    0.168295
    42  H    0.199310
    43  H    0.174262
    44  H    0.177012
    45  H    0.366525
    46  H    0.178884
    47  H    0.178177
    48  H    0.145178
    49  H    0.120922
    50  H    0.125418
    51  H    0.125817
    52  H    0.141638
    53  H    0.141365
    54  H    0.182703
    55  H    0.179941
    56  H    0.172065
    57  H    0.132041
    58  H    0.132092
    59  H    0.130341
    60  H    0.134487
    61  H    0.160518
    62  H    0.130298
    63  H    0.122170
    64  H    0.123388
    65  H    0.131563
    66  H    0.191891
    67  H    0.187001
    68  H    0.162355
    69  H    0.147439
    70  H    0.139775
    71  H    0.143261
 Sum of Mulliken charges =  -0.00000

 Dipole moment (field-independent basis, Debye):
    X=              0.5411    Y=             -2.6245    Z=             -0.1908  Tot=              2.6865
 Quadrupole moment (field-independent basis, Debye-Ang):
   XX=           -188.9244   YY=           -226.5878   ZZ=           -222.6043
   XY=              7.5621   XZ=             -7.2216   YZ=            -11.6604

 Normal termination of Gaussian 16 at Sat Nov  5 10:20:02 2022.
