 Gaussian 16, Revision B.01,
 Gaussian 16:  ES64L-G16RevB.01 20-Dec-2017

 -----------------------------
 #p b3lyp/6-31g(d) opt SCF=XQC
 -----------------------------

 ------------------------------
 Gaussian input prepared by ASE
 ------------------------------
 Symbolic Z-matrix:
 Charge =  0 Multiplicity = 1

 SCF Done:  E(RB3LYP) =  -1646.26759711     A.U. after   15 cycles
 SCF Done:  E(RB3LYP) =  -1646.27907885     A.U. after   14 cycles
 SCF Done:  E(RB3LYP) =  -1646.28190456     A.U. after   14 cycles
 SCF Done:  E(RB3LYP) =  -1646.28253233     A.U. after   12 cycles
 SCF Done:  E(RB3LYP) =  -1646.28289779     A.U. after   12 cycles
 SCF Done:  E(RB3LYP) =  -1646.28308616     A.U. after   12 cycles
 SCF Done:  E(RB3LYP) =  -1646.28318826     A.U. after   11 cycles
 SCF Done:  E(RB3LYP) =  -1646.28327732     A.U. after   11 cycles
 SCF Done:  E(RB3LYP) =  -1646.28335754     A.U. after   11 cycles
 SCF Done:  E(RB3LYP) =  -1646.28342421     A.U. after   11 cycles
 SCF Done:  E(RB3LYP) =  -1646.28364477     A.U. after   11 cycles
 SCF Done:  E(RB3LYP) =  -1646.28366784     A.U. after   11 cycles
 SCF Done:  E(RB3LYP) =  -1646.28367440     A.U. after   10 cycles
 SCF Done:  E(RB3LYP) =  -1646.28367715     A.U. after    9 cycles
 SCF Done:  E(RB3LYP) =  -1646.28367777     A.U. after    9 cycles
 SCF Done:  E(RB3LYP) =  -1646.28367861     A.U. after    9 cycles
 SCF Done:  E(RB3LYP) =  -1646.28367880     A.U. after    9 cycles
 SCF Done:  E(RB3LYP) =  -1646.28367888     A.U. after    7 cycles
 SCF Done:  E(RB3LYP) =  -1646.28367895     A.U. after    7 cycles
 SCF Done:  E(RB3LYP) =  -1646.28367896     A.U. after    6 cycles
 Optimization completed.
    -- Stationary point found.

                         Standard orientation:
 ---------------------------------------------------------------------
 Center     Atomic      Atomic             Coordinates (Angstroms)
 Number     Number       Type             X           Y           Z
 ---------------------------------------------------------------------
      1          6           0        1.367444    1.617877   -1.719421
      2          6           0        1.932822    0.351713   -1.155386
      3          6           0        1.813407   -0.943458   -1.620105
      4          6           0        1.057884   -1.409074   -2.830512
      5          6           0       -0.440727   -1.720015   -2.648626
      6          8           0       -1.065225   -2.363989   -3.487383
      7          7           0       -1.014195   -1.198350   -1.531839
      8          6           0       -2.435316   -1.267201   -1.280884
      9          6           0       -2.802329   -2.467758   -0.346938
     10          6           0       -2.216816   -2.396756    1.046838
     11          6           0       -2.981526   -1.918603    2.120303
     12          6           0       -2.442480   -1.834911    3.404873
     13          6           0       -1.123348   -2.228417    3.636614
     14          6           0       -0.352340   -2.712253    2.578215
     15          6           0       -0.897751   -2.801068    1.296753
     16          6           0       -2.850303    0.085539   -0.670053
     17          8           0       -2.008590    0.776196   -0.105539
     18          7           0       -4.182717    0.448048   -0.741806
     19          6           0       -5.132883   -0.233478   -1.628563
     20          6           0       -4.612118    1.680955   -0.144874
     21          6           0       -5.408698    2.571454   -0.874043
     22          6           0       -5.870886    3.748246   -0.282020
     23          6           0       -5.534353    4.051481    1.036173
     24          6           0       -4.733750    3.164874    1.760814
     25          6           0       -4.276142    1.983799    1.181638
     26          6           0        2.504344   -1.790976   -0.681655
     27          6           0        2.721519   -3.176868   -0.599359
     28          6           0        3.449812   -3.684478    0.470942
     29          6           0        3.971062   -2.830405    1.463235
     30          6           0        3.774607   -1.453552    1.405762
     31          6           0        3.032866   -0.948705    0.332242
     32          7           0        2.667597    0.353689    0.030227
     33          6           0        3.017444    1.521056    0.814553
     34          6           0        4.345146    2.177164    0.453879
     35          6           0        5.199094    1.675321   -0.531914
     36          6           0        6.393483    2.350863   -0.784960
     37          6           0        6.691364    3.495682   -0.049445
     38          6           0        5.771827    3.914346    0.914368
     39          7           0        4.623947    3.278962    1.168153
     40          1           0        2.115041    2.418671   -1.763437
     41          1           0        1.004891    1.445800   -2.736357
     42          1           0        0.515482    1.980355   -1.128725
     43          1           0        1.108298   -0.665993   -3.637694
     44          1           0        1.505503   -2.318816   -3.244247
     45          1           0       -0.468656   -0.634496   -0.892003
     46          1           0       -2.911469   -1.444633   -2.248737
     47          1           0       -2.446923   -3.363649   -0.867836
     48          1           0       -3.893676   -2.550418   -0.280068
     49          1           0       -4.012040   -1.613622    1.949144
     50          1           0       -3.054735   -1.466967    4.224390
     51          1           0       -0.701666   -2.164118    4.636315
     52          1           0        0.675901   -3.022513    2.743601
     53          1           0       -0.289127   -3.184782    0.483248
     54          1           0       -4.996668   -1.313837   -1.590095
     55          1           0       -6.144826   -0.012862   -1.284535
     56          1           0       -5.039157    0.091532   -2.672835
     57          1           0       -5.662149    2.355388   -1.907403
     58          1           0       -6.489189    4.429348   -0.860540
     59          1           0       -5.891450    4.968687    1.496013
     60          1           0       -4.467306    3.389233    2.790165
     61          1           0       -3.656906    1.298455    1.747259
     62          1           0        2.326911   -3.843945   -1.361892
     63          1           0        3.624480   -4.754485    0.543591
     64          1           0        4.543296   -3.252010    2.285126
     65          1           0        4.189733   -0.801036    2.168447
     66          1           0        2.221628    2.266216    0.724146
     67          1           0        3.039174    1.236352    1.872037
     68          1           0        4.935565    0.778237   -1.081520
     69          1           0        7.079099    1.985050   -1.544744
     70          1           0        7.609093    4.052376   -0.213125
     71          1           0        5.965777    4.804029    1.511850
 ---------------------------------------------------------------------

 The electronic state is 1-A.
 Alpha  occ. eigenvalues --  -19.12321 -19.09775 -14.38147 -14.37769 -14.34508
 Alpha  occ. eigenvalues --  -14.33269 -10.29469 -10.27490 -10.23555 -10.23471
 Alpha  occ. eigenvalues --  -10.23449 -10.23400 -10.23291 -10.22765 -10.22285
 Alpha  occ. eigenvalues --  -10.21310 -10.21268 -10.20230 -10.20119 -10.19544
 Alpha  occ. eigenvalues --  -10.19505 -10.19399 -10.19165 -10.19146 -10.19127
 Alpha  occ. eigenvalues --  -10.19037 -10.19023 -10.18941 -10.18590 -10.18344
 Alpha  occ. eigenvalues --  -10.18249 -10.18158 -10.18151 -10.18116 -10.18004
 Alpha  occ. eigenvalues --  -10.17962 -10.17816 -10.17804 -10.17727  -1.04502
 Alpha  occ. eigenvalues --   -1.01695  -0.98569  -0.94907  -0.94598  -0.91417
 Alpha  occ. eigenvalues --   -0.85030  -0.84677  -0.84200  -0.81531  -0.80640
 Alpha  occ. eigenvalues --   -0.78807  -0.77586  -0.75514  -0.75359  -0.74933
 Alpha  occ. eigenvalues --   -0.74035  -0.73489  -0.73429  -0.72215  -0.71001
 Alpha  occ. eigenvalues --   -0.69164  -0.66844  -0.65714  -0.63456  -0.62357
 Alpha  occ. eigenvalues --   -0.61587  -0.60764  -0.59660  -0.59484  -0.58641
 Alpha  occ. eigenvalues --   -0.57786  -0.56767  -0.55942  -0.55249  -0.52699
 Alpha  occ. eigenvalues --   -0.51633  -0.51522  -0.50663  -0.50428  -0.49308
 Alpha  occ. eigenvalues --   -0.48453  -0.48188  -0.47636  -0.47135  -0.46746
 Alpha  occ. eigenvalues --   -0.46133  -0.45437  -0.44966  -0.44863  -0.44657
 Alpha  occ. eigenvalues --   -0.44535  -0.44449  -0.43808  -0.43569  -0.43081
 Alpha  occ. eigenvalues --   -0.42256  -0.42055  -0.41784  -0.41480  -0.41242
 Alpha  occ. eigenvalues --   -0.41013  -0.40634  -0.40497  -0.40151  -0.39636
 Alpha  occ. eigenvalues --   -0.38790  -0.38694  -0.37998  -0.37721  -0.37608
 Alpha  occ. eigenvalues --   -0.37420  -0.37074  -0.36810  -0.36255  -0.35989
 Alpha  occ. eigenvalues --   -0.35510  -0.34949  -0.34689  -0.34078  -0.33122
 Alpha  occ. eigenvalues --   -0.33057  -0.32363  -0.31935  -0.28881  -0.28410
 Alpha  occ. eigenvalues --   -0.27406  -0.26394  -0.26094  -0.25913  -0.25064
 Alpha  occ. eigenvalues --   -0.24828  -0.24000  -0.23818  -0.23325  -0.22475
 Alpha  occ. eigenvalues --   -0.21498  -0.19426
 Alpha virt. eigenvalues --   -0.02981  -0.01465  -0.01221  -0.00766  -0.00218
 Alpha virt. eigenvalues --    0.00413   0.00688   0.02389   0.02682   0.04312
 Alpha virt. eigenvalues --    0.06402   0.07556   0.08530   0.09579   0.09611

 Mulliken charges:
               1
     1  C   -0.546695
     2  C    0.283200
     3  C   -0.015768
     4  C   -0.466211
     5  C    0.608762
     6  O   -0.534969
     7  N   -0.606633
     8  C   -0.061164
     9  C   -0.365441
    10  C    0.172893
    11  C   -0.182690
    12  C   -0.128779
    13  C   -0.130138
    14  C   -0.132821
    15  C   -0.184998
    16  C    0.617326
    17  O   -0.520239
    18  N   -0.532513
    19  C   -0.339011
    20  C    0.288172
    21  C   -0.162700
    22  C   -0.141423
    23  C   -0.122643
    24  C   -0.147660
    25  C   -0.128211
    26  C    0.096122
    27  C   -0.219330
    28  C   -0.141318
    29  C   -0.155433
    30  C   -0.170385
    31  C    0.294798
    32  N   -0.561635
    33  C   -0.215493
    34  C    0.275230
    35  C   -0.161978
    36  C   -0.105090
    37  C   -0.139776
    38  C    0.038566
    39  N   -0.465376
    40  H    0.165315
    41  H    0.168296
    42  H    0.199306
    43  H    0.174262
    44  H    0.177012
    45  H    0.366527
    46  H    0.178884
    47  H    0.178177
    48  H    0.145180
    49  H    0.120923
    50  H    0.125420
    51  H    0.125817
    52  H    0.141640
    53  H    0.141363
    54  H    0.182704
    55  H    0.179940
    56  H    0.172066
    57  H    0.132041
    58  H    0.132091
    59  H    0.130342
    60  H    0.134486
    61  H    0.160519
    62  H    0.130300
    63  H    0.122169
    64  H    0.123389
    65  H    0.131560
    66  H    0.191892
    67  H    0.187002
    68  H    0.162354
    69  H    0.147438
    70  H    0.139775
    71  H    0.143262
 Sum of Mulliken charges =  -0.00000

 Dipole moment (field-independent basis, Debye):
    X=             -0.1923    Y=              2.6362    Z=              0.4804  Tot=              2.6865
 Quadrupole moment (field-independent basis, Debye-Ang):
   XX=           -185.0715   YY=           -225.8364   ZZ=           -227.0756
   XY=              1.5072   XZ=             -0.5594   YZ=             -9.7709

 Normal termination of Gaussian 16 at Sat Nov  5 00:20:16 2022.
