 Gaussian 16, Revision B.01,
 Gaussian 16:  ES64L-G16RevB.01 20-Dec-2017

 -----------------------------
 #p b3lyp/6-31g(d) opt SCF=XQC
 -----------------------------

 ------------------------------
 Gaussian input prepared by ASE
 ------------------------------
 Symbolic Z-matrix:
 Charge =  0 Multiplicity = 1

 SCF Done:  E(RB3LYP) =  -904.507182000     A.U. after   14 cycles
 SCF Done:  E(RB3LYP) =  -904.513391361     A.U. after   12 cycles
 SCF Done:  E(RB3LYP) =  -904.513691416     A.U. after   11 cycles
 SCF Done:  E(RB3LYP) =  -904.513756149     A.U. after   11 cycles
 SCF Done:  E(RB3LYP) =  -904.513786072     A.U. after   10 cycles
 SCF Done:  E(RB3LYP) =  -904.513806576     A.U. after   11 cycles
 SCF Done:  E(RB3LYP) =  -904.513815872     A.U. after   10 cycles
 SCF Done:  E(RB3LYP) =  -904.513818167     A.U. after    9 cycles
 SCF Done:  E(RB3LYP) =  -904.513818307     A.U. after    7 cycles
 Optimization completed.
    -- Stationary point found.

                         Standard orientation:
 ---------------------------------------------------------------------
 Center     Atomic      Atomic             Coordinates (Angstroms)
 Number     Number       Type             X           Y           Z
 ---------------------------------------------------------------------
      1          6           0       -3.046583    3.093369    1.512059
      2          6           0       -2.165432    2.095169    1.572007
      3          6           0       -1.231320    1.707684    0.456987
      4          6           0       -1.328589    0.219249    0.011711
      5          6           0       -0.342117   -0.077764   -1.172155
      6          6           0        1.131011    0.138353   -0.888572
      7          6           0        1.744792    1.393043   -1.162833
      8          6           0        3.080841    1.605646   -0.912527
      9          6           0        3.896403    0.575566   -0.374051
     10          6           0        5.279123    0.757112   -0.103228
     11          6           0        6.036541   -0.270360    0.412240
     12          6           0        5.444405   -1.529881    0.679356
     13          6           0        4.107349   -1.737632    0.426568
     14          6           0        3.296646   -0.697030   -0.103190
     15          6           0        1.915080   -0.878104   -0.376012
     16          6           0       -1.090120   -0.738515    1.175720
     17          7           0       -2.053179   -1.548876    1.446757
     18          6           0       -3.090542   -1.258922    0.515723
     19          6           0       -4.324844   -1.894036    0.429980
     20          6           0       -5.214001   -1.462940   -0.560774
     21          6           0       -4.866890   -0.427306   -1.434534
     22          6           0       -3.618913    0.205793   -1.339885
     23          6           0       -2.734402   -0.216340   -0.357505
     24          1           0       -3.163520    3.702056    0.617329
     25          1           0       -3.686530    3.341995    2.354238
     26          1           0       -2.087970    1.509967    2.488851
     27          1           0       -1.417125    2.346444   -0.416499
     28          1           0       -0.194048    1.895673    0.767825
     29          1           0       -0.649307    0.552793   -2.016155
     30          1           0       -0.505617   -1.115527   -1.483132
     31          1           0        1.143092    2.192762   -1.587922
     32          1           0        3.531616    2.570618   -1.132819
     33          1           0        5.730408    1.724669   -0.310728
     34          1           0        7.093172   -0.119699    0.616122
     35          1           0        6.052701   -2.333395    1.085731
     36          1           0        3.651358   -2.703597    0.630849
     37          1           0        1.472700   -1.852527   -0.176448
     38          1           0       -0.166565   -0.751364    1.751381
     39          1           0       -4.579143   -2.696985    1.115112
     40          1           0       -6.186915   -1.938198   -0.653104
     41          1           0       -5.573532   -0.107811   -2.195791
     42          1           0       -3.363152    1.011346   -2.024645
 ---------------------------------------------------------------------

 The electronic state is 1-A.
 Alpha  occ. eigenvalues --  -14.32950 -10.22423 -10.21539 -10.20746 -10.20276
 Alpha  occ. eigenvalues --  -10.20241 -10.20066 -10.19995 -10.19801 -10.19518
 Alpha  occ. eigenvalues --  -10.19437 -10.19377 -10.19344 -10.19296 -10.19261
 Alpha  occ. eigenvalues --  -10.19246 -10.19218 -10.18924 -10.18874 -10.18866
 Alpha  occ. eigenvalues --  -10.18823 -10.18663 -10.17766  -0.95128  -0.87599
 Alpha  occ. eigenvalues --   -0.84050  -0.83485  -0.81354  -0.77918  -0.76933
 Alpha  occ. eigenvalues --   -0.75169  -0.73333  -0.72776  -0.71880  -0.68325
 Alpha  occ. eigenvalues --   -0.65450  -0.62297  -0.61412  -0.60140  -0.59782
 Alpha  occ. eigenvalues --   -0.57764  -0.56535  -0.54839  -0.51588  -0.50970
 Alpha  occ. eigenvalues --   -0.49097  -0.48379  -0.47388  -0.47310  -0.45528
 Alpha  occ. eigenvalues --   -0.45106  -0.44398  -0.44309  -0.43380  -0.42703
 Alpha  occ. eigenvalues --   -0.41918  -0.41280  -0.40635  -0.39770  -0.38873
 Alpha  occ. eigenvalues --   -0.38619  -0.38521  -0.37430  -0.36581  -0.36348
 Alpha  occ. eigenvalues --   -0.34958  -0.34332  -0.34075  -0.33273  -0.32622
 Alpha  occ. eigenvalues --   -0.32523  -0.31691  -0.28552  -0.26115  -0.25508
 Alpha  occ. eigenvalues --   -0.24742  -0.23990  -0.22760  -0.21640
 Alpha virt. eigenvalues --   -0.04534  -0.03147  -0.01319   0.00032   0.02224
 Alpha virt. eigenvalues --    0.03020   0.04125   0.07941   0.09209   0.09545
 Alpha virt. eigenvalues --    0.10641   0.11480   0.12003   0.12613   0.13680

 Mulliken charges:
               1
     1  C   -0.340148
     2  C   -0.036515
     3  C   -0.320597
     4  C   -0.065388
     5  C   -0.365860
     6  C    0.174247
     7  C   -0.186242
     8  C   -0.192673
     9  C    0.135871
    10  C   -0.191389
    11  C   -0.134463
    12  C   -0.136548
    13  C   -0.189348
    14  C    0.141470
    15  C   -0.270303
    16  C    0.062315
    17  N   -0.434652
    18  C    0.220177
    19  C   -0.174773
    20  C   -0.139299
    21  C   -0.132877
    22  C   -0.204337
    23  C    0.154806
    24  H    0.132920
    25  H    0.142329
    26  H    0.138685
    27  H    0.138126
    28  H    0.164161
    29  H    0.149621
    30  H    0.164411
    31  H    0.126501
    32  H    0.132113
    33  H    0.130738
    34  H    0.131626
    35  H    0.132333
    36  H    0.133206
    37  H    0.134308
    38  H    0.152161
    39  H    0.140890
    40  H    0.129957
    41  H    0.127827
    42  H    0.124615
 Sum of Mulliken charges =  -0.00000

 Dipole moment (field-independent basis, Debye):
    X=              1.0288    Y=              1.4367    Z=             -1.3745  Tot=              2.2387
 Quadrupole moment (field-independent basis, Debye-Ang):
   XX=           -121.9318   YY=           -129.2482   ZZ=           -135.6285
   XY=             -1.4006   XZ=              6.9628   YZ=             -2.5445

 1\1\GINC-NODE72\FOpt\RB3LYP\6-31G(d)\C22H19N1\WYKGROUP\04-Nov-2022\0\\
 #p b3lyp/6-31g(d) opt SCF=XQC\\Gaussian input prepared by ASE\\0,1\C,-
 3.6514770147,-2.4696652164,-0.7360728591\C,-2.5627187594,-1.7647795445
 ,-1.0429389957\C,-1.529289358,-1.3066596836,-0.0488923403\C,-1.2600234
 982,0.2265278603,-0.0471543172\C,-0.1948370446,0.6078056698,1.04045157
 86\C,1.1766164931,-0.0185067878,0.885276363\C,1.4865827797,-1.25102485
 46,1.5263800947\C,2.7267333519,-1.832533446,1.396943779\C,3.7442942107
 ,-1.2184769494,0.6199838184\C,5.0364427246,-1.7878570351,0.4638498819\

 Normal termination of Gaussian 16 at Fri Nov  4 23:12:50 2022.
