 Gaussian 16, Revision B.01,
 Gaussian 16:  ES64L-G16RevB.01 20-Dec-2017

 -------------------------------------------------------------------
 #p b3lyp/6-31g(d) 6D 10F nosymm GFInput td=(50-50,nstate=2) SCF=XQC
 -------------------------------------------------------------------

 ------------------------------
 Gaussian input prepared by ASE
 ------------------------------
 Symbolic Z-matrix:
 Charge =  0 Multiplicity = 1

                          Input orientation:
 ---------------------------------------------------------------------
 Center     Atomic      Atomic             Coordinates (Angstroms)
 Number     Number       Type             X           Y           Z
 ---------------------------------------------------------------------
      1          6           0       -3.651477   -2.469665   -0.736073
      2          6           0       -2.562719   -1.764780   -1.042939
      3          6           0       -1.529289   -1.306660   -0.048892
      4          6           0       -1.260023    0.226528   -0.047154
      5          6           0       -0.194837    0.607806    1.040452
      6          6           0        1.176616   -0.018507    0.885276
      7          6           0        1.486583   -1.251025    1.526380
      8          6           0        2.726733   -1.832533    1.396944
      9          6           0        3.744294   -1.218477    0.619984
     10          6           0        5.036443   -1.787857    0.463850
     11          6           0        5.997625   -1.156084   -0.292509
     12          6           0        5.710046    0.077888   -0.927317
     13          6           0        4.467855    0.655825   -0.794167
     14          6           0        3.452268    0.028373   -0.022402
     15          6           0        2.161192    0.597611    0.135825
     16          6           0       -0.839665    0.730885   -1.424841
     17          7           0       -1.593281    1.632924   -1.950216
     18          6           0       -2.640083    1.870426   -1.014900
     19          6           0       -3.687233    2.774279   -1.158949
     20          6           0       -4.621360    2.862796   -0.120870
     21          6           0       -4.500219    2.066560    1.022727
     22          6           0       -3.439590    1.158852    1.158185
     23          6           0       -2.511820    1.065465    0.130494
     24          1           0       -3.880149   -2.754316    0.289305
     25          1           0       -4.357958   -2.790087   -1.496880
     26          1           0       -2.378608   -1.499002   -2.084346
     27          1           0       -1.832598   -1.609182    0.962048
     28          1           0       -0.575504   -1.812518   -0.254548
     29          1           0       -0.615064    0.332958    2.016244
     30          1           0       -0.100038    1.699319    1.038564
     31          1           0        0.727380   -1.733129    2.137510
     32          1           0        2.944746   -2.772815    1.898180
     33          1           0        5.253943   -2.734293    0.953579
     34          1           0        6.982336   -1.601406   -0.405500
     35          1           0        6.477134    0.567289   -1.521340
     36          1           0        4.245508    1.602796   -1.280537
     37          1           0        1.954204    1.550599   -0.347906
     38          1           0        0.042564    0.363229   -1.945422
     39          1           0       -3.766996    3.385965   -2.052414
     40          1           0       -5.451941    3.558685   -0.203521
     41          1           0       -5.237986    2.150981    1.816140
     42          1           0       -3.359030    0.544296    2.052085
 ---------------------------------------------------------------------

 SCF Done:  E(RB3LYP) =  -904.513823847     A.U. after   14 cycles

 Excitation energies and oscillator strengths:

 Excited state symmetry could not be determined.
 Excited State   1:      Triplet-?Sym    2.6897 eV  460.96 nm  f=0.0000  <S**2>=2.000
      73 -> 85         0.13019
      77 -> 82         0.14746
      79 -> 80         0.61326
      79 -> 81         0.27026
 This state for optimization and/or second-order correction.
 Total Energy, E(TD-HF/TD-DFT) =  -904.414980006
 Copying the excited state density for this state as the 1-particle RhoCI density.

 Excited state symmetry could not be determined.
 Excited State   2:      Triplet-?Sym    3.0394 eV  407.92 nm  f=0.0000  <S**2>=2.000
      76 -> 83         0.16286
      78 -> 80        -0.37836
      78 -> 81         0.53282

 Excited state symmetry could not be determined.
 Excited State   3:      Singlet-?Sym    4.2249 eV  293.46 nm  f=0.0216  <S**2>=0.000
      79 -> 80         0.67289
      79 -> 81        -0.16215

 Excited state symmetry could not be determined.
 Excited State   4:      Singlet-?Sym    4.4020 eV  281.65 nm  f=0.0044  <S**2>=0.000
      76 -> 80        -0.13237
      77 -> 80         0.46401
      77 -> 81         0.11515
      79 -> 81        -0.21317
      79 -> 82        -0.42455

 Alpha  occ. eigenvalues --  -14.32950 -10.22423 -10.21539 -10.20746 -10.20276
 Alpha  occ. eigenvalues --  -10.20241 -10.20066 -10.19995 -10.19801 -10.19518
 Alpha  occ. eigenvalues --  -10.19437 -10.19377 -10.19344 -10.19296 -10.19261
 Alpha  occ. eigenvalues --  -10.19246 -10.19218 -10.18924 -10.18874 -10.18866
 Alpha  occ. eigenvalues --  -10.18823 -10.18663 -10.17766  -0.95128  -0.87599
 Alpha  occ. eigenvalues --   -0.84050  -0.83485  -0.81354  -0.77918  -0.76933
 Alpha  occ. eigenvalues --   -0.75169  -0.73333  -0.72776  -0.71880  -0.68325
 Alpha  occ. eigenvalues --   -0.65450  -0.62297  -0.61412  -0.60140  -0.59782
 Alpha  occ. eigenvalues --   -0.57764  -0.56535  -0.54839  -0.51588  -0.50970
 Alpha  occ. eigenvalues --   -0.49097  -0.48379  -0.47387  -0.47310  -0.45528
 Alpha  occ. eigenvalues --   -0.45106  -0.44398  -0.44309  -0.43380  -0.42703
 Alpha  occ. eigenvalues --   -0.41918  -0.41280  -0.40635  -0.39770  -0.38873
 Alpha  occ. eigenvalues --   -0.38619  -0.38521  -0.37430  -0.36581  -0.36349
 Alpha  occ. eigenvalues --   -0.34958  -0.34332  -0.34075  -0.33273  -0.32622
 Alpha  occ. eigenvalues --   -0.32523  -0.31691  -0.28552  -0.26115  -0.25508
 Alpha  occ. eigenvalues --   -0.24742  -0.23990  -0.22760  -0.21640
 Alpha virt. eigenvalues --   -0.04534  -0.03147  -0.01319   0.00032   0.02224
 Alpha virt. eigenvalues --    0.03020   0.04125   0.07941   0.09209   0.09545
 Alpha virt. eigenvalues --    0.10641   0.11480   0.12003   0.12613   0.13680

 Mulliken charges:
               1
     1  C   -0.340146
     2  C   -0.036522
     3  C   -0.320592
     4  C   -0.065407
     5  C   -0.365856
     6  C    0.174247
     7  C   -0.186240
     8  C   -0.192677
     9  C    0.135876
    10  C   -0.191397
    11  C   -0.134463
    12  C   -0.136543
    13  C   -0.189350
    14  C    0.141477
    15  C   -0.270307
    16  C    0.062320
    17  N   -0.434653
    18  C    0.220187
    19  C   -0.174787
    20  C   -0.139301
    21  C   -0.132873
    22  C   -0.204327
    23  C    0.154801
    24  H    0.132922
    25  H    0.142329
    26  H    0.138686
    27  H    0.138127
    28  H    0.164163
    29  H    0.149620
    30  H    0.164412
    31  H    0.126503
    32  H    0.132113
    33  H    0.130738
    34  H    0.131626
    35  H    0.132333
    36  H    0.133206
    37  H    0.134306
    38  H    0.152164
    39  H    0.140890
    40  H    0.129957
    41  H    0.127826
    42  H    0.124613
 Sum of Mulliken charges =  -0.00000

 Dipole moment (field-independent basis, Debye):
    X=              0.7048    Y=             -1.1867    Z=              1.7626  Tot=              2.2387
 Quadrupole moment (field-independent basis, Debye-Ang):
   XX=           -122.0538   YY=           -130.6800   ZZ=           -134.4185
   XY=             -2.6568   XZ=             -7.2263   YZ=             -1.9603

 Normal termination of Gaussian 16 at Sat Nov  5 10:11:41 2022.
