 Gaussian 16, Revision B.01,
 Gaussian 16:  ES64L-G16RevB.01 20-Dec-2017

 -------------------------------------------------------------------
 #p b3lyp/6-31g(d) 6D 10F nosymm GFInput td=(50-50,nstate=2) SCF=XQC
 -------------------------------------------------------------------

 ------------------------------
 Gaussian input prepared by ASE
 ------------------------------
 Symbolic Z-matrix:
 Charge =  0 Multiplicity = 1

                          Input orientation:
 ---------------------------------------------------------------------
 Center     Atomic      Atomic             Coordinates (Angstroms)
 Number     Number       Type             X           Y           Z
 ---------------------------------------------------------------------
      1          6           0      -10.850568   -1.152410    1.473130
      2         14           0       -9.429113   -0.443529    0.442648
      3          6           0       -8.682863    1.050681    1.338251
      4          6           0      -10.087976    0.105389   -1.247761
      5          6           0       -8.091400   -1.761131    0.196435
      6          6           0       -8.192795   -3.052259    0.742694
      7          6           0       -7.199093   -4.009635    0.544997
      8          6           0       -6.039275   -3.715903   -0.192601
      9          6           0       -5.042741   -4.779533   -0.408471
     10          6           0       -3.702370   -4.728743   -0.574104
     11          6           0       -2.744369   -3.619536   -0.452255
     12          6           0       -1.537431   -3.680661   -1.173005
     13          6           0       -0.573852   -2.682427   -1.077706
     14          6           0       -0.768522   -1.590625   -0.218190
     15          7           0        0.215845   -0.573548   -0.093483
     16          6           0        1.591680   -0.914889   -0.070835
     17          6           0        2.539855   -0.142514   -0.759818
     18          6           0        3.887716   -0.479217   -0.713435
     19          6           0        4.352322   -1.601352   -0.001897
     20          6           0        5.782043   -1.905582   -0.006825
     21          6           0        6.392985   -2.967179    0.561854
     22          6           0        7.825603   -3.267885    0.558040
     23          6           0        8.273248   -4.453197    1.168754
     24          6           0        9.624277   -4.793169    1.193149
     25          6           0       10.602505   -3.969215    0.611041
     26         14           0       12.444399   -4.405144    0.630634
     27          6           0       13.402356   -3.053800    1.552289
     28          6           0       12.704309   -6.066877    1.500125
     29          6           0       13.082946   -4.517858   -1.150506
     30          6           0       10.146286   -2.781051    0.002398
     31          6           0        8.801341   -2.434601   -0.026001
     32          6           0        3.386323   -2.368689    0.682321
     33          6           0        2.041251   -2.033812    0.656009
     34          6           0       -0.174445    0.791853   -0.066369
     35          6           0        0.470757    1.689122    0.833330
     36          6           0        0.102740    3.011072    0.886699
     37          6           0       -0.936334    3.522716    0.061363
     38          6           0       -1.341274    4.877514    0.097045
     39          6           0       -2.355678    5.370672   -0.715052
     40          6           0       -2.718280    6.783880   -0.621971
     41          6           0       -3.665598    7.431414   -1.333068
     42          6           0       -4.028653    8.847942   -1.239043
     43          6           0       -3.418420    9.753684   -0.348049
     44          6           0       -3.807146   11.088603   -0.306491
     45          6           0       -4.816313   11.561070   -1.151633
     46          6           0       -5.432853   10.679501   -2.040168
     47          6           0       -5.042835    9.342518   -2.081134
     48          6           0       -2.996652    4.456789   -1.608422
     49          6           0       -2.629591    3.136519   -1.664672
     50          6           0       -1.592691    2.620451   -0.835927
     51          6           0       -1.185610    1.266708   -0.886795
     52          6           0       -1.954787   -1.532793    0.534587
     53          6           0       -2.920432   -2.522977    0.414743
     54          6           0       -5.936959   -2.431424   -0.759256
     55          6           0       -6.937691   -1.484986   -0.565001
     56          1           0      -10.516527   -1.471741    2.467448
     57          1           0      -11.319986   -2.014604    0.984784
     58          1           0      -11.629793   -0.394186    1.618128
     59          1           0       -7.837852    1.474320    0.782461
     60          1           0       -8.316131    0.774617    2.333875
     61          1           0       -9.426917    1.846880    1.465336
     62          1           0       -9.287997    0.502417   -1.884063
     63          1           0      -10.550596   -0.731270   -1.784343
     64          1           0      -10.844577    0.892501   -1.139639
     65          1           0       -9.066107   -3.325362    1.330461
     66          1           0       -7.315950   -5.002671    0.974155
     67          1           0       -5.479533   -5.777319   -0.457251
     68          1           0       -3.230100   -5.679754   -0.822010
     69          1           0       -1.361289   -4.521293   -1.840235
     70          1           0        0.336573   -2.747404   -1.664827
     71          1           0        2.214702    0.719220   -1.333737
     72          1           0        4.602559    0.133259   -1.258357
     73          1           0        6.390558   -1.178072   -0.542392
     74          1           0        5.783913   -3.704303    1.083530
     75          1           0        7.544277   -5.116777    1.629655
     76          1           0        9.916027   -5.722004    1.677730
     77          1           0       13.258252   -2.069876    1.090091
     78          1           0       14.479232   -3.263750    1.552774
     79          1           0       13.076280   -2.977732    2.596229
     80          1           0       12.175308   -6.881812    0.991948
     81          1           0       13.769897   -6.326606    1.513452
     82          1           0       12.360821   -6.042710    2.541113
     83          1           0       12.567991   -5.309376   -1.707493
     84          1           0       12.929093   -3.578679   -1.695269
     85          1           0       14.157353   -4.739049   -1.171340
     86          1           0       10.860733   -2.103607   -0.462883
     87          1           0        8.505585   -1.505190   -0.504508
     88          1           0        3.693504   -3.232938    1.263756
     89          1           0        1.323417   -2.634156    1.205732
     90          1           0        1.253313    1.310277    1.482520
     91          1           0        0.599646    3.683195    1.582332
     92          1           0       -0.835173    5.551102    0.786194
     93          1           0       -2.139081    7.344081    0.110726
     94          1           0       -4.243040    6.872500   -2.067827
     95          1           0       -2.633104    9.411439    0.319452
     96          1           0       -3.320709   11.766762    0.389961
     97          1           0       -5.116874   12.604587   -1.115672
     98          1           0       -6.218804   11.032225   -2.702881
     99          1           0       -5.528313    8.661611   -2.776828
    100          1           0       -3.792415    4.811173   -2.256222
    101          1           0       -3.132877    2.460762   -2.352298
    102          1           0       -1.679326    0.591868   -1.579756
    103          1           0       -2.107800   -0.708805    1.224328
    104          1           0       -3.815000   -2.462359    1.024979
    105          1           0       -5.072645   -2.184217   -1.367407
    106          1           0       -6.816698   -0.507113   -1.028621
 ---------------------------------------------------------------------

 SCF Done:  E(RB3LYP) =  -2646.07297784     A.U. after   15 cycles

 Excitation energies and oscillator strengths:

 Excited state symmetry could not be determined.
 Excited State   1:      Triplet-?Sym    2.0172 eV  614.65 nm  f=0.0000  <S**2>=2.000
     196 ->203        -0.11968
     197 ->200         0.15000
     198 ->200        -0.19905
     198 ->201        -0.22214
     198 ->202        -0.17662
     199 ->200         0.55030
 This state for optimization and/or second-order correction.
 Total Energy, E(TD-HF/TD-DFT) =  -2645.99884854
 Copying the excited state density for this state as the 1-particle RhoCI density.

 Excited state symmetry could not be determined.
 Excited State   2:      Triplet-?Sym    2.1013 eV  590.03 nm  f=0.0000  <S**2>=2.000
     197 ->202         0.18695
     198 ->200        -0.34450
     198 ->201         0.10364
     199 ->201         0.51486
     199 ->202         0.12180

 Excited state symmetry could not be determined.
 Excited State   3:      Singlet-?Sym    2.7922 eV  444.04 nm  f=1.0870  <S**2>=0.000
     199 ->200         0.69709

 Excited state symmetry could not be determined.
 Excited State   4:      Singlet-?Sym    2.8807 eV  430.39 nm  f=0.9135  <S**2>=0.000
     199 ->201         0.69153

 Alpha  occ. eigenvalues --  -66.11608 -66.11604 -14.37166 -10.23393 -10.23291
 Alpha  occ. eigenvalues --  -10.23238 -10.20010 -10.19989 -10.19887 -10.19764
 Alpha  occ. eigenvalues --  -10.19744 -10.19715 -10.19699 -10.19687 -10.19497
 Alpha  occ. eigenvalues --  -10.19354 -10.19272 -10.19254 -10.19251 -10.19250
 Alpha  occ. eigenvalues --  -10.19215 -10.19201 -10.19164 -10.19155 -10.19135
 Alpha  occ. eigenvalues --  -10.19129 -10.19112 -10.19092 -10.19032 -10.19021
 Alpha  occ. eigenvalues --  -10.19019 -10.18997 -10.18991 -10.18963 -10.18963
 Alpha  occ. eigenvalues --  -10.18953 -10.18894 -10.18874 -10.18859 -10.18747
 Alpha  occ. eigenvalues --  -10.18692 -10.18651 -10.18614 -10.18532 -10.18513
 Alpha  occ. eigenvalues --  -10.18472 -10.18404 -10.17151 -10.17101 -10.15967
 Alpha  occ. eigenvalues --  -10.15962 -10.15780 -10.15766 -10.15762 -10.15720
 Alpha  occ. eigenvalues --   -5.26059  -5.26053  -3.61955  -3.61948  -3.61929
 Alpha  occ. eigenvalues --   -3.61923  -3.61912  -3.61907  -0.96953  -0.87478
 Alpha  occ. eigenvalues --   -0.86177  -0.85602  -0.85413  -0.84957  -0.84693
 Alpha  occ. eigenvalues --   -0.82722  -0.79747  -0.79412  -0.78707  -0.77395
 Alpha  occ. eigenvalues --   -0.76002  -0.75874  -0.74782  -0.74693  -0.74362
 Alpha  occ. eigenvalues --   -0.74050  -0.73905  -0.73748  -0.72819  -0.71681
 Alpha  occ. eigenvalues --   -0.71292  -0.70428  -0.70073  -0.68887  -0.67389
 Alpha  occ. eigenvalues --   -0.67388  -0.67182  -0.67168  -0.64578  -0.64153
 Alpha  occ. eigenvalues --   -0.62647  -0.62055  -0.61366  -0.61020  -0.60581
 Alpha  occ. eigenvalues --   -0.60146  -0.60043  -0.59712  -0.59250  -0.58940
 Alpha  occ. eigenvalues --   -0.57644  -0.55761  -0.55148  -0.55045  -0.53691
 Alpha  occ. eigenvalues --   -0.53093  -0.51717  -0.50870  -0.50568  -0.50314
 Alpha  occ. eigenvalues --   -0.49934  -0.48682  -0.47742  -0.47344  -0.47041
 Alpha  occ. eigenvalues --   -0.46415  -0.46006  -0.45491  -0.45349  -0.45194
 Alpha  occ. eigenvalues --   -0.44454  -0.44254  -0.44013  -0.43965  -0.43600
 Alpha  occ. eigenvalues --   -0.43506  -0.43015  -0.42490  -0.42283  -0.42077
 Alpha  occ. eigenvalues --   -0.42043  -0.41904  -0.41597  -0.41496  -0.41323
 Alpha  occ. eigenvalues --   -0.41150  -0.40969  -0.40898  -0.40445  -0.40359
 Alpha  occ. eigenvalues --   -0.40359  -0.39972  -0.39922  -0.39369  -0.38929
 Alpha  occ. eigenvalues --   -0.38719  -0.38691  -0.38668  -0.38449  -0.38352
 Alpha  occ. eigenvalues --   -0.38167  -0.37788  -0.37675  -0.37666  -0.37480
 Alpha  occ. eigenvalues --   -0.37177  -0.37116  -0.36567  -0.36298  -0.36152
 Alpha  occ. eigenvalues --   -0.35706  -0.35305  -0.34914  -0.34439  -0.34330
 Alpha  occ. eigenvalues --   -0.34141  -0.33953  -0.33754  -0.33293  -0.32998
 Alpha  occ. eigenvalues --   -0.32880  -0.32141  -0.30846  -0.30269  -0.29815
 Alpha  occ. eigenvalues --   -0.29484  -0.29476  -0.29368  -0.28954  -0.28884
 Alpha  occ. eigenvalues --   -0.28788  -0.27655  -0.26100  -0.25892  -0.25508
 Alpha  occ. eigenvalues --   -0.25124  -0.24964  -0.24629  -0.24473  -0.22867
 Alpha  occ. eigenvalues --   -0.22508  -0.20743  -0.20122  -0.17427
 Alpha virt. eigenvalues --   -0.05843  -0.05407  -0.04144  -0.03289  -0.00865
 Alpha virt. eigenvalues --   -0.00109   0.00069   0.00191   0.00341   0.00456
 Alpha virt. eigenvalues --    0.00910   0.02221   0.03465   0.05798   0.06137

 Mulliken charges:
               1
     1  C   -0.666066
     2  Si   0.667345
     3  C   -0.655896
     4  C   -0.656916
     5  C   -0.033782
     6  C   -0.185378
     7  C   -0.174613
     8  C    0.144333
     9  C   -0.194552
    10  C   -0.189641
    11  C    0.162134
    12  C   -0.201049
    13  C   -0.167896
    14  C    0.278955
    15  N   -0.655597
    16  C    0.283229
    17  C   -0.170539
    18  C   -0.213213
    19  C    0.190539
    20  C   -0.189261
    21  C   -0.192648
    22  C    0.178338
    23  C   -0.188802
    24  C   -0.184882
    25  C   -0.033872
    26  Si   0.667334
    27  C   -0.655948
    28  C   -0.666002
    29  C   -0.656706
    30  C   -0.178382
    31  C   -0.174886
    32  C   -0.194714
    33  C   -0.164406
    34  C    0.283383
    35  C   -0.164474
    36  C   -0.202730
    37  C    0.152155
    38  C   -0.291839
    39  C    0.187220
    40  C   -0.184482
    41  C   -0.195997
    42  C    0.182917
    43  C   -0.180329
    44  C   -0.130773
    45  C   -0.129543
    46  C   -0.129798
    47  C   -0.197736
    48  C   -0.182988
    49  C   -0.196261
    50  C    0.143149
    51  C   -0.257544
    52  C   -0.162309
    53  C   -0.195452
    54  C   -0.172917
    55  C   -0.179505
    56  H    0.161827
    57  H    0.161768
    58  H    0.162381
    59  H    0.161358
    60  H    0.163447
    61  H    0.157423
    62  H    0.158945
    63  H    0.163509
    64  H    0.157300
    65  H    0.127157
    66  H    0.125263
    67  H    0.132442
    68  H    0.130650
    69  H    0.132005
    70  H    0.147005
    71  H    0.147615
    72  H    0.131069
    73  H    0.127165
    74  H    0.125403
    75  H    0.123712
    76  H    0.126710
    77  H    0.159335
    78  H    0.156967
    79  H    0.163638
    80  H    0.161981
    81  H    0.162159
    82  H    0.161803
    83  H    0.163732
    84  H    0.159177
    85  H    0.157103
    86  H    0.124162
    87  H    0.126516
    88  H    0.133588
    89  H    0.147168
    90  H    0.148285
    91  H    0.134146
    92  H    0.126998
    93  H    0.127094
    94  H    0.126469
    95  H    0.129294
    96  H    0.130098
    97  H    0.129732
    98  H    0.130203
    99  H    0.126722
   100  H    0.130585
   101  H    0.131016
   102  H    0.143445
   103  H    0.146566
   104  H    0.151680
   105  H    0.140358
   106  H    0.125121
 Sum of Mulliken charges =  -0.00000

 Dipole moment (field-independent basis, Debye):
    X=             -0.1408    Y=              0.2295    Z=              0.1502  Tot=              0.3083
 Quadrupole moment (field-independent basis, Debye-Ang):
   XX=           -315.5659   YY=           -314.7031   ZZ=           -335.3105
   XY=             -4.9422   XZ=              2.5662   YZ=             -2.1977

 Normal termination of Gaussian 16 at Sat Nov  5 10:34:17 2022.
