 Gaussian 16, Revision B.01,
 Gaussian 16:  ES64L-G16RevB.01 20-Dec-2017

 -----------------------------
 #p b3lyp/6-31g(d) opt SCF=XQC
 -----------------------------

 ------------------------------
 Gaussian input prepared by ASE
 ------------------------------
 Symbolic Z-matrix:
 Charge =  0 Multiplicity = 1

 SCF Done:  E(RB3LYP) =  -2646.05391534     A.U. after   15 cycles
 SCF Done:  E(RB3LYP) =  -2646.06558722     A.U. after   14 cycles
 SCF Done:  E(RB3LYP) =  -2646.06844606     A.U. after   15 cycles
 SCF Done:  E(RB3LYP) =  -2646.07147028     A.U. after   14 cycles
 SCF Done:  E(RB3LYP) =  -2646.07227130     A.U. after   12 cycles
 SCF Done:  E(RB3LYP) =  -2646.07257758     A.U. after   11 cycles
 SCF Done:  E(RB3LYP) =  -2646.07280615     A.U. after   11 cycles
 SCF Done:  E(RB3LYP) =  -2646.07286750     A.U. after   11 cycles
 SCF Done:  E(RB3LYP) =  -2646.07289447     A.U. after   11 cycles
 SCF Done:  E(RB3LYP) =  -2646.07290875     A.U. after   10 cycles
 SCF Done:  E(RB3LYP) =  -2646.07297688     A.U. after    9 cycles
 SCF Done:  E(RB3LYP) =  -2646.07297687     A.U. after    9 cycles
 SCF Done:  E(RB3LYP) =  -2646.07297682     A.U. after    9 cycles
 SCF Done:  E(RB3LYP) =  -2646.07297689     A.U. after    9 cycles
 SCF Done:  E(RB3LYP) =  -2646.07297698     A.U. after    9 cycles
 SCF Done:  E(RB3LYP) =  -2646.07297679     A.U. after    9 cycles
 SCF Done:  E(RB3LYP) =  -2646.07297704     A.U. after    9 cycles
 SCF Done:  E(RB3LYP) =  -2646.07297694     A.U. after    9 cycles
 SCF Done:  E(RB3LYP) =  -2646.07297705     A.U. after    9 cycles
 SCF Done:  E(RB3LYP) =  -2646.07297705     A.U. after    9 cycles
 Optimization completed on the basis of negligible forces.
    -- Stationary point found.

                         Standard orientation:
 ---------------------------------------------------------------------
 Center     Atomic      Atomic             Coordinates (Angstroms)
 Number     Number       Type             X           Y           Z
 ---------------------------------------------------------------------
      1          6           0       -9.383087    5.465781   -1.593179
      2         14           0       -8.404416    4.171910   -0.616942
      3          6           0       -8.254168    2.585891   -1.643405
      4          6           0       -9.310361    3.785376    1.002548
      5          6           0       -6.673713    4.833029   -0.224817
      6          6           0       -6.236377    6.101382   -0.643997
      7          6           0       -4.959831    6.571650   -0.340067
      8          6           0       -4.045191    5.785358    0.381518
      9          6           0       -2.725597    6.350305    0.713928
     10          6           0       -1.521123    5.763831    0.892529
     11          6           0       -1.065727    4.382196    0.676543
     12          6           0        0.031272    3.903850    1.416607
     13          6           0        0.533650    2.619432    1.237936
     14          6           0       -0.026605    1.768197    0.273463
     15          7           0        0.489056    0.460838    0.063980
     16          6           0        1.888433    0.235460    0.093929
     17          6           0        2.424552   -0.902080    0.717529
     18          6           0        3.797607   -1.118730    0.723016
     19          6           0        4.698118   -0.213364    0.130796
     20          6           0        6.131196   -0.496201    0.185323
     21          6           0        7.135425    0.284262   -0.268588
     22          6           0        8.569852   -0.002846   -0.215473
     23          6           0        9.474216    0.958553   -0.701437
     24          6           0       10.850335    0.741802   -0.673706
     25          6           0       11.399465   -0.445776   -0.161071
     26         14           0       13.264137   -0.767674   -0.112351
     27          6           0       13.666041   -2.303727   -1.147858
     28          6           0       14.194549    0.725549   -0.812023
     29          6           0       13.804362   -1.064996    1.680039
     30          6           0       10.486212   -1.406247    0.322435
     31          6           0        9.112960   -1.198155    0.298142
     32          6           0        4.143403    0.926156   -0.488801
     33          6           0        2.774647    1.145074   -0.514045
     34          6           0       -0.400120   -0.634310   -0.101535
     35          6           0       -0.110174   -1.633581   -1.075304
     36          6           0       -0.960609   -2.695463   -1.262400
     37          6           0       -2.157555   -2.825810   -0.505457
     38          6           0       -3.055639   -3.904777   -0.678670
     39          6           0       -4.222025   -4.026760    0.067244
     40          6           0       -5.100984   -5.171007   -0.168190
     41          6           0       -6.260622   -5.452208    0.463106
     42          6           0       -7.141243   -6.599239    0.226402
     43          6           0       -6.887200   -7.593280   -0.740018
     44          6           0       -7.762333   -8.659907   -0.916915
     45          6           0       -8.917532   -8.767776   -0.136026
     46          6           0       -9.186661   -7.793193    0.825503
     47          6           0       -8.309506   -6.725133    1.002029
     48          6           0       -4.501290   -3.013398    1.036393
     49          6           0       -3.652536   -1.952923    1.226179
     50          6           0       -2.455692   -1.817383    0.466245
     51          6           0       -1.556825   -0.741501    0.654497
     52          6           0       -1.101674    2.244143   -0.497863
     53          6           0       -1.610340    3.519932   -0.295580
     54          6           0       -4.480132    4.521016    0.821655
     55          6           0       -5.759061    4.063236    0.522119
     56          1           0       -8.900793    5.710892   -2.546876
     57          1           0       -9.504029    6.398578   -1.029729
     58          1           0      -10.387535    5.089313   -1.822259
     59          1           0       -7.670347    1.819464   -1.119803
     60          1           0       -7.758588    2.778655   -2.602161
     61          1           0       -9.241969    2.159332   -1.857870
     62          1           0       -8.761704    3.054215    1.608236
     63          1           0       -9.437455    4.688055    1.611607
     64          1           0      -10.307131    3.370466    0.807666
     65          1           0       -6.903205    6.743729   -1.214487
     66          1           0       -4.658755    7.563183   -0.671984
     67          1           0       -2.741304    7.431500    0.853621
     68          1           0       -0.729165    6.428670    1.238519
     69          1           0        0.486509    4.548496    2.164988
     70          1           0        1.366275    2.272228    1.841254
     71          1           0        1.760705   -1.612080    1.200126
     72          1           0        4.188747   -2.006120    1.215579
     73          1           0        6.380237   -1.446437    0.655880
     74          1           0        6.888906    1.242353   -0.724392
     75          1           0        9.085692    1.891218   -1.105604
     76          1           0       11.505028    1.518847   -1.061327
     77          1           0       13.126828   -3.187286   -0.785819
     78          1           0       14.738185   -2.533993   -1.112836
     79          1           0       13.389826   -2.157536   -2.198694
     80          1           0       13.999398    1.636773   -0.234275
     81          1           0       15.276349    0.546389   -0.785086
     82          1           0       13.922378    0.925862   -1.855106
     83          1           0       13.610519   -0.184842    2.304273
     84          1           0       13.269390   -1.910697    2.128467
     85          1           0       14.877524   -1.285792    1.737338
     86          1           0       10.855757   -2.346280    0.729407
     87          1           0        8.454669   -1.973644    0.679606
     88          1           0        4.792085    1.646145   -0.978884
     89          1           0        2.376279    2.022929   -1.012609
     90          1           0        0.790163   -1.539031   -1.673484
     91          1           0       -0.729803   -3.447503   -2.013222
     92          1           0       -2.817278   -4.662314   -1.423054
     93          1           0       -4.749025   -5.849711   -0.943837
     94          1           0       -6.611571   -4.775547    1.240705
     95          1           0       -5.997641   -7.531794   -1.359949
     96          1           0       -7.543464   -9.413299   -1.669286
     97          1           0       -9.598410   -9.602574   -0.277719
     98          1           0      -10.080640   -7.863625    1.439638
     99          1           0       -8.526387   -5.969537    1.753928
    100          1           0       -5.404178   -3.080244    1.635389
    101          1           0       -3.887386   -1.194376    1.969298
    102          1           0       -1.783503    0.012001    1.402969
    103          1           0       -1.528011    1.607560   -1.266702
    104          1           0       -2.425504    3.866851   -0.921255
    105          1           0       -3.812537    3.904203    1.414829
    106          1           0       -6.052188    3.081065    0.889866
 ---------------------------------------------------------------------

 The electronic state is 1-A.
 Alpha  occ. eigenvalues --  -66.11608 -66.11604 -14.37166 -10.23393 -10.23291
 Alpha  occ. eigenvalues --  -10.23238 -10.20010 -10.19989 -10.19887 -10.19764
 Alpha  occ. eigenvalues --  -10.19744 -10.19715 -10.19699 -10.19687 -10.19497
 Alpha  occ. eigenvalues --  -10.19354 -10.19272 -10.19254 -10.19251 -10.19250
 Alpha  occ. eigenvalues --  -10.19215 -10.19201 -10.19164 -10.19155 -10.19135
 Alpha  occ. eigenvalues --  -10.19128 -10.19112 -10.19092 -10.19032 -10.19021
 Alpha  occ. eigenvalues --  -10.19019 -10.18997 -10.18991 -10.18963 -10.18963
 Alpha  occ. eigenvalues --  -10.18953 -10.18894 -10.18874 -10.18859 -10.18747
 Alpha  occ. eigenvalues --  -10.18692 -10.18651 -10.18614 -10.18532 -10.18513
 Alpha  occ. eigenvalues --  -10.18472 -10.18404 -10.17151 -10.17101 -10.15967
 Alpha  occ. eigenvalues --  -10.15962 -10.15780 -10.15766 -10.15762 -10.15720
 Alpha  occ. eigenvalues --   -5.26059  -5.26053  -3.61955  -3.61948  -3.61929
 Alpha  occ. eigenvalues --   -3.61923  -3.61912  -3.61907  -0.96953  -0.87478
 Alpha  occ. eigenvalues --   -0.86177  -0.85602  -0.85413  -0.84957  -0.84693
 Alpha  occ. eigenvalues --   -0.82721  -0.79747  -0.79412  -0.78707  -0.77395
 Alpha  occ. eigenvalues --   -0.76002  -0.75874  -0.74782  -0.74693  -0.74362
 Alpha  occ. eigenvalues --   -0.74050  -0.73905  -0.73748  -0.72819  -0.71681
 Alpha  occ. eigenvalues --   -0.71292  -0.70428  -0.70073  -0.68887  -0.67389
 Alpha  occ. eigenvalues --   -0.67388  -0.67182  -0.67168  -0.64578  -0.64153
 Alpha  occ. eigenvalues --   -0.62647  -0.62055  -0.61366  -0.61020  -0.60581
 Alpha  occ. eigenvalues --   -0.60146  -0.60043  -0.59712  -0.59250  -0.58940
 Alpha  occ. eigenvalues --   -0.57644  -0.55761  -0.55148  -0.55045  -0.53691
 Alpha  occ. eigenvalues --   -0.53093  -0.51717  -0.50870  -0.50568  -0.50314
 Alpha  occ. eigenvalues --   -0.49934  -0.48682  -0.47742  -0.47344  -0.47041
 Alpha  occ. eigenvalues --   -0.46415  -0.46006  -0.45491  -0.45349  -0.45194
 Alpha  occ. eigenvalues --   -0.44454  -0.44254  -0.44013  -0.43965  -0.43600
 Alpha  occ. eigenvalues --   -0.43506  -0.43015  -0.42490  -0.42283  -0.42077
 Alpha  occ. eigenvalues --   -0.42043  -0.41904  -0.41597  -0.41496  -0.41323
 Alpha  occ. eigenvalues --   -0.41150  -0.40969  -0.40898  -0.40445  -0.40359
 Alpha  occ. eigenvalues --   -0.40359  -0.39972  -0.39922  -0.39369  -0.38929
 Alpha  occ. eigenvalues --   -0.38719  -0.38691  -0.38668  -0.38449  -0.38352
 Alpha  occ. eigenvalues --   -0.38167  -0.37788  -0.37675  -0.37666  -0.37480
 Alpha  occ. eigenvalues --   -0.37177  -0.37116  -0.36567  -0.36298  -0.36152
 Alpha  occ. eigenvalues --   -0.35706  -0.35305  -0.34914  -0.34439  -0.34330
 Alpha  occ. eigenvalues --   -0.34141  -0.33953  -0.33754  -0.33293  -0.32998
 Alpha  occ. eigenvalues --   -0.32880  -0.32141  -0.30846  -0.30269  -0.29815
 Alpha  occ. eigenvalues --   -0.29484  -0.29476  -0.29368  -0.28954  -0.28884
 Alpha  occ. eigenvalues --   -0.28788  -0.27655  -0.26100  -0.25892  -0.25508
 Alpha  occ. eigenvalues --   -0.25124  -0.24964  -0.24629  -0.24473  -0.22867
 Alpha  occ. eigenvalues --   -0.22508  -0.20743  -0.20122  -0.17427
 Alpha virt. eigenvalues --   -0.05843  -0.05407  -0.04144  -0.03289  -0.00865
 Alpha virt. eigenvalues --   -0.00109   0.00069   0.00191   0.00341   0.00456
 Alpha virt. eigenvalues --    0.00910   0.02221   0.03465   0.05798   0.06137

 Mulliken charges:
               1
     1  C   -0.666058
     2  Si   0.667338
     3  C   -0.655903
     4  C   -0.656916
     5  C   -0.033779
     6  C   -0.185375
     7  C   -0.174613
     8  C    0.144331
     9  C   -0.194558
    10  C   -0.189647
    11  C    0.162122
    12  C   -0.201037
    13  C   -0.167897
    14  C    0.278939
    15  N   -0.655612
    16  C    0.283255
    17  C   -0.170555
    18  C   -0.213211
    19  C    0.190544
    20  C   -0.189262
    21  C   -0.192645
    22  C    0.178337
    23  C   -0.188804
    24  C   -0.184880
    25  C   -0.033880
    26  Si   0.667323
    27  C   -0.655943
    28  C   -0.666001
    29  C   -0.656701
    30  C   -0.178376
    31  C   -0.174886
    32  C   -0.194718
    33  C   -0.164415
    34  C    0.283416
    35  C   -0.164485
    36  C   -0.202732
    37  C    0.152160
    38  C   -0.291852
    39  C    0.187231
    40  C   -0.184476
    41  C   -0.195997
    42  C    0.182924
    43  C   -0.180334
    44  C   -0.130762
    45  C   -0.129549
    46  C   -0.129788
    47  C   -0.197750
    48  C   -0.182990
    49  C   -0.196263
    50  C    0.143167
    51  C   -0.257575
    52  C   -0.162293
    53  C   -0.195440
    54  C   -0.172913
    55  C   -0.179506
    56  H    0.161825
    57  H    0.161765
    58  H    0.162378
    59  H    0.161361
    60  H    0.163450
    61  H    0.157426
    62  H    0.158945
    63  H    0.163509
    64  H    0.157301
    65  H    0.127156
    66  H    0.125262
    67  H    0.132443
    68  H    0.130650
    69  H    0.132005
    70  H    0.147008
    71  H    0.147617
    72  H    0.131069
    73  H    0.127165
    74  H    0.125403
    75  H    0.123712
    76  H    0.126710
    77  H    0.159335
    78  H    0.156967
    79  H    0.163638
    80  H    0.161981
    81  H    0.162159
    82  H    0.161803
    83  H    0.163731
    84  H    0.159176
    85  H    0.157103
    86  H    0.124163
    87  H    0.126515
    88  H    0.133588
    89  H    0.147168
    90  H    0.148285
    91  H    0.134147
    92  H    0.126998
    93  H    0.127092
    94  H    0.126467
    95  H    0.129292
    96  H    0.130097
    97  H    0.129731
    98  H    0.130202
    99  H    0.126724
   100  H    0.130582
   101  H    0.131017
   102  H    0.143444
   103  H    0.146564
   104  H    0.151681
   105  H    0.140358
   106  H    0.125122
 Sum of Mulliken charges =  -0.00000

 Dipole moment (field-independent basis, Debye):
    X=             -0.2112    Y=             -0.1423    Z=             -0.1739  Tot=              0.3084
 Quadrupole moment (field-independent basis, Debye-Ang):
   XX=           -311.6507   YY=           -318.3737   ZZ=           -335.5646
   XY=              3.9367   XZ=             -1.6756   YZ=              0.6333

 Normal termination of Gaussian 16 at Sat Nov  5 01:57:59 2022.
