 Gaussian 16, Revision B.01,
 Gaussian 16:  ES64L-G16RevB.01 20-Dec-2017

 -------------------------------------------------------------------
 #p b3lyp/6-31g(d) 6D 10F nosymm GFInput td=(50-50,nstate=2) SCF=XQC
 -------------------------------------------------------------------

 ------------------------------
 Gaussian input prepared by ASE
 ------------------------------
 Symbolic Z-matrix:
 Charge =  0 Multiplicity = 1

                          Input orientation:
 ---------------------------------------------------------------------
 Center     Atomic      Atomic             Coordinates (Angstroms)
 Number     Number       Type             X           Y           Z
 ---------------------------------------------------------------------
      1          6           0       -3.687982   -3.724579   -1.518408
      2          6           0       -2.558434   -2.768179   -1.813929
      3          6           0       -1.808376   -2.889264   -2.924683
      4          6           0       -0.810280   -1.784782   -3.021951
      5          6           0        0.632552   -2.258719   -3.276170
      6          6           0       -1.067491   -0.982600   -1.745335
      7          6           0       -0.168558    0.158726   -1.363010
      8          6           0       -0.262551    1.485173   -1.735997
      9          6           0       -1.055426    1.971674   -2.998294
     10          6           0       -1.179481    3.503672   -3.181530
     11          6           0       -2.494996    1.418724   -3.100019
     12          6           0       -0.205407    1.510855   -4.219355
     13          6           0        0.690010    2.444961   -1.070884
     14          6           0        0.314156    3.608095   -0.447027
     15          6           0        1.302918    4.570178    0.191907
     16          6           0        0.897831    6.047139    0.002361
     17          6           0       -0.522431    6.321185    0.506398
     18          6           0       -1.525406    5.404365   -0.203035
     19          6           0       -1.120592    3.923431   -0.070111
     20          6           0        2.039636    1.939391   -0.788054
     21          6           0        2.173966    0.625710   -0.507273
     22          6           0        1.011711   -0.266505   -0.609793
     23          6           0        1.349996   -1.482385   -0.069458
     24          6           0        2.741442   -1.445263    0.364871
     25          6           0        3.545322   -2.414458    0.960122
     26          6           0        4.886992   -2.131327    1.283252
     27          6           0        5.754005   -3.224260    1.937861
     28          6           0        5.839986   -4.448288    0.994975
     29          6           0        5.114313   -3.656726    3.278971
     30          6           0        7.189198   -2.745364    2.228244
     31          6           0        5.382536   -0.849221    0.991386
     32          6           0        4.584801    0.138524    0.396543
     33          6           0        3.267209   -0.154773    0.077348
     34          6           0       -2.090218   -1.560378   -1.039607
     35          6           0       -2.697529   -1.160823    0.314936
     36          6           0       -2.152630    0.176044    0.887754
     37          6           0       -2.787315    0.516783    2.253303
     38          6           0       -2.472123   -0.600019    3.266405
     39          6           0       -3.038284   -1.930546    2.736076
     40          6           0       -4.565677   -1.805290    2.561650
     41          6           0       -4.881122   -0.669037    1.566884
     42          6           0       -4.312533    0.657128    2.101879
     43          6           0       -4.244477   -0.994389    0.199567
     44          6           0       -2.384234   -2.261027    1.377932
     45          1           0       -3.699498   -4.089120   -0.487024
     46          1           0       -4.670476   -3.276074   -1.710029
     47          1           0       -3.601477   -4.597749   -2.174148
     48          1           0       -1.916263   -3.662862   -3.679116
     49          1           0       -1.096749   -1.158608   -3.881421
     50          1           0        0.971183   -2.938449   -2.489962
     51          1           0        0.683735   -2.790302   -4.233791
     52          1           0        1.330618   -1.416774   -3.316459
     53          1           0       -1.507929    3.697061   -4.209189
     54          1           0       -1.928750    3.949967   -2.526518
     55          1           0       -0.231124    4.025213   -3.034075
     56          1           0       -2.545765    0.332122   -3.144500
     57          1           0       -2.972571    1.816597   -4.004107
     58          1           0       -3.095556    1.740360   -2.240726
     59          1           0        0.765650    2.019960   -4.219521
     60          1           0       -0.718073    1.767705   -5.155300
     61          1           0       -0.010556    0.438997   -4.218888
     62          1           0        2.315051    4.433777   -0.195436
     63          1           0        1.355634    4.362993    1.273855
     64          1           0        0.960901    6.303837   -1.064721
     65          1           0        1.622748    6.685791    0.522368
     66          1           0       -0.788982    7.373798    0.348690
     67          1           0       -0.564571    6.144618    1.591538
     68          1           0       -2.533214    5.542193    0.208671
     69          1           0       -1.576574    5.683105   -1.263300
     70          1           0       -1.824355    3.267696   -0.585385
     71          1           0       -1.204947    3.657222    0.998520
     72          1           0        2.861057    2.626891   -0.618300
     73          1           0        0.706455   -2.351048   -0.001399
     74          1           0        3.128423   -3.395569    1.173232
     75          1           0        4.851620   -4.868122    0.781089
     76          1           0        6.299404   -4.173368    0.038617
     77          1           0        6.448117   -5.240194    1.449924
     78          1           0        5.716601   -4.440549    3.755161
     79          1           0        5.048746   -2.809925    3.971737
     80          1           0        4.102829   -4.052181    3.139729
     81          1           0        7.714978   -2.452828    1.312269
     82          1           0        7.203380   -1.893773    2.917940
     83          1           0        7.761757   -3.556281    2.692873
     84          1           0        6.410907   -0.600655    1.227341
     85          1           0        5.009324    1.118262    0.187926
     86          1           0       -1.066965    0.118362    1.006026
     87          1           0       -2.352462    0.987882    0.180692
     88          1           0       -2.361851    1.465773    2.608358
     89          1           0       -1.386549   -0.683332    3.412902
     90          1           0       -2.911116   -0.361467    4.245483
     91          1           0       -2.813195   -2.738675    3.445332
     92          1           0       -4.984527   -2.753861    2.196850
     93          1           0       -5.040122   -1.600348    3.531514
     94          1           0       -5.968974   -0.583189    1.439806
     95          1           0       -4.772036    0.909146    3.068124
     96          1           0       -4.551886    1.476696    1.409698
     97          1           0       -4.707403   -1.902491   -0.191840
     98          1           0       -4.464468   -0.192830   -0.519276
     99          1           0       -1.295560   -2.336521    1.498102
    100          1           0       -2.729597   -3.242439    1.037136
 ---------------------------------------------------------------------

 SCF Done:  E(RB3LYP) =  -1710.36522913     A.U. after   16 cycles

 Excitation energies and oscillator strengths:

 Excited state symmetry could not be determined.
 Excited State   1:      Triplet-?Sym    1.3890 eV  892.62 nm  f=0.0000  <S**2>=2.000
     160 ->161         0.69256
     160 <-161         0.15809
 This state for optimization and/or second-order correction.
 Total Energy, E(TD-HF/TD-DFT) =  -1710.31418453
 Copying the excited state density for this state as the 1-particle RhoCI density.

 Excited state symmetry could not be determined.
 Excited State   2:      Triplet-?Sym    2.1982 eV  564.01 nm  f=0.0000  <S**2>=2.000
     158 ->161         0.60622
     158 ->162         0.10433
     159 ->161         0.24099
     160 ->162        -0.15270

 Excited state symmetry could not be determined.
 Excited State   3:      Singlet-?Sym    2.6509 eV  467.71 nm  f=0.1159  <S**2>=0.000
     158 ->161         0.28029
     159 ->161         0.13454
     160 ->161         0.62490

 Excited state symmetry could not be determined.
 Excited State   4:      Singlet-?Sym    3.0190 eV  410.68 nm  f=0.0048  <S**2>=0.000
     158 ->161        -0.21619
     159 ->161         0.66783

 Alpha  occ. eigenvalues --  -10.20498 -10.20374 -10.19756 -10.19601 -10.19507
 Alpha  occ. eigenvalues --  -10.19400 -10.19253 -10.19057 -10.18962 -10.18779
 Alpha  occ. eigenvalues --  -10.18577 -10.18411 -10.18411 -10.18315 -10.18310
 Alpha  occ. eigenvalues --  -10.18230 -10.18174 -10.18123 -10.17978 -10.17918
 Alpha  occ. eigenvalues --  -10.17918 -10.17734 -10.17671 -10.17651 -10.17617
 Alpha  occ. eigenvalues --  -10.17572 -10.17423 -10.17391 -10.17339 -10.17268
 Alpha  occ. eigenvalues --  -10.16992 -10.16957 -10.16917 -10.16876 -10.16803
 Alpha  occ. eigenvalues --  -10.16802 -10.16770 -10.16722 -10.16711 -10.16696
 Alpha  occ. eigenvalues --  -10.16666 -10.16615 -10.16325 -10.16081  -0.87897
 Alpha  occ. eigenvalues --   -0.86365  -0.85168  -0.84638  -0.83128  -0.81906
 Alpha  occ. eigenvalues --   -0.79827  -0.78362  -0.77111  -0.76388  -0.75782
 Alpha  occ. eigenvalues --   -0.75460  -0.74970  -0.74672  -0.74132  -0.72341
 Alpha  occ. eigenvalues --   -0.70803  -0.69439  -0.68184  -0.67893  -0.67622
 Alpha  occ. eigenvalues --   -0.67567  -0.66849  -0.66136  -0.65772  -0.65516
 Alpha  occ. eigenvalues --   -0.63131  -0.62005  -0.61276  -0.60551  -0.57656
 Alpha  occ. eigenvalues --   -0.57515  -0.57377  -0.57294  -0.57090  -0.56377
 Alpha  occ. eigenvalues --   -0.54379  -0.53058  -0.51639  -0.51469  -0.51291
 Alpha  occ. eigenvalues --   -0.50316  -0.48628  -0.48020  -0.47638  -0.46943
 Alpha  occ. eigenvalues --   -0.46111  -0.45271  -0.44515  -0.44469  -0.44356
 Alpha  occ. eigenvalues --   -0.44146  -0.44012  -0.43608  -0.43570  -0.43195
 Alpha  occ. eigenvalues --   -0.43040  -0.42780  -0.42512  -0.42031  -0.41491
 Alpha  occ. eigenvalues --   -0.41246  -0.41023  -0.40570  -0.40429  -0.40210
 Alpha  occ. eigenvalues --   -0.40008  -0.39608  -0.39278  -0.39206  -0.38953
 Alpha  occ. eigenvalues --   -0.38832  -0.38471  -0.38324  -0.38106  -0.38030
 Alpha  occ. eigenvalues --   -0.37569  -0.37436  -0.37304  -0.37051  -0.36824
 Alpha  occ. eigenvalues --   -0.36376  -0.36291  -0.35837  -0.35695  -0.35350
 Alpha  occ. eigenvalues --   -0.34623  -0.34453  -0.33582  -0.33472  -0.33268
 Alpha  occ. eigenvalues --   -0.32976  -0.32750  -0.32657  -0.32311  -0.32000
 Alpha  occ. eigenvalues --   -0.31806  -0.31620  -0.31490  -0.31368  -0.31322
 Alpha  occ. eigenvalues --   -0.31175  -0.30994  -0.30842  -0.30334  -0.29268
 Alpha  occ. eigenvalues --   -0.28148  -0.27698  -0.27475  -0.26793  -0.25918
 Alpha  occ. eigenvalues --   -0.25098  -0.23451  -0.20026  -0.19700  -0.17663
 Alpha virt. eigenvalues --   -0.06338  -0.01405  -0.00404   0.01586   0.03422
 Alpha virt. eigenvalues --    0.05604   0.06288   0.07499   0.08073   0.08956
 Alpha virt. eigenvalues --    0.09678   0.10024   0.10990   0.11279   0.11508

 Mulliken charges:
               1
     1  C   -0.542017
     2  C    0.138932
     3  C   -0.187787
     4  C   -0.179857
     5  C   -0.445644
     6  C   -0.065511
     7  C    0.000461
     8  C   -0.007107
     9  C    0.044288
    10  C   -0.458751
    11  C   -0.461429
    12  C   -0.449903
    13  C    0.006737
    14  C    0.121336
    15  C   -0.326614
    16  C   -0.261389
    17  C   -0.260217
    18  C   -0.262094
    19  C   -0.340075
    20  C   -0.264102
    21  C    0.075946
    22  C    0.096107
    23  C   -0.274166
    24  C    0.109950
    25  C   -0.275803
    26  C    0.180552
    27  C    0.020025
    28  C   -0.437640
    29  C   -0.437792
    30  C   -0.456750
    31  C   -0.214762
    32  C   -0.195704
    33  C    0.087724
    34  C    0.094993
    35  C    0.023972
    36  C   -0.301487
    37  C   -0.094806
    38  C   -0.264176
    39  C   -0.087785
    40  C   -0.264835
    41  C   -0.088082
    42  C   -0.260977
    43  C   -0.290927
    44  C   -0.289886
    45  H    0.159931
    46  H    0.164013
    47  H    0.152195
    48  H    0.115151
    49  H    0.158551
    50  H    0.157940
    51  H    0.137746
    52  H    0.159364
    53  H    0.136820
    54  H    0.147429
    55  H    0.144837
    56  H    0.170031
    57  H    0.132061
    58  H    0.143096
    59  H    0.146132
    60  H    0.135161
    61  H    0.160372
    62  H    0.146725
    63  H    0.149754
    64  H    0.136225
    65  H    0.135032
    66  H    0.134978
    67  H    0.129759
    68  H    0.133956
    69  H    0.142452
    70  H    0.161347
    71  H    0.155688
    72  H    0.137795
    73  H    0.139660
    74  H    0.119435
    75  H    0.142838
    76  H    0.146287
    77  H    0.134900
    78  H    0.134956
    79  H    0.145935
    80  H    0.142839
    81  H    0.144462
    82  H    0.144147
    83  H    0.138297
    84  H    0.118938
    85  H    0.119393
    86  H    0.148963
    87  H    0.135927
    88  H    0.110859
    89  H    0.129842
    90  H    0.121028
    91  H    0.113271
    92  H    0.121695
    93  H    0.123961
    94  H    0.112038
    95  H    0.121265
    96  H    0.119917
    97  H    0.133860
    98  H    0.129416
    99  H    0.138081
   100  H    0.130302
 Sum of Mulliken charges =  -0.00000

 Dipole moment (field-independent basis, Debye):
    X=             -0.7386    Y=              1.7414    Z=             -0.0218  Tot=              1.8917
 Quadrupole moment (field-independent basis, Debye-Ang):
   XX=           -264.6731   YY=           -252.5993   ZZ=           -266.8825
   XY=              2.9944   XZ=              2.1636   YZ=             -0.3387

 Normal termination of Gaussian 16 at Sat Nov  5 10:38:56 2022.
