 Gaussian 16, Revision B.01,
 Gaussian 16:  ES64L-G16RevB.01 20-Dec-2017

 -----------------------------
 #p b3lyp/6-31g(d) opt SCF=XQC
 -----------------------------

 ------------------------------
 Gaussian input prepared by ASE
 ------------------------------
 Symbolic Z-matrix:
 Charge =  0 Multiplicity = 1

 SCF Done:  E(RB3LYP) =  -1710.35008466     A.U. after   16 cycles
 SCF Done:  E(RB3LYP) =  -1710.36060115     A.U. after   13 cycles
 SCF Done:  E(RB3LYP) =  -1710.35717272     A.U. after   14 cycles
 SCF Done:  E(RB3LYP) =  -1710.35263302     A.U. after   14 cycles
 SCF Done:  E(RB3LYP) =  -1710.35358471     A.U. after   13 cycles
 SCF Done:  E(RB3LYP) =  -1710.36118438     A.U. after   10 cycles
 SCF Done:  E(RB3LYP) =  -1710.36471944     A.U. after   12 cycles
 SCF Done:  E(RB3LYP) =  -1710.36111293     A.U. after   13 cycles
 SCF Done:  E(RB3LYP) =  -1710.36430955     A.U. after   13 cycles
 SCF Done:  E(RB3LYP) =  -1710.36498359     A.U. after   10 cycles
 SCF Done:  E(RB3LYP) =  -1710.36474853     A.U. after   12 cycles
 SCF Done:  E(RB3LYP) =  -1710.36518044     A.U. after   11 cycles
 SCF Done:  E(RB3LYP) =  -1710.36521708     A.U. after   11 cycles
 SCF Done:  E(RB3LYP) =  -1710.36524556     A.U. after   10 cycles
 SCF Done:  E(RB3LYP) =  -1710.36524135     A.U. after   10 cycles
 SCF Done:  E(RB3LYP) =  -1710.36524595     A.U. after   10 cycles
 SCF Done:  E(RB3LYP) =  -1710.36525042     A.U. after    8 cycles
 SCF Done:  E(RB3LYP) =  -1710.36525044     A.U. after    7 cycles
 SCF Done:  E(RB3LYP) =  -1710.36525061     A.U. after    7 cycles
 Optimization completed.
    -- Stationary point found.

                         Standard orientation:
 ---------------------------------------------------------------------
 Center     Atomic      Atomic             Coordinates (Angstroms)
 Number     Number       Type             X           Y           Z
 ---------------------------------------------------------------------
      1          6           0        1.868571   -4.777778    1.865946
      2          6           0        1.381254   -3.359700    2.037680
      3          6           0        0.897144   -2.921298    3.214312
      4          6           0        0.551560   -1.471644    3.146408
      5          6           0       -0.865527   -1.136647    3.647057
      6          6           0        0.883887   -1.111865    1.697436
      7          6           0        0.545234    0.244477    1.147406
      8          6           0        1.303755    1.398002    1.185380
      9          6           0        2.465463    1.632496    2.212110
     10          6           0        3.305482    2.917623    2.015140
     11          6           0        3.484583    0.473869    2.298370
     12          6           0        1.762348    1.845290    3.585509
     13          6           0        0.779563    2.579200    0.410182
     14          6           0        1.509323    3.295856   -0.504804
     15          6           0        0.959977    4.500816   -1.251651
     16          6           0        2.020266    5.603043   -1.457374
     17          6           0        3.277036    5.067313   -2.150065
     18          6           0        3.873373    3.905611   -1.347168
     19          6           0        2.822838    2.808901   -1.085800
     20          6           0       -0.678348    2.755758    0.389928
     21          6           0       -1.447656    1.647567    0.442067
     22          6           0       -0.823207    0.332433    0.636698
     23          6           0       -1.777080   -0.634122    0.435054
     24          6           0       -3.055158    0.004738    0.144334
     25          6           0       -4.312235   -0.532323   -0.122513
     26          6           0       -5.413149    0.311476   -0.368774
     27          6           0       -6.793098   -0.310693   -0.657519
     28          6           0       -7.235046   -1.169531    0.551510
     29          6           0       -6.702235   -1.207852   -1.915159
     30          6           0       -7.879768    0.751993   -0.909090
     31          6           0       -5.202837    1.700542   -0.340320
     32          6           0       -3.942753    2.256463   -0.077640
     33          6           0       -2.868147    1.415006    0.169603
     34          6           0        1.368369   -2.218391    1.050345
     35          6           0        1.806249   -2.387182   -0.413563
     36          6           0        1.825684   -1.065464   -1.228997
     37          6           0        2.258422   -1.299853   -2.692366
     38          6           0        1.275060   -2.268180   -3.376696
     39          6           0        1.268468   -3.601590   -2.605940
     40          6           0        2.686346   -4.208643   -2.618274
     41          6           0        3.675094   -3.226662   -1.956287
     42          6           0        3.676664   -1.896567   -2.730284
     43          6           0        3.247995   -2.977819   -0.494648
     44          6           0        0.822094   -3.350159   -1.150230
     45          1           0        1.506809   -5.261613    0.953911
     46          1           0        2.963577   -4.839468    1.847892
     47          1           0        1.528077   -5.380901    2.714598
     48          1           0        0.790375   -3.517594    4.115587
     49          1           0        1.256473   -0.935429    3.800944
     50          1           0       -1.625399   -1.681786    3.081156
     51          1           0       -0.959880   -1.415176    4.703351
     52          1           0       -1.081227   -0.067518    3.556343
     53          1           0        3.883946    3.088548    2.930304
     54          1           0        4.027709    2.831925    1.202325
     55          1           0        2.689440    3.803135    1.843414
     56          1           0        3.044134   -0.477177    2.592952
     57          1           0        4.260671    0.728184    3.031014
     58          1           0        3.980244    0.320682    1.332264
     59          1           0        1.150467    2.754780    3.561667
     60          1           0        2.511234    1.966494    4.378775
     61          1           0        1.106353    1.019131    3.857500
     62          1           0        0.096727    4.937698   -0.744713
     63          1           0        0.603791    4.175298   -2.243359
     64          1           0        2.295435    6.025009   -0.480255
     65          1           0        1.576909    6.420908   -2.039025
     66          1           0        4.017984    5.867246   -2.272620
     67          1           0        3.016472    4.721472   -3.161490
     68          1           0        4.728645    3.468159   -1.877564
     69          1           0        4.256372    4.289883   -0.393165
     70          1           0        3.239126    1.985887   -0.502593
     71          1           0        2.561522    2.368167   -2.064280
     72          1           0       -1.113278    3.718561    0.144875
     73          1           0       -1.626406   -1.704139    0.510637
     74          1           0       -4.438402   -1.611970   -0.138126
     75          1           0       -6.524799   -1.976488    0.759466
     76          1           0       -7.317862   -0.556938    1.456572
     77          1           0       -8.213609   -1.627000    0.359018
     78          1           0       -7.676302   -1.664618   -2.130671
     79          1           0       -6.399298   -0.623129   -2.791300
     80          1           0       -5.975771   -2.017051   -1.787406
     81          1           0       -8.020276    1.405521   -0.040648
     82          1           0       -7.643282    1.380095   -1.775491
     83          1           0       -8.838015    0.259350   -1.109974
     84          1           0       -6.030002    2.376283   -0.525198
     85          1           0       -3.824727    3.337917   -0.065289
     86          1           0        0.833239   -0.606127   -1.222114
     87          1           0        2.509212   -0.352019   -0.757046
     88          1           0        2.248962   -0.334566   -3.217532
     89          1           0        0.265412   -1.835425   -3.391053
     90          1           0        1.568765   -2.433365   -4.422959
     91          1           0        0.564257   -4.299919   -3.078384
     92          1           0        2.692202   -5.168793   -2.083131
     93          1           0        2.997411   -4.418461   -3.651206
     94          1           0        4.683988   -3.661456   -1.961526
     95          1           0        3.996857   -2.058100   -3.769355
     96          1           0        4.395040   -1.198077   -2.278460
     97          1           0        3.315816   -3.920373    0.052290
     98          1           0        3.946713   -2.281120   -0.010880
     99          1           0       -0.181430   -2.904966   -1.140678
    100          1           0        0.744435   -4.306637   -0.623252
 ---------------------------------------------------------------------

 The electronic state is 1-A.
 Alpha  occ. eigenvalues --  -10.20498 -10.20374 -10.19756 -10.19601 -10.19507
 Alpha  occ. eigenvalues --  -10.19400 -10.19253 -10.19057 -10.18962 -10.18779
 Alpha  occ. eigenvalues --  -10.18577 -10.18411 -10.18411 -10.18316 -10.18310
 Alpha  occ. eigenvalues --  -10.18230 -10.18174 -10.18123 -10.17978 -10.17918
 Alpha  occ. eigenvalues --  -10.17918 -10.17734 -10.17670 -10.17652 -10.17617
 Alpha  occ. eigenvalues --  -10.17572 -10.17424 -10.17391 -10.17339 -10.17268
 Alpha  occ. eigenvalues --  -10.16992 -10.16957 -10.16917 -10.16876 -10.16803
 Alpha  occ. eigenvalues --  -10.16802 -10.16770 -10.16722 -10.16711 -10.16696
 Alpha  occ. eigenvalues --  -10.16666 -10.16615 -10.16324 -10.16081  -0.87897
 Alpha  occ. eigenvalues --   -0.86365  -0.85169  -0.84638  -0.83128  -0.81906
 Alpha  occ. eigenvalues --   -0.79827  -0.78362  -0.77111  -0.76388  -0.75782
 Alpha  occ. eigenvalues --   -0.75460  -0.74970  -0.74671  -0.74132  -0.72341
 Alpha  occ. eigenvalues --   -0.70802  -0.69439  -0.68184  -0.67893  -0.67622
 Alpha  occ. eigenvalues --   -0.67567  -0.66849  -0.66136  -0.65772  -0.65516
 Alpha  occ. eigenvalues --   -0.63131  -0.62004  -0.61276  -0.60551  -0.57656
 Alpha  occ. eigenvalues --   -0.57515  -0.57377  -0.57294  -0.57090  -0.56377
 Alpha  occ. eigenvalues --   -0.54379  -0.53058  -0.51639  -0.51470  -0.51291
 Alpha  occ. eigenvalues --   -0.50317  -0.48628  -0.48020  -0.47638  -0.46943
 Alpha  occ. eigenvalues --   -0.46111  -0.45271  -0.44515  -0.44469  -0.44356
 Alpha  occ. eigenvalues --   -0.44146  -0.44012  -0.43608  -0.43570  -0.43195
 Alpha  occ. eigenvalues --   -0.43040  -0.42780  -0.42512  -0.42031  -0.41491
 Alpha  occ. eigenvalues --   -0.41246  -0.41023  -0.40570  -0.40429  -0.40210
 Alpha  occ. eigenvalues --   -0.40008  -0.39608  -0.39278  -0.39206  -0.38953
 Alpha  occ. eigenvalues --   -0.38832  -0.38471  -0.38324  -0.38106  -0.38030
 Alpha  occ. eigenvalues --   -0.37569  -0.37436  -0.37304  -0.37051  -0.36824
 Alpha  occ. eigenvalues --   -0.36376  -0.36291  -0.35837  -0.35695  -0.35349
 Alpha  occ. eigenvalues --   -0.34623  -0.34453  -0.33582  -0.33472  -0.33268
 Alpha  occ. eigenvalues --   -0.32976  -0.32750  -0.32657  -0.32311  -0.32000
 Alpha  occ. eigenvalues --   -0.31806  -0.31620  -0.31490  -0.31368  -0.31322
 Alpha  occ. eigenvalues --   -0.31175  -0.30994  -0.30842  -0.30334  -0.29268
 Alpha  occ. eigenvalues --   -0.28148  -0.27698  -0.27475  -0.26793  -0.25918
 Alpha  occ. eigenvalues --   -0.25098  -0.23451  -0.20025  -0.19700  -0.17663
 Alpha virt. eigenvalues --   -0.06338  -0.01405  -0.00404   0.01586   0.03422
 Alpha virt. eigenvalues --    0.05604   0.06288   0.07499   0.08073   0.08956
 Alpha virt. eigenvalues --    0.09678   0.10024   0.10990   0.11279   0.11508

 Mulliken charges:
               1
     1  C   -0.542009
     2  C    0.138910
     3  C   -0.187788
     4  C   -0.179872
     5  C   -0.445639
     6  C   -0.065487
     7  C    0.000431
     8  C   -0.007161
     9  C    0.044290
    10  C   -0.458711
    11  C   -0.461429
    12  C   -0.449907
    13  C    0.006802
    14  C    0.121297
    15  C   -0.326629
    16  C   -0.261366
    17  C   -0.260227
    18  C   -0.262131
    19  C   -0.340022
    20  C   -0.264152
    21  C    0.075976
    22  C    0.096110
    23  C   -0.274178
    24  C    0.109958
    25  C   -0.275795
    26  C    0.180551
    27  C    0.020023
    28  C   -0.437641
    29  C   -0.437809
    30  C   -0.456742
    31  C   -0.214765
    32  C   -0.195680
    33  C    0.087699
    34  C    0.095076
    35  C    0.023915
    36  C   -0.301461
    37  C   -0.094856
    38  C   -0.264182
    39  C   -0.087829
    40  C   -0.264817
    41  C   -0.088108
    42  C   -0.260944
    43  C   -0.290922
    44  C   -0.289864
    45  H    0.159932
    46  H    0.164010
    47  H    0.152194
    48  H    0.115153
    49  H    0.158549
    50  H    0.157940
    51  H    0.137745
    52  H    0.159364
    53  H    0.136812
    54  H    0.147421
    55  H    0.144829
    56  H    0.170032
    57  H    0.132059
    58  H    0.143096
    59  H    0.146132
    60  H    0.135162
    61  H    0.160374
    62  H    0.146729
    63  H    0.149752
    64  H    0.136223
    65  H    0.135030
    66  H    0.134980
    67  H    0.129761
    68  H    0.133962
    69  H    0.142458
    70  H    0.161338
    71  H    0.155685
    72  H    0.137794
    73  H    0.139665
    74  H    0.119433
    75  H    0.142838
    76  H    0.146288
    77  H    0.134901
    78  H    0.134960
    79  H    0.145938
    80  H    0.142843
    81  H    0.144460
    82  H    0.144147
    83  H    0.138296
    84  H    0.118939
    85  H    0.119393
    86  H    0.148970
    87  H    0.135931
    88  H    0.110862
    89  H    0.129852
    90  H    0.121037
    91  H    0.113277
    92  H    0.121696
    93  H    0.123961
    94  H    0.112040
    95  H    0.121266
    96  H    0.119918
    97  H    0.133860
    98  H    0.129418
    99  H    0.138079
   100  H    0.130302
 Sum of Mulliken charges =  -0.00000

 Dipole moment (field-independent basis, Debye):
    X=              1.4363    Y=              1.1405    Z=             -0.4635  Tot=              1.8917
 Quadrupole moment (field-independent basis, Debye-Ang):
   XX=           -263.6641   YY=           -253.6254   ZZ=           -266.6657
   XY=              3.2621   XZ=              0.7407   YZ=             -3.7820

 Normal termination of Gaussian 16 at Sat Nov  5 00:44:33 2022.
