 Gaussian 16, Revision B.01,
 Gaussian 16:  ES64L-G16RevB.01 20-Dec-2017

 -----------------------------
 #p b3lyp/6-31g(d) opt SCF=XQC
 -----------------------------

 ------------------------------
 Gaussian input prepared by ASE
 ------------------------------
 Symbolic Z-matrix:
 Charge =  0 Multiplicity = 1

 SCF Done:  E(RB3LYP) =  -890.870102725     A.U. after   14 cycles
 SCF Done:  E(RB3LYP) =  -890.875887234     A.U. after   12 cycles
 SCF Done:  E(RB3LYP) =  -890.875755004     A.U. after   12 cycles
 SCF Done:  E(RB3LYP) =  -890.876197719     A.U. after   12 cycles
 SCF Done:  E(RB3LYP) =  -890.876748099     A.U. after   11 cycles
 SCF Done:  E(RB3LYP) =  -890.876759215     A.U. after   11 cycles
 SCF Done:  E(RB3LYP) =  -890.876962032     A.U. after   11 cycles
 SCF Done:  E(RB3LYP) =  -890.877036425     A.U. after   10 cycles
 SCF Done:  E(RB3LYP) =  -890.877047972     A.U. after    9 cycles
 SCF Done:  E(RB3LYP) =  -890.877048889     A.U. after    8 cycles
 SCF Done:  E(RB3LYP) =  -890.877049656     A.U. after    7 cycles
 SCF Done:  E(RB3LYP) =  -890.877049835     A.U. after    8 cycles
 Optimization completed.
    -- Stationary point found.

                         Standard orientation:
 ---------------------------------------------------------------------
 Center     Atomic      Atomic             Coordinates (Angstroms)
 Number     Number       Type             X           Y           Z
 ---------------------------------------------------------------------
      1          6           0       -3.475486    2.248994   -0.786910
      2          6           0       -3.150480    1.294573    0.331380
      3          6           0       -3.623682    1.449162    1.587388
      4          6           0       -3.270210    0.300798    2.417018
      5          6           0       -2.580681   -0.579860    1.671881
      6          6           0       -2.370990   -0.045050    0.253521
      7          6           0       -0.839856    0.175024    0.103604
      8          6           0       -0.289765    1.405828   -0.298673
      9          6           0        1.087793    1.608939   -0.410834
     10          6           0        1.959587    0.565150   -0.110960
     11          6           0        1.433798   -0.669549    0.316434
     12          6           0        0.064464   -0.859249    0.431103
     13          6           0        2.562797   -1.639130    0.611273
     14          6           0        3.798533   -0.818749    0.294309
     15          6           0        5.140210   -1.174314    0.370294
     16          6           0        6.114416   -0.231709    0.021454
     17          6           0        5.744645    1.050932   -0.398019
     18          6           0        4.398499    1.413894   -0.476242
     19          6           0        3.424910    0.474665   -0.128746
     20          6           0       -2.979318   -1.031934   -0.859096
     21          6           0       -2.444979   -2.475762   -0.719574
     22          6           0       -2.622472   -0.563185   -2.285303
     23          6           0       -4.514394   -1.099804   -0.702620
     24          1           0       -2.640252    2.444374   -1.465950
     25          1           0       -4.296538    1.875483   -1.414265
     26          1           0       -3.803488    3.208628   -0.371498
     27          1           0       -4.208330    2.298365    1.930181
     28          1           0       -3.519895    0.195970    3.467983
     29          1           0       -2.151570   -1.508162    2.025726
     30          1           0       -0.939711    2.242272   -0.512505
     31          1           0        1.462883    2.580490   -0.723191
     32          1           0       -0.303226   -1.812297    0.793780
     33          1           0        2.501304   -2.545419   -0.007396
     34          1           0        2.551882   -1.977565    1.656939
     35          1           0        5.434382   -2.169615    0.695782
     36          1           0        7.166491   -0.498369    0.076819
     37          1           0        6.512796    1.771753   -0.665668
     38          1           0        4.117611    2.411910   -0.803180
     39          1           0       -2.636323   -2.897970    0.272523
     40          1           0       -2.956058   -3.115545   -1.448856
     41          1           0       -1.374387   -2.544114   -0.928947
     42          1           0       -3.049341    0.411269   -2.532287
     43          1           0       -3.013656   -1.282628   -3.015216
     44          1           0       -1.538312   -0.502899   -2.425730
     45          1           0       -4.999699   -0.142955   -0.912498
     46          1           0       -4.793985   -1.402548    0.311975
     47          1           0       -4.926607   -1.838398   -1.400616
 ---------------------------------------------------------------------

 The electronic state is 1-A.
 Alpha  occ. eigenvalues --  -10.20593 -10.20266 -10.19887 -10.19445 -10.19026
 Alpha  occ. eigenvalues --  -10.18883 -10.18858 -10.18665 -10.18646 -10.18641
 Alpha  occ. eigenvalues --  -10.18605 -10.18562 -10.18487 -10.18457 -10.18355
 Alpha  occ. eigenvalues --  -10.18253 -10.18168 -10.17763 -10.17480 -10.17449
 Alpha  occ. eigenvalues --  -10.16856 -10.16572 -10.16484  -0.88185  -0.86398
 Alpha  occ. eigenvalues --   -0.83489  -0.80066  -0.79207  -0.76170  -0.74765
 Alpha  occ. eigenvalues --   -0.73575  -0.72070  -0.68419  -0.67882  -0.67693
 Alpha  occ. eigenvalues --   -0.67306  -0.65843  -0.62221  -0.58012  -0.57703
 Alpha  occ. eigenvalues --   -0.56964  -0.55706  -0.52662  -0.51424  -0.50305
 Alpha  occ. eigenvalues --   -0.48815  -0.47382  -0.46891  -0.45450  -0.44287
 Alpha  occ. eigenvalues --   -0.43796  -0.43595  -0.43131  -0.43030  -0.42047
 Alpha  occ. eigenvalues --   -0.41447  -0.40520  -0.40016  -0.39516  -0.38804
 Alpha  occ. eigenvalues --   -0.38427  -0.37801  -0.37199  -0.36204  -0.36045
 Alpha  occ. eigenvalues --   -0.35404  -0.35106  -0.35047  -0.34531  -0.34135
 Alpha  occ. eigenvalues --   -0.33155  -0.32832  -0.31959  -0.31009  -0.30409
 Alpha  occ. eigenvalues --   -0.28450  -0.26993  -0.24566  -0.23817  -0.20920
 Alpha  occ. eigenvalues --   -0.20140
 Alpha virt. eigenvalues --   -0.02943  -0.01149  -0.00563   0.01360   0.04449
 Alpha virt. eigenvalues --    0.08289   0.09180   0.10125   0.10714   0.10889
 Alpha virt. eigenvalues --    0.12064   0.12262   0.13123   0.13520   0.14165

 Mulliken charges:
               1
     1  C   -0.532989
     2  C    0.132064
     3  C   -0.164925
     4  C   -0.119649
     5  C   -0.141924
     6  C   -0.098697
     7  C    0.160754
     8  C   -0.193124
     9  C   -0.200437
    10  C    0.091525
    11  C    0.105210
    12  C   -0.257785
    13  C   -0.419332
    14  C    0.107918
    15  C   -0.203970
    16  C   -0.129511
    17  C   -0.137980
    18  C   -0.190914
    19  C    0.085412
    20  C    0.097244
    21  C   -0.458131
    22  C   -0.460825
    23  C   -0.450095
    24  H    0.159467
    25  H    0.162386
    26  H    0.154973
    27  H    0.119174
    28  H    0.125847
    29  H    0.131107
    30  H    0.130353
    31  H    0.127066
    32  H    0.125825
    33  H    0.170340
    34  H    0.171891
    35  H    0.123893
    36  H    0.126132
    37  H    0.126949
    38  H    0.128377
    39  H    0.139355
    40  H    0.139521
    41  H    0.149962
    42  H    0.144615
    43  H    0.136730
    44  H    0.154783
    45  H    0.144902
    46  H    0.152289
    47  H    0.134224
 Sum of Mulliken charges =  -0.00000

 Dipole moment (field-independent basis, Debye):
    X=             -0.1540    Y=             -0.3720    Z=             -0.1043  Tot=              0.4159
 Quadrupole moment (field-independent basis, Debye-Ang):
   XX=           -130.4908   YY=           -127.6320   ZZ=           -137.5761
   XY=             -3.1161   XZ=              0.2754   YZ=             -4.1361

 Normal termination of Gaussian 16 at Fri Nov  4 23:06:24 2022.
