 Gaussian 16, Revision B.01,
 Gaussian 16:  ES64L-G16RevB.01 20-Dec-2017

 -------------------------------------------------------------------
 #p b3lyp/6-31g(d) 6D 10F nosymm GFInput td=(50-50,nstate=2) SCF=XQC
 -------------------------------------------------------------------

 ------------------------------
 Gaussian input prepared by ASE
 ------------------------------
 Symbolic Z-matrix:
 Charge =  0 Multiplicity = 1

                          Input orientation:
 ---------------------------------------------------------------------
 Center     Atomic      Atomic             Coordinates (Angstroms)
 Number     Number       Type             X           Y           Z
 ---------------------------------------------------------------------
      1          6           0       -1.139574   -2.445986    2.891775
      2          6           0       -1.181235   -2.559695    1.390958
      3          6           0       -1.138510   -3.745294    0.744502
      4          6           0       -1.345630   -3.559303   -0.688843
      5          6           0       -1.528183   -2.251131   -0.937031
      6          6           0       -1.402305   -1.431203    0.348897
      7          6           0       -0.138596   -0.545117    0.166771
      8          6           0        0.914302   -0.530663    1.099779
      9          6           0        2.059950    0.248989    0.923331
     10          6           0        2.179418    1.040890   -0.215996
     11          6           0        1.149018    1.025575   -1.176018
     12          6           0        0.018260    0.242771   -0.994865
     13          6           0        1.507943    1.935515   -2.335689
     14          6           0        2.861696    2.482072   -1.924397
     15          6           0        3.694182    3.375528   -2.588475
     16          6           0        4.912912    3.734671   -2.001122
     17          6           0        5.289486    3.202685   -0.762962
     18          6           0        4.457431    2.304685   -0.091211
     19          6           0        3.240848    1.945224   -0.675586
     20          6           0       -2.731200   -0.581187    0.654561
     21          6           0       -3.147569    0.308397   -0.539132
     22          6           0       -2.534145    0.360154    1.861283
     23          6           0       -3.905698   -1.544856    0.932847
     24          1           0       -0.553892   -1.598769    3.260672
     25          1           0       -2.145277   -2.329338    3.318583
     26          1           0       -0.715744   -3.360921    3.321092
     27          1           0       -0.994577   -4.709194    1.224758
     28          1           0       -1.337495   -4.357367   -1.424292
     29          1           0       -1.664827   -1.805969   -1.913886
     30          1           0        0.862338   -1.154697    1.980502
     31          1           0        2.847173    0.222623    1.672835
     32          1           0       -0.739783    0.231198   -1.769635
     33          1           0        0.767696    2.735350   -2.477780
     34          1           0        1.558170    1.388386   -3.287636
     35          1           0        3.407498    3.792547   -3.551288
     36          1           0        5.571893    4.432428   -2.510941
     37          1           0        6.238943    3.491360   -0.319710
     38          1           0        4.755523    1.895078    0.870655
     39          1           0       -3.298397   -0.268615   -1.457520
     40          1           0       -4.100240    0.797063   -0.302492
     41          1           0       -2.422233    1.101340   -0.738643
     42          1           0       -2.341747   -0.176592    2.792769
     43          1           0       -3.442771    0.955928    2.012434
     44          1           0       -1.704733    1.054980    1.693811
     45          1           0       -3.759205   -2.132094    1.843243
     46          1           0       -4.047259   -2.243766    0.101755
     47          1           0       -4.833856   -0.973680    1.054997
 ---------------------------------------------------------------------

 SCF Done:  E(RB3LYP) =  -890.877044572     A.U. after   14 cycles

 Excitation energies and oscillator strengths:

 Excited state symmetry could not be determined.
 Excited State   1:      Triplet-?Sym    2.5318 eV  489.71 nm  f=0.0000  <S**2>=2.000
      80 -> 82         0.14135
      80 -> 83         0.23395
      80 -> 84         0.11155
      81 -> 82         0.35536
      81 -> 83         0.48529
      81 -> 84         0.21407
 This state for optimization and/or second-order correction.
 Total Energy, E(TD-HF/TD-DFT) =  -890.784002360
 Copying the excited state density for this state as the 1-particle RhoCI density.

 Excited state symmetry could not be determined.
 Excited State   2:      Triplet-?Sym    3.0351 eV  408.51 nm  f=0.0000  <S**2>=2.000
      77 -> 86         0.13757
      78 -> 83        -0.10353
      78 -> 84         0.14547
      79 -> 85         0.16486
      80 -> 82         0.51653
      80 -> 84        -0.14572
      81 -> 82        -0.31351
      81 -> 83         0.13281

 Excited state symmetry could not be determined.
 Excited State   3:      Singlet-?Sym    4.1282 eV  300.34 nm  f=0.0663  <S**2>=0.000
      80 -> 82         0.17191
      81 -> 82         0.67774

 Excited state symmetry could not be determined.
 Excited State   4:      Singlet-?Sym    4.4433 eV  279.04 nm  f=0.4269  <S**2>=0.000
      80 -> 82         0.63493
      80 -> 83         0.10830
      81 -> 82        -0.16072
      81 -> 83        -0.11221
      81 -> 84        -0.14961

 Alpha  occ. eigenvalues --  -10.20593 -10.20266 -10.19887 -10.19445 -10.19026
 Alpha  occ. eigenvalues --  -10.18883 -10.18858 -10.18665 -10.18646 -10.18640
 Alpha  occ. eigenvalues --  -10.18605 -10.18562 -10.18487 -10.18457 -10.18355
 Alpha  occ. eigenvalues --  -10.18253 -10.18168 -10.17762 -10.17480 -10.17449
 Alpha  occ. eigenvalues --  -10.16856 -10.16572 -10.16484  -0.88185  -0.86398
 Alpha  occ. eigenvalues --   -0.83489  -0.80066  -0.79207  -0.76170  -0.74765
 Alpha  occ. eigenvalues --   -0.73575  -0.72070  -0.68419  -0.67882  -0.67693
 Alpha  occ. eigenvalues --   -0.67306  -0.65843  -0.62221  -0.58012  -0.57703
 Alpha  occ. eigenvalues --   -0.56964  -0.55706  -0.52662  -0.51423  -0.50305
 Alpha  occ. eigenvalues --   -0.48815  -0.47382  -0.46891  -0.45450  -0.44287
 Alpha  occ. eigenvalues --   -0.43796  -0.43595  -0.43131  -0.43030  -0.42047
 Alpha  occ. eigenvalues --   -0.41447  -0.40520  -0.40016  -0.39516  -0.38804
 Alpha  occ. eigenvalues --   -0.38427  -0.37801  -0.37199  -0.36204  -0.36045
 Alpha  occ. eigenvalues --   -0.35404  -0.35106  -0.35047  -0.34531  -0.34135
 Alpha  occ. eigenvalues --   -0.33155  -0.32832  -0.31959  -0.31009  -0.30409
 Alpha  occ. eigenvalues --   -0.28450  -0.26993  -0.24566  -0.23817  -0.20920
 Alpha  occ. eigenvalues --   -0.20140
 Alpha virt. eigenvalues --   -0.02943  -0.01149  -0.00563   0.01360   0.04449
 Alpha virt. eigenvalues --    0.08289   0.09180   0.10125   0.10714   0.10889
 Alpha virt. eigenvalues --    0.12064   0.12262   0.13123   0.13520   0.14165

 Mulliken charges:
               1
     1  C   -0.532994
     2  C    0.132054
     3  C   -0.164922
     4  C   -0.119643
     5  C   -0.141933
     6  C   -0.098697
     7  C    0.160735
     8  C   -0.193122
     9  C   -0.200449
    10  C    0.091534
    11  C    0.105205
    12  C   -0.257761
    13  C   -0.419337
    14  C    0.107918
    15  C   -0.203977
    16  C   -0.129505
    17  C   -0.137972
    18  C   -0.190945
    19  C    0.085441
    20  C    0.097309
    21  C   -0.458143
    22  C   -0.460825
    23  C   -0.450129
    24  H    0.159469
    25  H    0.162387
    26  H    0.154974
    27  H    0.119175
    28  H    0.125847
    29  H    0.131105
    30  H    0.130353
    31  H    0.127067
    32  H    0.125821
    33  H    0.170339
    34  H    0.171890
    35  H    0.123894
    36  H    0.126130
    37  H    0.126949
    38  H    0.128378
    39  H    0.139356
    40  H    0.139521
    41  H    0.149962
    42  H    0.144612
    43  H    0.136724
    44  H    0.154778
    45  H    0.144907
    46  H    0.152292
    47  H    0.134228
 Sum of Mulliken charges =  -0.00000

 Dipole moment (field-independent basis, Debye):
    X=             -0.3650    Y=              0.1536    Z=             -0.1270  Tot=              0.4158
 Quadrupole moment (field-independent basis, Debye-Ang):
   XX=           -134.1427   YY=           -134.1061   ZZ=           -127.6658
   XY=              2.4634   XZ=              2.1933   YZ=             -5.4167

 Normal termination of Gaussian 16 at Sat Nov  5 09:52:27 2022.
