 Gaussian 16, Revision B.01,
 Gaussian 16:  ES64L-G16RevB.01 20-Dec-2017

 -------------------------------------------------------------------
 #p b3lyp/6-31g(d) 6D 10F nosymm GFInput td=(50-50,nstate=2) SCF=XQC
 -------------------------------------------------------------------

 ------------------------------
 Gaussian input prepared by ASE
 ------------------------------
 Symbolic Z-matrix:
 Charge =  0 Multiplicity = 1

                          Input orientation:
 ---------------------------------------------------------------------
 Center     Atomic      Atomic             Coordinates (Angstroms)
 Number     Number       Type             X           Y           Z
 ---------------------------------------------------------------------
      1          8           0        4.532949    0.690520   -1.305077
      2         16           0        3.934993    2.129844   -2.002033
      3          8           0        4.217406    3.261891   -1.069985
      4          6           0        2.216842    1.646757   -1.718144
      5          7           0        1.266996    2.119980   -2.463259
      6          6           0        0.080188    1.571715   -1.932438
      7          6           0       -1.208245    1.781126   -2.408906
      8          6           0       -2.265803    1.145603   -1.757313
      9          6           0       -2.053082    0.304362   -0.647343
     10          6           0       -3.197572   -0.363037    0.024290
     11          6           0       -4.270360   -0.881800   -0.721090
     12          6           0       -5.344235   -1.508666   -0.091058
     13          6           0       -5.369792   -1.632675    1.299336
     14          6           0       -4.311685   -1.122479    2.053654
     15          6           0       -3.238684   -0.494357    1.423119
     16          6           0       -0.739374    0.098470   -0.180912
     17          6           0        0.328685    0.729001   -0.815228
     18          6           0        1.785071    0.760426   -0.634873
     19          6           0        2.670618    0.156813    0.221159
     20          6           0        4.146916    0.513031    0.075470
     21          6           0        5.101716   -0.448844    0.712363
     22          6           0        4.681682   -1.342350    1.625304
     23          6           0        3.269661   -1.463203    1.941274
     24          6           0        2.316227   -0.760757    1.270448
     25          1           0       -1.376833    2.432764   -3.260480
     26          1           0       -3.282233    1.321758   -2.096379
     27          1           0       -4.247870   -0.815362   -1.805283
     28          1           0       -6.158634   -1.909155   -0.689065
     29          1           0       -6.206845   -2.121432    1.790360
     30          1           0       -4.325910   -1.203609    3.137435
     31          1           0       -2.435823   -0.073287    2.022269
     32          1           0       -0.586670   -0.579201    0.651978
     33          1           0        4.294558    1.488019    0.579076
     34          1           0        6.147715   -0.332056    0.446197
     35          1           0        5.388888   -1.992843    2.131531
     36          1           0        2.969648   -2.173035    2.707416
     37          1           0        1.268894   -0.933931    1.486185
 ---------------------------------------------------------------------

 SCF Done:  E(RB3LYP) =  -1373.24723649     A.U. after   17 cycles

 Excitation energies and oscillator strengths:

 Excited state symmetry could not be determined.
 Excited State   1:      Triplet-?Sym    1.3602 eV  911.54 nm  f=0.0000  <S**2>=2.000
      85 -> 87         0.57741
      86 -> 87        -0.38645
      85 <- 87         0.12888
 This state for optimization and/or second-order correction.
 Total Energy, E(TD-HF/TD-DFT) =  -1373.19725127
 Copying the excited state density for this state as the 1-particle RhoCI density.

 Excited state symmetry could not be determined.
 Excited State   2:      Triplet-?Sym    1.9674 eV  630.20 nm  f=0.0000  <S**2>=2.000
      82 -> 87         0.15014
      85 -> 87         0.37672
      86 -> 87         0.54738
      86 -> 88        -0.13398

 Excited state symmetry could not be determined.
 Excited State   3:      Singlet-?Sym    2.3909 eV  518.57 nm  f=0.0360  <S**2>=0.000
      85 -> 87         0.35046
      86 -> 87         0.60720

 Excited state symmetry could not be determined.
 Excited State   4:      Singlet-?Sym    2.7704 eV  447.53 nm  f=0.2891  <S**2>=0.000
      84 -> 87         0.24517
      85 -> 87         0.55999
      86 -> 87        -0.34078

 Alpha  occ. eigenvalues --  -89.03447 -19.19235 -19.13969 -14.34457 -10.27588
 Alpha  occ. eigenvalues --  -10.24656 -10.24334 -10.23130 -10.22358 -10.22222
 Alpha  occ. eigenvalues --  -10.22144 -10.21953 -10.21896 -10.20803 -10.20680
 Alpha  occ. eigenvalues --  -10.20501 -10.20463 -10.19824 -10.19768 -10.19547
 Alpha  occ. eigenvalues --  -10.19504 -10.19467 -10.19426 -10.19398  -8.07565
 Alpha  occ. eigenvalues --   -6.04124  -6.03841  -6.03271  -1.08179  -1.01050
 Alpha  occ. eigenvalues --   -0.97007  -0.87765  -0.86940  -0.84516  -0.81631
 Alpha  occ. eigenvalues --   -0.78194  -0.77488  -0.76293  -0.74898  -0.74199
 Alpha  occ. eigenvalues --   -0.72060  -0.67981  -0.64750  -0.63773  -0.62310
 Alpha  occ. eigenvalues --   -0.61115  -0.59399  -0.57451  -0.55772  -0.54254
 Alpha  occ. eigenvalues --   -0.52745  -0.52619  -0.50519  -0.50028  -0.48156
 Alpha  occ. eigenvalues --   -0.47140  -0.46402  -0.45931  -0.45304  -0.44560
 Alpha  occ. eigenvalues --   -0.43603  -0.43176  -0.43087  -0.42581  -0.41993
 Alpha  occ. eigenvalues --   -0.41902  -0.39491  -0.38768  -0.38297  -0.37486
 Alpha  occ. eigenvalues --   -0.36960  -0.35998  -0.35147  -0.34635  -0.34451
 Alpha  occ. eigenvalues --   -0.33916  -0.32634  -0.30775  -0.30457  -0.28871
 Alpha  occ. eigenvalues --   -0.27001  -0.26595  -0.25500  -0.25237  -0.22489
 Alpha  occ. eigenvalues --   -0.22069
 Alpha virt. eigenvalues --   -0.11251  -0.04677  -0.02288  -0.01366  -0.00625
 Alpha virt. eigenvalues --   -0.00567   0.03744   0.04364   0.06531   0.07415
 Alpha virt. eigenvalues --    0.09070   0.09259   0.10433   0.11036   0.11570

 Mulliken charges:
               1
     1  O   -0.560576
     2  S    0.975149
     3  O   -0.577937
     4  C   -0.014971
     5  N   -0.491400
     6  C    0.204609
     7  C   -0.168910
     8  C   -0.190430
     9  C    0.092285
    10  C    0.085143
    11  C   -0.173413
    12  C   -0.133677
    13  C   -0.126248
    14  C   -0.133962
    15  C   -0.173314
    16  C   -0.262710
    17  C    0.139412
    18  C    0.003286
    19  C    0.087567
    20  C   -0.020506
    21  C   -0.113881
    22  C   -0.111779
    23  C   -0.138708
    24  C   -0.137056
    25  H    0.150372
    26  H    0.138785
    27  H    0.134904
    28  H    0.133117
    29  H    0.131811
    30  H    0.131550
    31  H    0.129928
    32  H    0.145553
    33  H    0.216585
    34  H    0.169781
    35  H    0.149003
    36  H    0.154863
    37  H    0.155775
 Sum of Mulliken charges =  -0.00000

 Dipole moment (field-independent basis, Debye):
    X=             -1.1732    Y=             -4.4271    Z=              3.3245  Tot=              5.6593
 Quadrupole moment (field-independent basis, Debye-Ang):
   XX=           -130.8039   YY=           -154.6685   ZZ=           -136.7892
   XY=            -12.9936   XZ=             12.3436   YZ=             -2.0865

 Normal termination of Gaussian 16 at Sat Nov  5 09:49:54 2022.
