 Gaussian 16, Revision B.01,
 Gaussian 16:  ES64L-G16RevB.01 20-Dec-2017

 -----------------------------
 #p b3lyp/6-31g(d) opt SCF=XQC
 -----------------------------

 ------------------------------
 Gaussian input prepared by ASE
 ------------------------------
 Symbolic Z-matrix:
 Charge =  0 Multiplicity = 1

 SCF Done:  E(RB3LYP) =  -1373.23933290     A.U. after   17 cycles
 SCF Done:  E(RB3LYP) =  -1373.24655871     A.U. after   13 cycles
 SCF Done:  E(RB3LYP) =  -1373.24711376     A.U. after   12 cycles
 SCF Done:  E(RB3LYP) =  -1373.24722027     A.U. after   12 cycles
 SCF Done:  E(RB3LYP) =  -1373.24723151     A.U. after    9 cycles
 SCF Done:  E(RB3LYP) =  -1373.24723447     A.U. after    9 cycles
 SCF Done:  E(RB3LYP) =  -1373.24723502     A.U. after    8 cycles
 SCF Done:  E(RB3LYP) =  -1373.24723514     A.U. after    7 cycles
 SCF Done:  E(RB3LYP) =  -1373.24723518     A.U. after    7 cycles
 Optimization completed.
    -- Stationary point found.

                         Standard orientation:
 ---------------------------------------------------------------------
 Center     Atomic      Atomic             Coordinates (Angstroms)
 Number     Number       Type             X           Y           Z
 ---------------------------------------------------------------------
      1          8           0       -4.000838   -0.064804   -0.736799
      2         16           0       -3.787045   -1.613206   -0.049998
      3          8           0       -4.198788   -1.557553    1.384356
      4          6           0       -1.986339   -1.461917   -0.074050
      5          7           0       -1.236223   -2.518779   -0.115426
      6          6           0        0.086283   -2.028552   -0.076266
      7          6           0        1.247889   -2.790381   -0.111276
      8          6           0        2.475027   -2.127499   -0.071132
      9          6           0        2.555602   -0.722552   -0.003309
     10          6           0        3.875964   -0.043109    0.033702
     11          6           0        4.949870   -0.507799   -0.744997
     12          6           0        6.188883    0.130002   -0.710862
     13          6           0        6.382622    1.248509    0.101933
     14          6           0        5.325688    1.722161    0.881311
     15          6           0        4.087214    1.083013    0.847876
     16          6           0        1.367641    0.034875    0.025539
     17          6           0        0.133092   -0.609667   -0.008090
     18          6           0       -1.272054   -0.185330    0.000835
     19          6           0       -1.921325    1.022702    0.021800
     20          6           0       -3.446312    1.003354    0.061934
     21          6           0       -4.111828    2.284418   -0.336114
     22          6           0       -3.425048    3.439745   -0.378453
     23          6           0       -1.993500    3.454150   -0.136153
     24          6           0       -1.279414    2.309556    0.044009
     25          1           0        1.190030   -3.873288   -0.158120
     26          1           0        3.392945   -2.707613   -0.066553
     27          1           0        4.802534   -1.360576   -1.401852
     28          1           0        7.002188   -0.242809   -1.327947
     29          1           0        7.348415    1.745689    0.128396
     30          1           0        5.467962    2.585535    1.526067
     31          1           0        3.281019    1.441413    1.482276
     32          1           0        1.444389    1.116586    0.042036
     33          1           0       -3.738748    0.805890    1.111462
     34          1           0       -5.181213    2.232588   -0.515912
     35          1           0       -3.927182    4.375952   -0.604122
     36          1           0       -1.476457    4.409873   -0.146269
     37          1           0       -0.202325    2.358292    0.148605
 ---------------------------------------------------------------------

 The electronic state is 1-A.
 Alpha  occ. eigenvalues --  -89.03447 -19.19235 -19.13969 -14.34457 -10.27588
 Alpha  occ. eigenvalues --  -10.24656 -10.24334 -10.23130 -10.22358 -10.22222
 Alpha  occ. eigenvalues --  -10.22144 -10.21953 -10.21896 -10.20803 -10.20680
 Alpha  occ. eigenvalues --  -10.20500 -10.20463 -10.19824 -10.19768 -10.19547
 Alpha  occ. eigenvalues --  -10.19504 -10.19467 -10.19426 -10.19398  -8.07565
 Alpha  occ. eigenvalues --   -6.04124  -6.03841  -6.03271  -1.08179  -1.01050
 Alpha  occ. eigenvalues --   -0.97007  -0.87765  -0.86940  -0.84516  -0.81631
 Alpha  occ. eigenvalues --   -0.78194  -0.77488  -0.76293  -0.74898  -0.74199
 Alpha  occ. eigenvalues --   -0.72060  -0.67981  -0.64750  -0.63773  -0.62310
 Alpha  occ. eigenvalues --   -0.61115  -0.59399  -0.57451  -0.55772  -0.54254
 Alpha  occ. eigenvalues --   -0.52745  -0.52619  -0.50519  -0.50028  -0.48156
 Alpha  occ. eigenvalues --   -0.47140  -0.46402  -0.45931  -0.45304  -0.44560
 Alpha  occ. eigenvalues --   -0.43603  -0.43176  -0.43087  -0.42581  -0.41993
 Alpha  occ. eigenvalues --   -0.41902  -0.39491  -0.38768  -0.38297  -0.37486
 Alpha  occ. eigenvalues --   -0.36960  -0.35998  -0.35147  -0.34635  -0.34451
 Alpha  occ. eigenvalues --   -0.33916  -0.32634  -0.30775  -0.30457  -0.28871
 Alpha  occ. eigenvalues --   -0.27001  -0.26595  -0.25500  -0.25237  -0.22489
 Alpha  occ. eigenvalues --   -0.22069
 Alpha virt. eigenvalues --   -0.11251  -0.04677  -0.02288  -0.01366  -0.00625
 Alpha virt. eigenvalues --   -0.00567   0.03744   0.04364   0.06531   0.07415
 Alpha virt. eigenvalues --    0.09070   0.09259   0.10433   0.11036   0.11570

 Mulliken charges:
               1
     1  O   -0.560575
     2  S    0.975152
     3  O   -0.577938
     4  C   -0.014970
     5  N   -0.491399
     6  C    0.204600
     7  C   -0.168907
     8  C   -0.190428
     9  C    0.092277
    10  C    0.085146
    11  C   -0.173415
    12  C   -0.133673
    13  C   -0.126251
    14  C   -0.133961
    15  C   -0.173311
    16  C   -0.262713
    17  C    0.139426
    18  C    0.003260
    19  C    0.087607
    20  C   -0.020512
    21  C   -0.113885
    22  C   -0.111775
    23  C   -0.138713
    24  C   -0.137066
    25  H    0.150371
    26  H    0.138784
    27  H    0.134904
    28  H    0.133117
    29  H    0.131811
    30  H    0.131550
    31  H    0.129927
    32  H    0.145553
    33  H    0.216584
    34  H    0.169781
    35  H    0.149004
    36  H    0.154863
    37  H    0.155773
 Sum of Mulliken charges =  -0.00000

 Dipole moment (field-independent basis, Debye):
    X=              2.3956    Y=              5.0140    Z=             -1.0716  Tot=              5.6593
 Quadrupole moment (field-independent basis, Debye-Ang):
   XX=           -136.1801   YY=           -130.2513   ZZ=           -148.6424
   XY=            -14.7819   XZ=              4.0595   YZ=              5.5936

 Normal termination of Gaussian 16 at Fri Nov  4 23:01:10 2022.
