 Gaussian 16, Revision B.01,
 Gaussian 16:  ES64L-G16RevB.01 20-Dec-2017

 -------------------------------------------------------------------
 #p b3lyp/6-31g(d) 6D 10F nosymm GFInput td=(50-50,nstate=2) SCF=XQC
 -------------------------------------------------------------------

 ------------------------------
 Gaussian input prepared by ASE
 ------------------------------
 Symbolic Z-matrix:
 Charge =  0 Multiplicity = 1

                          Input orientation:
 ---------------------------------------------------------------------
 Center     Atomic      Atomic             Coordinates (Angstroms)
 Number     Number       Type             X           Y           Z
 ---------------------------------------------------------------------
      1          6           0        6.240008    0.946507    3.116739
      2          6           0        6.823270   -0.240380    2.393906
      3          6           0        7.259947   -1.354771    3.074264
      4          6           0        7.833097   -2.477572    2.418466
      5          6           0        8.290169   -3.621659    3.122620
      6          6           0        8.851732   -4.686336    2.451922
      7          6           0        8.982276   -4.650246    1.042284
      8          6           0        8.549015   -3.553163    0.330873
      9          6           0        7.961873   -2.441894    0.993866
     10          6           0        7.494679   -1.299408    0.296091
     11          6           0        6.927231   -0.223033    0.960133
     12          7           0        6.584875    0.959226    0.292587
     13          6           0        5.721617    1.065628   -0.653707
     14          6           0        4.811350   -0.071710   -1.114830
     15          6           0        3.327048    0.152621   -0.866313
     16          6           0        2.377597   -0.298185   -1.792873
     17          6           0        1.013124   -0.151636   -1.557939
     18          6           0        0.540293    0.452846   -0.380972
     19          6           0       -0.912400    0.605408   -0.123080
     20          6           0       -1.410135    1.755853    0.569697
     21          6           0       -2.743629    1.905373    0.829963
     22          6           0       -3.705082    0.924711    0.422761
     23          6           0       -5.081457    1.065909    0.698286
     24          6           0       -5.569480    2.254929    1.466669
     25          6           0       -5.427114    2.296133    2.883910
     26          6           0       -5.867390    3.378835    3.609340
     27          6           0       -6.476375    4.490888    2.968681
     28          6           0       -6.941481    5.625524    3.686046
     29          6           0       -7.525424    6.684479    3.028024
     30          6           0       -7.671403    6.657157    1.618800
     31          6           0       -7.231267    5.571836    0.895296
     32          6           0       -6.624517    4.462247    1.544042
     33          6           0       -6.160098    3.327949    0.825931
     34          6           0       -5.992972    0.078944    0.259965
     35          6           0       -7.395855    0.170858    0.535633
     36          6           0       -8.275292   -0.781758    0.094412
     37          6           0       -7.808699   -1.894557   -0.658084
     38          6           0       -6.474499   -2.031013   -0.934376
     39          6           0       -5.514234   -1.067783   -0.482398
     40          6           0       -4.134843   -1.210874   -0.749948
     41          6           0       -3.636640   -2.390902   -1.525606
     42          6           0       -3.338591   -2.256584   -2.912777
     43          6           0       -2.878993   -3.325936   -3.645995
     44          6           0       -2.684955   -4.597716   -3.043364
     45          6           0       -2.211455   -5.723132   -3.769594
     46          6           0       -2.035307   -6.939170   -3.148589
     47          6           0       -2.325344   -7.085693   -1.769387
     48          6           0       -2.786354   -6.014169   -1.038331
     49          6           0       -2.979572   -4.745529   -1.649222
     50          6           0       -3.454109   -3.620916   -0.922233
     51          6           0       -3.223107   -0.228144   -0.302447
     52          6           0       -1.817789   -0.347899   -0.536577
     53          6           0        1.495795    0.906800    0.543882
     54          6           0        2.859998    0.757058    0.307124
     55          6           0        5.607450    2.394916   -1.326368
     56          6           0        6.391659    3.472326   -0.874691
     57          6           0        6.326987    4.712907   -1.499205
     58          6           0        5.479934    4.906526   -2.594870
     59          6           0        4.698912    3.847368   -3.055449
     60          6           0        4.760248    2.603146   -2.426819
     61          1           0        6.733244    1.874855    2.806993
     62          1           0        6.346193    0.835757    4.200269
     63          1           0        5.171808    1.072494    2.897044
     64          1           0        7.175235   -1.379374    4.159182
     65          1           0        8.189829   -3.643895    4.205544
     66          1           0        9.197804   -5.556911    3.002535
     67          1           0        9.428162   -5.493989    0.522204
     68          1           0        8.649461   -3.524188   -0.751812
     69          1           0        7.618364   -1.253104   -0.783010
     70          1           0        4.973306   -0.254433   -2.184502
     71          1           0        5.123662   -0.985381   -0.599622
     72          1           0        2.711067   -0.766801   -2.716676
     73          1           0        0.303638   -0.487966   -2.308579
     74          1           0       -0.715341    2.535311    0.868628
     75          1           0       -3.093377    2.792728    1.345977
     76          1           0       -4.964383    1.452237    3.388023
     77          1           0       -5.754126    3.394205    4.690984
     78          1           0       -6.827781    5.643364    4.767552
     79          1           0       -7.877106    7.546966    3.587717
     80          1           0       -8.133642    7.499132    1.110600
     81          1           0       -7.342199    5.548459   -0.186304
     82          1           0       -6.274066    3.311820   -0.255527
     83          1           0       -7.756598    1.018626    1.107135
     84          1           0       -9.334682   -0.688180    0.317839
     85          1           0       -8.515703   -2.639771   -1.012813
     86          1           0       -6.123556   -2.882746   -1.506075
     87          1           0       -3.484757   -1.290414   -3.387880
     88          1           0       -2.659908   -3.208675   -4.704962
     89          1           0       -1.989701   -5.607264   -4.828062
     90          1           0       -1.672212   -7.792748   -3.714612
     91          1           0       -2.181540   -8.050283   -1.290129
     92          1           0       -3.009357   -6.124031    0.020362
     93          1           0       -3.674982   -3.738505    0.136125
     94          1           0       -1.458787   -1.242010   -1.033129
     95          1           0        1.167693    1.360506    1.474860
     96          1           0        3.570379    1.116339    1.047076
     97          1           0        7.051254    3.309635   -0.029657
     98          1           0        6.939875    5.532585   -1.133414
     99          1           0        5.430319    5.875853   -3.083885
    100          1           0        4.035783    3.986427   -3.904993
    101          1           0        4.132409    1.800234   -2.795499
 ---------------------------------------------------------------------

 SCF Done:  E(RB3LYP) =  -2327.80317293     A.U. after   15 cycles

 Excitation energies and oscillator strengths:

 Excited state symmetry could not be determined.
 Excited State   1:      Triplet-?Sym    1.6863 eV  735.23 nm  f=0.0000  <S**2>=2.000
     201 ->202         0.68467
     201 <-202         0.13152
 This state for optimization and/or second-order correction.
 Total Energy, E(TD-HF/TD-DFT) =  -2327.74120136
 Copying the excited state density for this state as the 1-particle RhoCI density.

 Excited state symmetry could not be determined.
 Excited State   2:      Triplet-?Sym    2.5337 eV  489.35 nm  f=0.0000  <S**2>=2.000
     197 ->206         0.18770
     200 ->203         0.53788
     200 ->206        -0.32398

 Excited state symmetry could not be determined.
 Excited State   3:      Singlet-?Sym    3.0061 eV  412.45 nm  f=0.1796  <S**2>=0.000
     201 ->202         0.70008

 Excited state symmetry could not be determined.
 Excited State   4:      Singlet-?Sym    3.2638 eV  379.88 nm  f=0.0913  <S**2>=0.000
     197 ->203         0.11201
     200 ->202        -0.17663
     200 ->203         0.56313
     201 ->203         0.33172

 Alpha  occ. eigenvalues --  -14.33115 -10.24834 -10.21924 -10.20161 -10.20013
 Alpha  occ. eigenvalues --  -10.20010 -10.19931 -10.19914 -10.19910 -10.19906
 Alpha  occ. eigenvalues --  -10.19867 -10.19866 -10.19858 -10.19846 -10.19840
 Alpha  occ. eigenvalues --  -10.19823 -10.19806 -10.19790 -10.19767 -10.19736
 Alpha  occ. eigenvalues --  -10.19345 -10.19322 -10.19318 -10.19281 -10.19277
 Alpha  occ. eigenvalues --  -10.19264 -10.19260 -10.19229 -10.19227 -10.19217
 Alpha  occ. eigenvalues --  -10.19189 -10.19177 -10.19175 -10.19153 -10.19138
 Alpha  occ. eigenvalues --  -10.19138 -10.19137 -10.19093 -10.19082 -10.19004
 Alpha  occ. eigenvalues --  -10.18987 -10.18957 -10.18927 -10.18842 -10.18842
 Alpha  occ. eigenvalues --  -10.18774 -10.18734 -10.18690 -10.18688 -10.18620
 Alpha  occ. eigenvalues --  -10.18475 -10.18462 -10.18457 -10.18412 -10.18365
 Alpha  occ. eigenvalues --  -10.18318 -10.18276 -10.18252 -10.18235 -10.17783
 Alpha  occ. eigenvalues --   -0.93778  -0.88674  -0.87481  -0.87009  -0.86587
 Alpha  occ. eigenvalues --   -0.86159  -0.85198  -0.84377  -0.83237  -0.82367
 Alpha  occ. eigenvalues --   -0.81694  -0.80432  -0.78999  -0.78274  -0.77241
 Alpha  occ. eigenvalues --   -0.76986  -0.76864  -0.76048  -0.74837  -0.74619
 Alpha  occ. eigenvalues --   -0.74377  -0.74295  -0.74208  -0.73601  -0.73528
 Alpha  occ. eigenvalues --   -0.72089  -0.72025  -0.71476  -0.70081  -0.68685
 Alpha  occ. eigenvalues --   -0.67820  -0.64981  -0.64214  -0.63115  -0.62356
 Alpha  occ. eigenvalues --   -0.61900  -0.61750  -0.60957  -0.60614  -0.60530
 Alpha  occ. eigenvalues --   -0.60025  -0.59644  -0.59623  -0.59076  -0.58920
 Alpha  occ. eigenvalues --   -0.58698  -0.57783  -0.56818  -0.55202  -0.53704
 Alpha  occ. eigenvalues --   -0.52584  -0.51874  -0.51415  -0.51336  -0.51296
 Alpha  occ. eigenvalues --   -0.50803  -0.50708  -0.50072  -0.49350  -0.49006
 Alpha  occ. eigenvalues --   -0.48635  -0.48174  -0.47052  -0.46655  -0.45896
 Alpha  occ. eigenvalues --   -0.45722  -0.45438  -0.45014  -0.44898  -0.44802
 Alpha  occ. eigenvalues --   -0.44668  -0.44173  -0.44117  -0.43622  -0.43603
 Alpha  occ. eigenvalues --   -0.43219  -0.42989  -0.42557  -0.42360  -0.42165
 Alpha  occ. eigenvalues --   -0.41988  -0.41913  -0.41819  -0.41587  -0.41425
 Alpha  occ. eigenvalues --   -0.41288  -0.41134  -0.41023  -0.40608  -0.40141
 Alpha  occ. eigenvalues --   -0.40045  -0.39426  -0.39278  -0.38916  -0.38764
 Alpha  occ. eigenvalues --   -0.38655  -0.38281  -0.37919  -0.37701  -0.37346
 Alpha  occ. eigenvalues --   -0.37155  -0.36939  -0.36580  -0.36151  -0.35688
 Alpha  occ. eigenvalues --   -0.35501  -0.34912  -0.34654  -0.34575  -0.34308
 Alpha  occ. eigenvalues --   -0.34054  -0.33813  -0.33636  -0.33436  -0.33277
 Alpha  occ. eigenvalues --   -0.33133  -0.32976  -0.32254  -0.32078  -0.31911
 Alpha  occ. eigenvalues --   -0.31125  -0.30623  -0.29990  -0.28905  -0.28432
 Alpha  occ. eigenvalues --   -0.28422  -0.28026  -0.26665  -0.25882  -0.25167
 Alpha  occ. eigenvalues --   -0.25041  -0.24685  -0.24242  -0.24195  -0.24143
 Alpha  occ. eigenvalues --   -0.22406  -0.21714  -0.21583  -0.21522  -0.19812
 Alpha  occ. eigenvalues --   -0.18688
 Alpha virt. eigenvalues --   -0.06394  -0.05166  -0.04057  -0.03980  -0.02654
 Alpha virt. eigenvalues --   -0.02345  -0.01173  -0.00998  -0.00385  -0.00079
 Alpha virt. eigenvalues --    0.00379   0.00554   0.01880   0.03257   0.03304

 Mulliken charges:
               1
     1  C   -0.533322
     2  C    0.170276
     3  C   -0.286548
     4  C    0.156451
     5  C   -0.195362
     6  C   -0.138501
     7  C   -0.136715
     8  C   -0.194324
     9  C    0.137943
    10  C   -0.239385
    11  C    0.213338
    12  N   -0.535663
    13  C    0.277773
    14  C   -0.434503
    15  C    0.174324
    16  C   -0.198523
    17  C   -0.169756
    18  C    0.088706
    19  C    0.105981
    20  C   -0.180019
    21  C   -0.205773
    22  C    0.107094
    23  C   -0.077108
    24  C    0.008002
    25  C   -0.153783
    26  C   -0.196437
    27  C    0.138546
    28  C   -0.192274
    29  C   -0.134464
    30  C   -0.136584
    31  C   -0.189578
    32  C    0.139751
    33  C   -0.230681
    34  C    0.104797
    35  C   -0.198902
    36  C   -0.134852
    37  C   -0.134798
    38  C   -0.198182
    39  C    0.102486
    40  C   -0.077426
    41  C    0.007278
    42  C   -0.154344
    43  C   -0.197181
    44  C    0.138988
    45  C   -0.192500
    46  C   -0.134214
    47  C   -0.136358
    48  C   -0.189085
    49  C    0.139960
    50  C   -0.229553
    51  C    0.115281
    52  C   -0.282306
    53  C   -0.177877
    54  C   -0.186851
    55  C    0.110272
    56  C   -0.158967
    57  C   -0.131574
    58  C   -0.121388
    59  C   -0.137753
    60  C   -0.179700
    61  H    0.173510
    62  H    0.150786
    63  H    0.163947
    64  H    0.122622
    65  H    0.126522
    66  H    0.126082
    67  H    0.126284
    68  H    0.125156
    69  H    0.128426
    70  H    0.158227
    71  H    0.189822
    72  H    0.124189
    73  H    0.136477
    74  H    0.133092
    75  H    0.148036
    76  H    0.138690
    77  H    0.132444
    78  H    0.130687
    79  H    0.131060
    80  H    0.131303
    81  H    0.132415
    82  H    0.137360
    83  H    0.146226
    84  H    0.129313
    85  H    0.129337
    86  H    0.146048
    87  H    0.137802
    88  H    0.131486
    89  H    0.130032
    90  H    0.131092
    91  H    0.131787
    92  H    0.133147
    93  H    0.138081
    94  H    0.151327
    95  H    0.133925
    96  H    0.144397
    97  H    0.158889
    98  H    0.132569
    99  H    0.132329
   100  H    0.132449
   101  H    0.138497
 Sum of Mulliken charges =  -0.00000

 Dipole moment (field-independent basis, Debye):
    X=             -1.5516    Y=              0.3368    Z=             -0.9323  Tot=              1.8413
 Quadrupole moment (field-independent basis, Debye-Ang):
   XX=           -348.7339   YY=           -311.8204   ZZ=           -315.4580
   XY=             -7.5551   XZ=             -6.8911   YZ=              6.6184

 Normal termination of Gaussian 16 at Sat Nov  5 11:22:30 2022.
