 Gaussian 16, Revision B.01,
 Gaussian 16:  ES64L-G16RevB.01 20-Dec-2017

 -------------------------------------------------------------------
 #p b3lyp/6-31g(d) 6D 10F nosymm GFInput td=(50-50,nstate=2) SCF=XQC
 -------------------------------------------------------------------

 ------------------------------
 Gaussian input prepared by ASE
 ------------------------------
 Symbolic Z-matrix:
 Charge =  0 Multiplicity = 1

                          Input orientation:
 ---------------------------------------------------------------------
 Center     Atomic      Atomic             Coordinates (Angstroms)
 Number     Number       Type             X           Y           Z
 ---------------------------------------------------------------------
      1          6           0       -1.703861    5.461964   -1.386620
      2          6           0       -2.408359    4.993126   -0.093608
      3          6           0       -1.662028    5.545126    1.141704
      4          6           0       -3.881080    5.402822   -0.082747
      5          6           0       -4.428973    6.680085   -0.114310
      6          6           0       -5.821337    6.827815   -0.096953
      7          6           0       -6.651954    5.703675   -0.048587
      8          6           0       -6.107416    4.417769   -0.016879
      9          6           0       -4.718534    4.270412   -0.034162
     10          6           0       -3.880388    3.065679   -0.010374
     11          6           0       -4.231367    1.718990    0.026937
     12          6           0       -3.204565    0.767858    0.041722
     13          6           0       -3.195924   -0.680526    0.057694
     14          6           0       -4.211067   -1.643592    0.092569
     15          6           0       -3.843690   -2.986060    0.122667
     16          6           0       -2.478702   -3.372960    0.127217
     17          6           0       -1.457941   -2.433778    0.093046
     18          6           0       -1.833986   -1.085157    0.047476
     19          7           0       -1.023048    0.056443    0.028322
     20          6           0        0.395830    0.064767    0.013990
     21          6           0        1.111072    0.769118    0.990863
     22          6           0        2.502547    0.781784    0.967792
     23          6           0        3.224137    0.081929   -0.014792
     24          6           0        4.707466    0.089834   -0.028105
     25          6           0        5.426316    1.253906    0.325152
     26          6           0        6.813741    1.279793    0.318138
     27          6           0        7.537477    0.134451   -0.045559
     28          6           0        6.816358   -1.027813   -0.399557
     29          6           0        5.423230   -1.059188   -0.392160
     30         16           0        7.880428   -2.376140   -0.818945
     31          6           0        9.309896   -1.376691   -0.525822
     32          6           0       10.638626   -1.783053   -0.662988
     33          6           0       11.647229   -0.862276   -0.389726
     34          6           0       11.334353    0.444942    0.014504
     35          6           0       10.009711    0.844842    0.149615
     36          6           0        8.975209   -0.064440   -0.120126
     37          6           0        2.491128   -0.625691   -0.983261
     38          6           0        1.099466   -0.630623   -0.977668
     39          6           0       -1.847493    1.188421    0.025116
     40          6           0       -1.488253    2.541360   -0.027844
     41          6           0       -2.520408    3.468555   -0.041876
     42          6           0       -2.347713   -4.896070    0.176381
     43          6           0       -1.619236   -5.439305   -1.073406
     44          6           0       -1.612449   -5.356495    1.455252
     45          6           0       -3.815429   -5.323018    0.194430
     46          6           0       -4.347474   -6.606651    0.236453
     47          6           0       -5.738066   -6.770792    0.246657
     48          6           0       -6.582696   -5.656537    0.215107
     49          6           0       -6.054114   -4.364295    0.172942
     50          6           0       -4.666988   -4.200582    0.162713
     51          1           0       -2.218106    5.081406   -2.274806
     52          1           0       -1.687223    6.556670   -1.443549
     53          1           0       -0.666513    5.108097   -1.413913
     54          1           0       -2.145329    5.223454    2.069768
     55          1           0       -0.623383    5.194012    1.156373
     56          1           0       -1.645537    6.641194    1.126844
     57          1           0       -3.790335    7.559882   -0.152207
     58          1           0       -6.258970    7.822287   -0.121186
     59          1           0       -7.731276    5.831436   -0.035455
     60          1           0       -6.759141    3.548341    0.020938
     61          1           0       -5.273167    1.408542    0.038520
     62          1           0       -5.256453   -1.345334    0.101580
     63          1           0       -0.412378   -2.725741    0.107013
     64          1           0        0.571754    1.286452    1.778178
     65          1           0        3.038785    1.310469    1.750450
     66          1           0        4.879176    2.156365    0.580307
     67          1           0        7.338123    2.193169    0.586001
     68          1           0        4.893654   -1.974464   -0.638586
     69          1           0       10.881729   -2.794374   -0.975616
     70          1           0       12.686542   -1.161923   -0.491323
     71          1           0       12.134025    1.149790    0.223401
     72          1           0        9.774399    1.858506    0.462978
     73          1           0        3.017788   -1.146503   -1.777738
     74          1           0        0.550590   -1.154031   -1.754285
     75          1           0       -0.446593    2.845341   -0.062461
     76          1           0       -1.589648   -6.535094   -1.059050
     77          1           0       -0.585237   -5.076148   -1.108238
     78          1           0       -2.124263   -5.123368   -1.991825
     79          1           0       -0.578991   -4.990476    1.462207
     80          1           0       -1.581791   -6.450925    1.511609
     81          1           0       -2.113598   -4.981973    2.353445
     82          1           0       -3.697804   -7.478787    0.261340
     83          1           0       -6.163361   -7.770365    0.279247
     84          1           0       -7.660484   -5.797040    0.223347
     85          1           0       -6.716671   -3.502603    0.148303
 ---------------------------------------------------------------------

 SCF Done:  E(RB3LYP) =  -2303.24187048     A.U. after   16 cycles

 Excitation energies and oscillator strengths:

 Excited state symmetry could not be determined.
 Excited State   1:      Triplet-?Sym    2.7933 eV  443.86 nm  f=0.0000  <S**2>=2.000
     170 ->174         0.38192
     171 ->174         0.17906
     173 ->174         0.45411
     173 ->175         0.15033
 This state for optimization and/or second-order correction.
 Total Energy, E(TD-HF/TD-DFT) =  -2303.13921867
 Copying the excited state density for this state as the 1-particle RhoCI density.

 Excited state symmetry could not be determined.
 Excited State   2:      Triplet-?Sym    2.9407 eV  421.62 nm  f=0.0000  <S**2>=2.000
     169 ->176        -0.15909
     170 ->174        -0.25103
     171 ->174        -0.11442
     172 ->176         0.23608
     173 ->175         0.50286

 Excited state symmetry could not be determined.
 Excited State   3:      Singlet-?Sym    3.1876 eV  388.96 nm  f=0.3181  <S**2>=0.000
     173 ->174         0.69792

 Excited state symmetry could not be determined.
 Excited State   4:      Singlet-?Sym    3.5790 eV  346.42 nm  f=0.0054  <S**2>=0.000
     172 ->174         0.69831

 Alpha  occ. eigenvalues --  -88.90524 -14.38409 -10.24207 -10.23030 -10.22894
 Alpha  occ. eigenvalues --  -10.22525 -10.22518 -10.21156 -10.21126 -10.20806
 Alpha  occ. eigenvalues --  -10.20727 -10.20432 -10.20390 -10.20386 -10.20382
 Alpha  occ. eigenvalues --  -10.20352 -10.20331 -10.20327 -10.20299 -10.20288
 Alpha  occ. eigenvalues --  -10.20091 -10.19945 -10.19835 -10.19640 -10.18858
 Alpha  occ. eigenvalues --  -10.18844 -10.18841 -10.18830 -10.18804 -10.18781
 Alpha  occ. eigenvalues --  -10.18725 -10.18710 -10.18574 -10.18554 -10.18407
 Alpha  occ. eigenvalues --  -10.18398 -10.18395 -10.18374 -10.18373 -10.18353
 Alpha  occ. eigenvalues --  -10.18317 -10.18298 -10.18289 -10.18268 -10.18243
 Alpha  occ. eigenvalues --  -10.18220 -10.17796 -10.17753 -10.17712 -10.17675
 Alpha  occ. eigenvalues --   -7.96623  -5.93076  -5.92727  -5.92208  -0.99054
 Alpha  occ. eigenvalues --   -0.90229  -0.88324  -0.88131  -0.87425  -0.85639
 Alpha  occ. eigenvalues --   -0.83732  -0.83531  -0.81922  -0.81165  -0.80292
 Alpha  occ. eigenvalues --   -0.78928  -0.77480  -0.77172  -0.76105  -0.75549
 Alpha  occ. eigenvalues --   -0.75386  -0.75325  -0.73233  -0.72910  -0.72365
 Alpha  occ. eigenvalues --   -0.72296  -0.70869  -0.70084  -0.69652  -0.68439
 Alpha  occ. eigenvalues --   -0.68399  -0.66131  -0.64699  -0.63308  -0.62762
 Alpha  occ. eigenvalues --   -0.62356  -0.61628  -0.60331  -0.59514  -0.59096
 Alpha  occ. eigenvalues --   -0.58555  -0.58310  -0.57344  -0.56708  -0.56511
 Alpha  occ. eigenvalues --   -0.55527  -0.54857  -0.53286  -0.52360  -0.51323
 Alpha  occ. eigenvalues --   -0.51039  -0.50718  -0.49056  -0.48216  -0.47866
 Alpha  occ. eigenvalues --   -0.47501  -0.46907  -0.46268  -0.45794  -0.45671
 Alpha  occ. eigenvalues --   -0.45106  -0.44911  -0.44658  -0.44170  -0.44062
 Alpha  occ. eigenvalues --   -0.43703  -0.43581  -0.43428  -0.43156  -0.43071
 Alpha  occ. eigenvalues --   -0.42807  -0.42607  -0.42469  -0.42442  -0.42390
 Alpha  occ. eigenvalues --   -0.41618  -0.41544  -0.41138  -0.41042  -0.40156
 Alpha  occ. eigenvalues --   -0.39927  -0.39377  -0.38890  -0.38802  -0.38573
 Alpha  occ. eigenvalues --   -0.38180  -0.37652  -0.37141  -0.36801  -0.36726
 Alpha  occ. eigenvalues --   -0.36364  -0.36144  -0.35950  -0.35614  -0.35116
 Alpha  occ. eigenvalues --   -0.34645  -0.34498  -0.34142  -0.34110  -0.33981
 Alpha  occ. eigenvalues --   -0.33689  -0.33653  -0.33293  -0.32463  -0.31722
 Alpha  occ. eigenvalues --   -0.31699  -0.31436  -0.31410  -0.31323  -0.29681
 Alpha  occ. eigenvalues --   -0.27770  -0.27561  -0.26515  -0.26464  -0.26308
 Alpha  occ. eigenvalues --   -0.24506  -0.23988  -0.23902  -0.22526  -0.21988
 Alpha  occ. eigenvalues --   -0.21917  -0.19766  -0.18414
 Alpha virt. eigenvalues --   -0.05245  -0.03045  -0.02507  -0.01864  -0.01650
 Alpha virt. eigenvalues --   -0.00962  -0.00718  -0.00156   0.00400   0.00863
 Alpha virt. eigenvalues --    0.01222   0.03435   0.03819   0.06025   0.06140

 Mulliken charges:
               1
     1  C   -0.436553
     2  C   -0.063857
     3  C   -0.436610
     4  C    0.101014
     5  C   -0.204057
     6  C   -0.133496
     7  C   -0.136346
     8  C   -0.193334
     9  C    0.078093
    10  C    0.075868
    11  C   -0.273830
    12  C    0.058361
    13  C    0.058395
    14  C   -0.273825
    15  C    0.075856
    16  C    0.092907
    17  C   -0.261854
    18  C    0.324479
    19  N   -0.757239
    20  C    0.276094
    21  C   -0.156922
    22  C   -0.191840
    23  C    0.097748
    24  C    0.110531
    25  C   -0.193650
    26  C   -0.174011
    27  C    0.112713
    28  C   -0.146829
    29  C   -0.235409
    30  S    0.214361
    31  C   -0.143709
    32  C   -0.183568
    33  C   -0.113561
    34  C   -0.147463
    35  C   -0.164047
    36  C    0.107836
    37  C   -0.191244
    38  C   -0.157114
    39  C    0.324530
    40  C   -0.261904
    41  C    0.092867
    42  C   -0.064006
    43  C   -0.436634
    44  C   -0.436565
    45  C    0.101057
    46  C   -0.204026
    47  C   -0.133484
    48  C   -0.136353
    49  C   -0.193329
    50  C    0.078082
    51  H    0.158186
    52  H    0.142962
    53  H    0.142544
    54  H    0.157036
    55  H    0.139875
    56  H    0.143513
    57  H    0.121582
    58  H    0.124310
    59  H    0.125444
    60  H    0.125687
    61  H    0.131250
    62  H    0.131191
    63  H    0.137193
    64  H    0.154217
    65  H    0.141511
    66  H    0.134667
    67  H    0.136840
    68  H    0.145063
    69  H    0.143807
    70  H    0.134976
    71  H    0.133868
    72  H    0.134553
    73  H    0.142094
    74  H    0.154568
    75  H    0.136895
    76  H    0.143720
    77  H    0.140260
    78  H    0.156964
    79  H    0.142843
    80  H    0.143156
    81  H    0.158004
    82  H    0.121786
    83  H    0.124348
    84  H    0.125385
    85  H    0.125579
 Sum of Mulliken charges =  -0.00000

 Dipole moment (field-independent basis, Debye):
    X=              2.9725    Y=              0.8080    Z=              0.2200  Tot=              3.0882
 Quadrupole moment (field-independent basis, Debye-Ang):
   XX=           -263.1524   YY=           -274.1606   ZZ=           -301.8439
   XY=              6.0126   XZ=              1.4374   YZ=              5.3958

 Normal termination of Gaussian 16 at Sat Nov  5 10:17:22 2022.
