 Gaussian 16, Revision B.01,
 Gaussian 16:  ES64L-G16RevB.01 20-Dec-2017

 -----------------------------
 #p b3lyp/6-31g(d) opt SCF=XQC
 -----------------------------

 ------------------------------
 Gaussian input prepared by ASE
 ------------------------------
 Symbolic Z-matrix:
 Charge =  0 Multiplicity = 1

 SCF Done:  E(RB3LYP) =  -2303.23206780     A.U. after   15 cycles
 SCF Done:  E(RB3LYP) =  -2303.24161713     A.U. after   12 cycles
 SCF Done:  E(RB3LYP) =  -2303.24182649     A.U. after   11 cycles
 SCF Done:  E(RB3LYP) =  -2303.24186091     A.U. after   11 cycles
 SCF Done:  E(RB3LYP) =  -2303.24186631     A.U. after   10 cycles
 SCF Done:  E(RB3LYP) =  -2303.24186731     A.U. after    9 cycles
 SCF Done:  E(RB3LYP) =  -2303.24186742     A.U. after    7 cycles
 Optimization completed.
    -- Stationary point found.

                         Standard orientation:
 ---------------------------------------------------------------------
 Center     Atomic      Atomic             Coordinates (Angstroms)
 Number     Number       Type             X           Y           Z
 ---------------------------------------------------------------------
      1          6           0        2.467845   -5.394066   -1.356951
      2          6           0        3.162284   -4.855382   -0.085896
      3          6           0        2.495205   -5.455314    1.172197
      4          6           0        4.663888   -5.140903   -0.109086
      5          6           0        5.315560   -6.368362   -0.144479
      6          6           0        6.715402   -6.399466   -0.161197
      7          6           0        7.450206   -5.209645   -0.142684
      8          6           0        6.801158   -3.973293   -0.107299
      9          6           0        5.404818   -3.942270   -0.090593
     10          6           0        4.469858   -2.811330   -0.055060
     11          6           0        4.707993   -1.439790   -0.037208
     12          6           0        3.606044   -0.577356   -0.003912
     13          6           0        3.476909    0.865365    0.000907
     14          6           0        4.408655    1.909911    0.002530
     15          6           0        3.931336    3.217360    0.031379
     16          6           0        2.539337    3.489289    0.067427
     17          6           0        1.600017    2.468084    0.066463
     18          6           0        2.086107    1.155071    0.021977
     19          7           0        1.373081   -0.050221    0.032305
     20          6           0       -0.040071   -0.176798    0.053942
     21          6           0       -0.669806   -0.928522    1.054096
     22          6           0       -2.055511   -1.057232    1.066339
     23          6           0       -2.856922   -0.429680    0.096865
     24          6           0       -4.334291   -0.561197    0.121148
     25          6           0       -4.944555   -1.777515    0.501603
     26          6           0       -6.324727   -1.918903    0.529898
     27          6           0       -7.150270   -0.841466    0.175654
     28          6           0       -6.537612    0.373233   -0.205585
     29          6           0       -5.152206    0.520567   -0.233684
     30         16           0       -7.720511    1.624049   -0.608483
     31          6           0       -9.053918    0.512008   -0.271454
     32          6           0      -10.414901    0.804942   -0.378141
     33          6           0      -11.336095   -0.193858   -0.072232
     34          6           0      -10.905345   -1.466408    0.334198
     35          6           0       -9.549025   -1.753263    0.438884
     36          6           0       -8.600983   -0.763726    0.135929
     37          6           0       -2.209555    0.326865   -0.895362
     38          6           0       -0.823446    0.447709   -0.925021
     39          6           0        2.288824   -1.109598    0.017123
     40          6           0        2.042597   -2.488209   -0.016114
     41          6           0        3.147899   -3.326337   -0.048980
     42          6           0        2.282894    4.996616    0.107937
     43          6           0        1.481136    5.464873   -1.127243
     44          6           0        1.543388    5.406897    1.401349
     45          6           0        3.709842    5.544447    0.085494
     46          6           0        4.133736    6.868276    0.103969
     47          6           0        5.505599    7.147726    0.077698
     48          6           0        6.439275    6.107409    0.033531
     49          6           0        6.019546    4.775288    0.014895
     50          6           0        4.651098    4.496553    0.041050
     51          1           0        2.926555   -4.980850   -2.260823
     52          1           0        2.541263   -6.486867   -1.404850
     53          1           0        1.404219   -5.128089   -1.360766
     54          1           0        2.972611   -5.085319    2.085182
     55          1           0        1.431548   -5.191772    1.210384
     56          1           0        2.569918   -6.549043    1.166359
     57          1           0        4.751865   -7.298611   -0.159301
     58          1           0        7.233803   -7.354238   -0.188691
     59          1           0        8.536422   -5.246958   -0.155862
     60          1           0        7.378755   -3.052287   -0.092808
     61          1           0        5.720208   -1.043577   -0.054425
     62          1           0        5.475197    1.699834   -0.012572
     63          1           0        0.534389    2.672100    0.104589
     64          1           0       -0.070009   -1.391312    1.831549
     65          1           0       -2.526356   -1.620933    1.866437
     66          1           0       -4.317883   -2.628706    0.749907
     67          1           0       -6.764289   -2.870064    0.818102
     68          1           0       -4.707104    1.474267   -0.500605
     69          1           0      -10.749190    1.789356   -0.692445
     70          1           0      -12.398976    0.017188   -0.149848
     71          1           0      -11.638009   -2.233283    0.568784
     72          1           0       -9.222283   -2.740653    0.754136
     73          1           0       -2.797208    0.794102   -1.680322
     74          1           0       -0.339422    1.007264   -1.719360
     75          1           0        1.029416   -2.878195   -0.021978
     76          1           0        1.360530    6.554483   -1.120742
     77          1           0        0.480523    5.016555   -1.133052
     78          1           0        1.988068    5.182981   -2.055638
     79          1           0        0.544579    4.956187    1.437321
     80          1           0        1.422862    6.495480    1.449874
     81          1           0        2.095962    5.084339    2.289486
     82          1           0        3.414331    7.683494    0.138442
     83          1           0        5.846631    8.179513    0.091673
     84          1           0        7.501446    6.337239    0.013397
     85          1           0        6.750923    3.971553   -0.019738
 ---------------------------------------------------------------------

 The electronic state is 1-A.
 Alpha  occ. eigenvalues --  -88.90524 -14.38409 -10.24207 -10.23030 -10.22893
 Alpha  occ. eigenvalues --  -10.22525 -10.22517 -10.21156 -10.21126 -10.20806
 Alpha  occ. eigenvalues --  -10.20727 -10.20432 -10.20390 -10.20386 -10.20382
 Alpha  occ. eigenvalues --  -10.20351 -10.20331 -10.20327 -10.20299 -10.20288
 Alpha  occ. eigenvalues --  -10.20091 -10.19945 -10.19835 -10.19640 -10.18858
 Alpha  occ. eigenvalues --  -10.18844 -10.18841 -10.18830 -10.18804 -10.18781
 Alpha  occ. eigenvalues --  -10.18725 -10.18710 -10.18574 -10.18553 -10.18407
 Alpha  occ. eigenvalues --  -10.18398 -10.18394 -10.18374 -10.18373 -10.18353
 Alpha  occ. eigenvalues --  -10.18317 -10.18298 -10.18289 -10.18268 -10.18243
 Alpha  occ. eigenvalues --  -10.18220 -10.17796 -10.17753 -10.17712 -10.17675
 Alpha  occ. eigenvalues --   -7.96622  -5.93076  -5.92727  -5.92208  -0.99054
 Alpha  occ. eigenvalues --   -0.90228  -0.88324  -0.88131  -0.87425  -0.85639
 Alpha  occ. eigenvalues --   -0.83732  -0.83531  -0.81922  -0.81165  -0.80292
 Alpha  occ. eigenvalues --   -0.78928  -0.77480  -0.77172  -0.76105  -0.75549
 Alpha  occ. eigenvalues --   -0.75386  -0.75325  -0.73233  -0.72910  -0.72365
 Alpha  occ. eigenvalues --   -0.72296  -0.70869  -0.70084  -0.69652  -0.68439
 Alpha  occ. eigenvalues --   -0.68399  -0.66131  -0.64699  -0.63308  -0.62762
 Alpha  occ. eigenvalues --   -0.62356  -0.61628  -0.60331  -0.59514  -0.59096
 Alpha  occ. eigenvalues --   -0.58555  -0.58310  -0.57344  -0.56708  -0.56511
 Alpha  occ. eigenvalues --   -0.55527  -0.54857  -0.53286  -0.52360  -0.51323
 Alpha  occ. eigenvalues --   -0.51039  -0.50718  -0.49056  -0.48216  -0.47866
 Alpha  occ. eigenvalues --   -0.47501  -0.46907  -0.46268  -0.45794  -0.45671
 Alpha  occ. eigenvalues --   -0.45106  -0.44911  -0.44658  -0.44170  -0.44062
 Alpha  occ. eigenvalues --   -0.43703  -0.43581  -0.43428  -0.43156  -0.43071
 Alpha  occ. eigenvalues --   -0.42807  -0.42607  -0.42469  -0.42442  -0.42390
 Alpha  occ. eigenvalues --   -0.41618  -0.41544  -0.41138  -0.41042  -0.40156
 Alpha  occ. eigenvalues --   -0.39927  -0.39377  -0.38890  -0.38802  -0.38573
 Alpha  occ. eigenvalues --   -0.38180  -0.37653  -0.37141  -0.36801  -0.36726
 Alpha  occ. eigenvalues --   -0.36364  -0.36144  -0.35950  -0.35614  -0.35116
 Alpha  occ. eigenvalues --   -0.34645  -0.34498  -0.34142  -0.34110  -0.33981
 Alpha  occ. eigenvalues --   -0.33689  -0.33653  -0.33293  -0.32463  -0.31722
 Alpha  occ. eigenvalues --   -0.31699  -0.31436  -0.31410  -0.31323  -0.29681
 Alpha  occ. eigenvalues --   -0.27770  -0.27561  -0.26515  -0.26464  -0.26307
 Alpha  occ. eigenvalues --   -0.24506  -0.23988  -0.23902  -0.22526  -0.21988
 Alpha  occ. eigenvalues --   -0.21917  -0.19766  -0.18414
 Alpha virt. eigenvalues --   -0.05245  -0.03045  -0.02507  -0.01864  -0.01650
 Alpha virt. eigenvalues --   -0.00962  -0.00718  -0.00156   0.00400   0.00863
 Alpha virt. eigenvalues --    0.01222   0.03435   0.03819   0.06025   0.06140

 Mulliken charges:
               1
     1  C   -0.436556
     2  C   -0.063832
     3  C   -0.436614
     4  C    0.100990
     5  C   -0.204057
     6  C   -0.133500
     7  C   -0.136344
     8  C   -0.193340
     9  C    0.078101
    10  C    0.075876
    11  C   -0.273825
    12  C    0.058350
    13  C    0.058385
    14  C   -0.273846
    15  C    0.075904
    16  C    0.092902
    17  C   -0.261864
    18  C    0.324499
    19  N   -0.757237
    20  C    0.276054
    21  C   -0.156902
    22  C   -0.191824
    23  C    0.097711
    24  C    0.110533
    25  C   -0.193650
    26  C   -0.174019
    27  C    0.112718
    28  C   -0.146825
    29  C   -0.235411
    30  S    0.214365
    31  C   -0.143715
    32  C   -0.183568
    33  C   -0.113560
    34  C   -0.147460
    35  C   -0.164055
    36  C    0.107843
    37  C   -0.191227
    38  C   -0.157089
    39  C    0.324532
    40  C   -0.261889
    41  C    0.092852
    42  C   -0.064016
    43  C   -0.436633
    44  C   -0.436562
    45  C    0.101065
    46  C   -0.204031
    47  C   -0.133490
    48  C   -0.136346
    49  C   -0.193341
    50  C    0.078077
    51  H    0.158186
    52  H    0.142963
    53  H    0.142543
    54  H    0.157036
    55  H    0.139875
    56  H    0.143513
    57  H    0.121582
    58  H    0.124311
    59  H    0.125445
    60  H    0.125687
    61  H    0.131249
    62  H    0.131191
    63  H    0.137193
    64  H    0.154215
    65  H    0.141511
    66  H    0.134666
    67  H    0.136841
    68  H    0.145063
    69  H    0.143808
    70  H    0.134975
    71  H    0.133867
    72  H    0.134554
    73  H    0.142093
    74  H    0.154568
    75  H    0.136891
    76  H    0.143720
    77  H    0.140260
    78  H    0.156965
    79  H    0.142843
    80  H    0.143156
    81  H    0.158005
    82  H    0.121785
    83  H    0.124349
    84  H    0.125385
    85  H    0.125579
 Sum of Mulliken charges =  -0.00000

 Dipole moment (field-independent basis, Debye):
    X=             -2.8883    Y=             -1.0505    Z=              0.3015  Tot=              3.0882
 Quadrupole moment (field-independent basis, Debye-Ang):
   XX=           -266.3133   YY=           -273.0311   ZZ=           -301.6399
   XY=              6.5516   XZ=             -1.9505   YZ=             -6.0021

 Normal termination of Gaussian 16 at Fri Nov  4 23:40:11 2022.
