 Gaussian 16, Revision B.01,
 Gaussian 16:  ES64L-G16RevB.01 20-Dec-2017

 -----------------------------
 #p b3lyp/6-31g(d) opt SCF=XQC
 -----------------------------

 ------------------------------
 Gaussian input prepared by ASE
 ------------------------------
 Symbolic Z-matrix:
 Charge =  0 Multiplicity = 1

 SCF Done:  E(RB3LYP) =  -923.017429735     A.U. after   14 cycles
 SCF Done:  E(RB3LYP) =  -923.022586116     A.U. after   12 cycles
 SCF Done:  E(RB3LYP) =  -923.022858026     A.U. after   11 cycles
 SCF Done:  E(RB3LYP) =  -923.022912029     A.U. after   11 cycles
 SCF Done:  E(RB3LYP) =  -923.022936856     A.U. after   10 cycles
 SCF Done:  E(RB3LYP) =  -923.022949693     A.U. after   10 cycles
 SCF Done:  E(RB3LYP) =  -923.022960021     A.U. after   10 cycles
 SCF Done:  E(RB3LYP) =  -923.022963515     A.U. after    8 cycles
 SCF Done:  E(RB3LYP) =  -923.022965720     A.U. after    8 cycles
 SCF Done:  E(RB3LYP) =  -923.022967621     A.U. after    8 cycles
 SCF Done:  E(RB3LYP) =  -923.022970381     A.U. after    9 cycles
 SCF Done:  E(RB3LYP) =  -923.022970975     A.U. after    9 cycles
 SCF Done:  E(RB3LYP) =  -923.022971547     A.U. after    9 cycles
 SCF Done:  E(RB3LYP) =  -923.022972033     A.U. after    9 cycles
 SCF Done:  E(RB3LYP) =  -923.022972209     A.U. after    7 cycles
 SCF Done:  E(RB3LYP) =  -923.022972358     A.U. after    7 cycles
 SCF Done:  E(RB3LYP) =  -923.022972483     A.U. after    7 cycles
 SCF Done:  E(RB3LYP) =  -923.022972544     A.U. after    7 cycles
 SCF Done:  E(RB3LYP) =  -923.022972568     A.U. after    7 cycles
 SCF Done:  E(RB3LYP) =  -923.022972576     A.U. after    6 cycles
 Optimization completed.
    -- Stationary point found.

                         Standard orientation:
 ---------------------------------------------------------------------
 Center     Atomic      Atomic             Coordinates (Angstroms)
 Number     Number       Type             X           Y           Z
 ---------------------------------------------------------------------
      1          6           0       -7.332513   -0.268595    0.071829
      2          6           0       -5.824528   -0.186561    0.056759
      3          6           0       -5.159501    1.013851    0.328893
      4          6           0       -3.768108    1.098189    0.281069
      5          6           0       -2.988797   -0.024091   -0.036096
      6          6           0       -1.501403    0.002106   -0.067494
      7          7           0       -0.897193   -1.107722    0.389852
      8          6           0        0.436515   -1.184247    0.408625
      9          6           0        1.020993   -2.460313    0.964984
     10          6           0        1.213882   -0.098221   -0.054202
     11          6           0        2.706973   -0.111458   -0.075939
     12          6           0        3.375992   -1.119713   -0.781563
     13          6           0        4.766826   -1.155785   -0.857241
     14          6           0        5.534778   -0.177942   -0.219365
     15          6           0        7.042878   -0.181860   -0.309526
     16          6           0        4.861225    0.823394    0.491614
     17          6           0        3.467056    0.887245    0.574630
     18          6           0        2.816869    2.000454    1.364223
     19          7           0        0.614144    1.003538   -0.528013
     20          6           0       -0.721795    1.078235   -0.556848
     21          6           0       -1.281887    2.337118   -1.175381
     22          6           0       -3.655467   -1.236724   -0.283602
     23          6           0       -5.043093   -1.311913   -0.244841
     24          1           0       -7.772992    0.549484    0.651088
     25          1           0       -7.678610   -1.214381    0.503650
     26          1           0       -7.744558   -0.208682   -0.944574
     27          1           0       -5.736733    1.897693    0.591373
     28          1           0       -3.291113    2.040522    0.528508
     29          1           0        0.295813   -2.917509    1.642790
     30          1           0        1.959767   -2.281370    1.496143
     31          1           0        1.230995   -3.185674    0.168543
     32          1           0        2.795458   -1.881653   -1.294934
     33          1           0        5.255657   -1.949125   -1.418078
     34          1           0        7.429650   -1.185497   -0.515198
     35          1           0        7.501896    0.174668    0.619194
     36          1           0        7.394628    0.474984   -1.116529
     37          1           0        5.445676    1.585440    1.004567
     38          1           0        2.104517    1.611042    2.101436
     39          1           0        2.254743    2.672493    0.708315
     40          1           0        3.570286    2.586374    1.899967
     41          1           0       -0.537581    2.749313   -1.861292
     42          1           0       -1.487192    3.104565   -0.417722
     43          1           0       -2.214033    2.150909   -1.715877
     44          1           0       -3.064531   -2.120803   -0.499084
     45          1           0       -5.531761   -2.262526   -0.448328
 ---------------------------------------------------------------------

 The electronic state is 1-A.
 Alpha  occ. eigenvalues --  -14.33206 -14.33135 -10.22971 -10.22894 -10.22850
 Alpha  occ. eigenvalues --  -10.22641 -10.19698 -10.19455 -10.19443 -10.19356
 Alpha  occ. eigenvalues --  -10.19027 -10.18938 -10.18635 -10.18563 -10.18466
 Alpha  occ. eigenvalues --  -10.18435 -10.18396 -10.18233 -10.18131 -10.18045
 Alpha  occ. eigenvalues --  -10.17932 -10.17859 -10.17328  -0.97084  -0.89876
 Alpha  occ. eigenvalues --   -0.85651  -0.85374  -0.80930  -0.77911  -0.76378
 Alpha  occ. eigenvalues --   -0.75135  -0.74388  -0.73506  -0.70061  -0.68912
 Alpha  occ. eigenvalues --   -0.68109  -0.65951  -0.63221  -0.61296  -0.59901
 Alpha  occ. eigenvalues --   -0.58797  -0.57459  -0.56005  -0.52111  -0.50717
 Alpha  occ. eigenvalues --   -0.50017  -0.46862  -0.46010  -0.45681  -0.44862
 Alpha  occ. eigenvalues --   -0.43528  -0.43292  -0.42031  -0.41843  -0.41817
 Alpha  occ. eigenvalues --   -0.41690  -0.41350  -0.40591  -0.40356  -0.39863
 Alpha  occ. eigenvalues --   -0.39566  -0.39200  -0.38776  -0.38524  -0.37844
 Alpha  occ. eigenvalues --   -0.37321  -0.37041  -0.35372  -0.34188  -0.33920
 Alpha  occ. eigenvalues --   -0.33570  -0.33288  -0.33128  -0.30814  -0.28684
 Alpha  occ. eigenvalues --   -0.26278  -0.24751  -0.24015  -0.23585  -0.23255
 Alpha  occ. eigenvalues --   -0.21555
 Alpha virt. eigenvalues --   -0.04606  -0.02337   0.00021   0.00269   0.00635
 Alpha virt. eigenvalues --    0.03167   0.09591   0.09982   0.11253   0.11343
 Alpha virt. eigenvalues --    0.12332   0.12673   0.13329   0.13508   0.14242

 Mulliken charges:
               1
     1  C   -0.530893
     2  C    0.184379
     3  C   -0.191757
     4  C   -0.169778
     5  C    0.098006
     6  C    0.179602
     7  N   -0.506278
     8  C    0.286098
     9  C   -0.517597
    10  C    0.146338
    11  C    0.048196
    12  C   -0.161559
    13  C   -0.193554
    14  C    0.197073
    15  C   -0.531305
    16  C   -0.255384
    17  C    0.168754
    18  C   -0.529655
    19  N   -0.488411
    20  C    0.278714
    21  C   -0.525593
    22  C   -0.147616
    23  C   -0.186112
    24  H    0.156402
    25  H    0.159969
    26  H    0.166339
    27  H    0.122358
    28  H    0.131623
    29  H    0.172722
    30  H    0.168414
    31  H    0.163846
    32  H    0.129061
    33  H    0.120413
    34  H    0.155461
    35  H    0.157707
    36  H    0.166603
    37  H    0.115181
    38  H    0.155369
    39  H    0.184088
    40  H    0.146299
    41  H    0.174630
    42  H    0.164293
    43  H    0.168968
    44  H    0.145300
    45  H    0.123286
 Sum of Mulliken charges =  -0.00000

 Dipole moment (field-independent basis, Debye):
    X=             -0.2453    Y=              0.1201    Z=              0.0132  Tot=              0.2734
 Quadrupole moment (field-independent basis, Debye-Ang):
   XX=           -113.9806   YY=           -128.4796   ZZ=           -136.9066
   XY=             -3.4755   XZ=              1.7814   YZ=              4.3361

 1\1\GINC-NODE83\FOpt\RB3LYP\6-31G(d)\C21H22N2\WYKGROUP\04-Nov-2022\0\\
 #p b3lyp/6-31g(d) opt SCF=XQC\\Gaussian input prepared by ASE\\0,1\C,7
 .3308218468,0.4372361201,0.704840751\C,5.8327339585,0.348534243,0.5350
 23632\C,5.2632632858,-0.3282764421,-0.5489217026\C,3.8806231939,-0.380
 8232897,-0.7247633532\C,3.014305892,0.2401033783,0.1870346908\C,1.5322
 867991,0.1858284127,0.0658483148\N,0.8641494311,0.0792614279,1.2269630
 383\C,-0.470494462,0.0183549062,1.2279448437\C,-1.1279091964,-0.127425
 1473,2.5792580931\C,-1.1816797623,0.0675795168,0.0073897403\C,-2.67190

 Normal termination of Gaussian 16 at Fri Nov  4 23:29:36 2022.
