 Gaussian 16, Revision B.01,
 Gaussian 16:  ES64L-G16RevB.01 20-Dec-2017

 -------------------------------------------------------------------
 #p b3lyp/6-31g(d) 6D 10F nosymm GFInput td=(50-50,nstate=2) SCF=XQC
 -------------------------------------------------------------------

 ------------------------------
 Gaussian input prepared by ASE
 ------------------------------
 Symbolic Z-matrix:
 Charge =  0 Multiplicity = 1

                          Input orientation:
 ---------------------------------------------------------------------
 Center     Atomic      Atomic             Coordinates (Angstroms)
 Number     Number       Type             X           Y           Z
 ---------------------------------------------------------------------
      1          6           0        7.330822    0.437236    0.704841
      2          6           0        5.832734    0.348534    0.535024
      3          6           0        5.263263   -0.328276   -0.548922
      4          6           0        3.880623   -0.380823   -0.724763
      5          6           0        3.014306    0.240103    0.187035
      6          6           0        1.532287    0.185828    0.065848
      7          7           0        0.864149    0.079261    1.226963
      8          6           0       -0.470494    0.018355    1.227945
      9          6           0       -1.127909   -0.127425    2.579258
     10          6           0       -1.181680    0.067580    0.007390
     11          6           0       -2.671907    0.016550   -0.073761
     12          6           0       -3.431523    0.973774    0.610914
     13          6           0       -4.823008    0.986283    0.539782
     14          6           0       -5.500242    0.029906   -0.221475
     15          6           0       -7.006776    0.039823   -0.334463
     16          6           0       -4.736443   -0.929928   -0.897617
     17          6           0       -3.339437   -0.958132   -0.850146
     18          6           0       -2.588652   -2.029437   -1.607815
     19          7           0       -0.519059    0.192082   -1.151700
     20          6           0        0.817383    0.263203   -1.154085
     21          6           0        1.447436    0.472058   -2.510730
     22          6           0        3.585265    0.897635    1.290594
     23          6           0        4.964536    0.955623    1.454642
     24          1           0        7.845310   -0.350999    0.145553
     25          1           0        7.621111    0.350366    1.757908
     26          1           0        7.716107    1.400038    0.342882
     27          1           0        5.909497   -0.831145   -1.265004
     28          1           0        3.479498   -0.941809   -1.562101
     29          1           0       -0.417612   -0.584633    3.272637
     30          1           0       -2.035553   -0.734873    2.527910
     31          1           0       -1.412364    0.848096    2.994002
     32          1           0       -2.922102    1.733526    1.197761
     33          1           0       -5.383400    1.746692    1.078873
     34          1           0       -7.469993    0.537138    0.524192
     35          1           0       -7.411771   -0.976255   -0.396875
     36          1           0       -7.334308    0.574022   -1.236561
     37          1           0       -5.249774   -1.689518   -1.484926
     38          1           0       -1.884569   -2.565251   -0.959942
     39          1           0       -1.999513   -1.596580   -2.422301
     40          1           0       -3.282336   -2.762570   -2.031229
     41          1           0        0.714623    0.950418   -3.165350
     42          1           0        1.729071   -0.480551   -2.978052
     43          1           0        2.347679    1.090333   -2.455930
     44          1           0        2.926729    1.355443    2.021331
     45          1           0        5.377997    1.478299    2.314715
 ---------------------------------------------------------------------

 SCF Done:  E(RB3LYP) =  -923.022971132     A.U. after   14 cycles

 Excitation energies and oscillator strengths:

 Excited state symmetry could not be determined.
 Excited State   1:      Triplet-?Sym    3.0505 eV  406.44 nm  f=0.0000  <S**2>=2.000
      74 -> 82         0.10838
      76 -> 87        -0.11286
      77 -> 85         0.12549
      81 -> 82         0.61035
      81 -> 83         0.17216
 This state for optimization and/or second-order correction.
 Total Energy, E(TD-HF/TD-DFT) =  -922.910868446
 Copying the excited state density for this state as the 1-particle RhoCI density.

 Excited state symmetry could not be determined.
 Excited State   2:      Triplet-?Sym    3.3038 eV  375.28 nm  f=0.0000  <S**2>=2.000
      79 -> 82        -0.39723
      79 -> 83         0.20235
      80 -> 82         0.45102
      80 -> 83        -0.15089
      81 -> 83         0.16129

 Excited state symmetry could not be determined.
 Excited State   3:      Singlet-?Sym    3.8662 eV  320.69 nm  f=0.0914  <S**2>=0.000
      79 -> 82        -0.36384
      80 -> 82         0.42484
      81 -> 82        -0.39055

 Excited state symmetry could not be determined.
 Excited State   4:      Singlet-?Sym    4.1604 eV  298.01 nm  f=0.4969  <S**2>=0.000
      79 -> 82        -0.30861
      80 -> 82         0.24316
      81 -> 82         0.57039

 Alpha  occ. eigenvalues --  -14.33206 -14.33135 -10.22971 -10.22894 -10.22850
 Alpha  occ. eigenvalues --  -10.22641 -10.19698 -10.19455 -10.19443 -10.19356
 Alpha  occ. eigenvalues --  -10.19027 -10.18938 -10.18635 -10.18563 -10.18466
 Alpha  occ. eigenvalues --  -10.18435 -10.18396 -10.18233 -10.18131 -10.18045
 Alpha  occ. eigenvalues --  -10.17932 -10.17859 -10.17328  -0.97084  -0.89876
 Alpha  occ. eigenvalues --   -0.85651  -0.85374  -0.80930  -0.77911  -0.76378
 Alpha  occ. eigenvalues --   -0.75135  -0.74388  -0.73506  -0.70061  -0.68912
 Alpha  occ. eigenvalues --   -0.68109  -0.65951  -0.63221  -0.61296  -0.59901
 Alpha  occ. eigenvalues --   -0.58797  -0.57459  -0.56005  -0.52111  -0.50717
 Alpha  occ. eigenvalues --   -0.50017  -0.46862  -0.46010  -0.45681  -0.44862
 Alpha  occ. eigenvalues --   -0.43528  -0.43292  -0.42031  -0.41843  -0.41817
 Alpha  occ. eigenvalues --   -0.41690  -0.41350  -0.40591  -0.40356  -0.39863
 Alpha  occ. eigenvalues --   -0.39566  -0.39200  -0.38776  -0.38524  -0.37844
 Alpha  occ. eigenvalues --   -0.37322  -0.37041  -0.35372  -0.34188  -0.33920
 Alpha  occ. eigenvalues --   -0.33570  -0.33288  -0.33128  -0.30814  -0.28684
 Alpha  occ. eigenvalues --   -0.26278  -0.24751  -0.24015  -0.23585  -0.23255
 Alpha  occ. eigenvalues --   -0.21555
 Alpha virt. eigenvalues --   -0.04606  -0.02337   0.00021   0.00269   0.00635
 Alpha virt. eigenvalues --    0.03167   0.09591   0.09982   0.11253   0.11343
 Alpha virt. eigenvalues --    0.12332   0.12673   0.13329   0.13508   0.14242

 Mulliken charges:
               1
     1  C   -0.530893
     2  C    0.184384
     3  C   -0.191754
     4  C   -0.169792
     5  C    0.098016
     6  C    0.179587
     7  N   -0.506257
     8  C    0.286095
     9  C   -0.517597
    10  C    0.146308
    11  C    0.048221
    12  C   -0.161572
    13  C   -0.193557
    14  C    0.197080
    15  C   -0.531305
    16  C   -0.255384
    17  C    0.168749
    18  C   -0.529655
    19  N   -0.488392
    20  C    0.278716
    21  C   -0.525592
    22  C   -0.147621
    23  C   -0.186117
    24  H    0.156402
    25  H    0.159969
    26  H    0.166339
    27  H    0.122357
    28  H    0.131624
    29  H    0.172721
    30  H    0.168413
    31  H    0.163846
    32  H    0.129061
    33  H    0.120413
    34  H    0.155460
    35  H    0.157707
    36  H    0.166603
    37  H    0.115180
    38  H    0.155370
    39  H    0.184087
    40  H    0.146300
    41  H    0.174631
    42  H    0.164294
    43  H    0.168966
    44  H    0.145302
    45  H    0.123286
 Sum of Mulliken charges =  -0.00000

 Dipole moment (field-independent basis, Debye):
    X=              0.2535    Y=             -0.0386    Z=             -0.0949  Tot=              0.2734
 Quadrupole moment (field-independent basis, Debye-Ang):
   XX=           -113.6471   YY=           -133.2886   ZZ=           -132.4164
   XY=              1.2211   XZ=             -3.1005   YZ=              5.8772

 Normal termination of Gaussian 16 at Sat Nov  5 09:55:46 2022.
