 Gaussian 16, Revision B.01,
 Gaussian 16:  ES64L-G16RevB.01 20-Dec-2017

 -----------------------------
 #p b3lyp/6-31g(d) opt SCF=XQC
 -----------------------------

 ------------------------------
 Gaussian input prepared by ASE
 ------------------------------
 Symbolic Z-matrix:
 Charge =  0 Multiplicity = 1

 SCF Done:  E(RB3LYP) =  -961.099012900     A.U. after   14 cycles
 SCF Done:  E(RB3LYP) =  -961.104006593     A.U. after   12 cycles
 SCF Done:  E(RB3LYP) =  -961.104170995     A.U. after   11 cycles
 SCF Done:  E(RB3LYP) =  -961.104306943     A.U. after   11 cycles
 SCF Done:  E(RB3LYP) =  -961.104332390     A.U. after   10 cycles
 SCF Done:  E(RB3LYP) =  -961.104343400     A.U. after   10 cycles
 SCF Done:  E(RB3LYP) =  -961.104346837     A.U. after    9 cycles
 SCF Done:  E(RB3LYP) =  -961.104348191     A.U. after    8 cycles
 SCF Done:  E(RB3LYP) =  -961.104348441     A.U. after    7 cycles
 Optimization completed.
    -- Stationary point found.

                         Standard orientation:
 ---------------------------------------------------------------------
 Center     Atomic      Atomic             Coordinates (Angstroms)
 Number     Number       Type             X           Y           Z
 ---------------------------------------------------------------------
      1          6           0       -0.138177    2.652975   -0.267859
      2          6           0       -0.385942    1.334833   -0.150618
      3          6           0       -1.718336    0.705969   -0.082194
      4          6           0       -2.984992    1.275663    0.025205
      5          6           0       -4.127181    0.465711    0.058928
      6          6           0       -5.486321    1.139144    0.137880
      7          6           0       -6.092172    1.434500   -1.246993
      8          6           0       -3.987127   -0.941790   -0.022917
      9          6           0       -5.177426   -1.880546    0.058148
     10          6           0       -5.531389   -2.279835    1.503274
     11          6           0       -2.704787   -1.499827   -0.138992
     12          6           0       -1.584550   -0.680639   -0.163074
     13          6           0       -0.128923   -1.034162   -0.301154
     14          7           0        0.537820    0.265687   -0.143602
     15          6           0        1.926530    0.338573    0.016145
     16          6           0        2.516934    1.371800    0.809525
     17          6           0        3.873435    1.422691    1.009015
     18          6           0        4.738461    0.445718    0.447073
     19          7           0        6.078690    0.544845    0.673783
     20          6           0        6.858454   -0.380898    0.149113
     21          6           0        6.387116   -1.466057   -0.631269
     22          6           0        5.036521   -1.578752   -0.864746
     23          6           0        4.153537   -0.608434   -0.323268
     24          6           0        2.751805   -0.638599   -0.524483
     25          1           0       -0.966854    3.351263   -0.268835
     26          1           0        0.854337    3.063458   -0.395729
     27          1           0       -3.098198    2.355445    0.090847
     28          1           0       -5.380498    2.083901    0.685092
     29          1           0       -6.188111    0.531123    0.718871
     30          1           0       -6.238835    0.514639   -1.824244
     31          1           0       -7.063840    1.932551   -1.150168
     32          1           0       -5.431754    2.086415   -1.829441
     33          1           0       -6.056371   -1.435478   -0.420332
     34          1           0       -4.950082   -2.789515   -0.512628
     35          1           0       -6.385214   -2.967053    1.520509
     36          1           0       -5.788988   -1.403493    2.108492
     37          1           0       -4.684118   -2.777026    1.988468
     38          1           0       -2.600969   -2.581303   -0.207549
     39          1           0        0.230030   -1.738930    0.461335
     40          1           0        0.080561   -1.483622   -1.285178
     41          1           0        1.872996    2.102738    1.282690
     42          1           0        4.321096    2.201076    1.619343
     43          1           0        7.926046   -0.281103    0.343468
     44          1           0        7.090943   -2.190000   -1.031615
     45          1           0        4.634821   -2.396879   -1.458732
     46          1           0        2.334619   -1.440149   -1.126365
 ---------------------------------------------------------------------

 The electronic state is 1-A.
 Alpha  occ. eigenvalues --  -14.36627 -14.32109 -10.23490 -10.23326 -10.22924
 Alpha  occ. eigenvalues --  -10.21591 -10.21516 -10.20198 -10.20023 -10.19879
 Alpha  occ. eigenvalues --  -10.19771 -10.19758 -10.19458 -10.19371 -10.19265
 Alpha  occ. eigenvalues --  -10.19235 -10.19127 -10.19117 -10.19058 -10.18817
 Alpha  occ. eigenvalues --  -10.18709 -10.18210 -10.18102 -10.16325  -0.97111
 Alpha  occ. eigenvalues --   -0.93373  -0.86904  -0.84220  -0.80473  -0.79785
 Alpha  occ. eigenvalues --   -0.78817  -0.77098  -0.75419  -0.73911  -0.72194
 Alpha  occ. eigenvalues --   -0.71660  -0.67518  -0.65440  -0.63842  -0.63236
 Alpha  occ. eigenvalues --   -0.61735  -0.60067  -0.59467  -0.56534  -0.55840
 Alpha  occ. eigenvalues --   -0.52333  -0.51320  -0.50610  -0.48927  -0.48028
 Alpha  occ. eigenvalues --   -0.47200  -0.46713  -0.45759  -0.44616  -0.43855
 Alpha  occ. eigenvalues --   -0.43132  -0.42749  -0.42671  -0.42353  -0.41527
 Alpha  occ. eigenvalues --   -0.41066  -0.40558  -0.40310  -0.39738  -0.38967
 Alpha  occ. eigenvalues --   -0.38028  -0.37614  -0.37017  -0.35974  -0.35703
 Alpha  occ. eigenvalues --   -0.35348  -0.35082  -0.34866  -0.34307  -0.32822
 Alpha  occ. eigenvalues --   -0.32651  -0.31656  -0.29918  -0.26289  -0.24686
 Alpha  occ. eigenvalues --   -0.24479  -0.23534  -0.22039  -0.18608
 Alpha virt. eigenvalues --   -0.04589  -0.02636  -0.00786  -0.00139   0.02703
 Alpha virt. eigenvalues --    0.06187   0.08745   0.09362   0.10140   0.10351
 Alpha virt. eigenvalues --    0.11110   0.11285   0.12116   0.12565   0.13401

 Mulliken charges:
               1
     1  C   -0.464316
     2  C    0.430544
     3  C    0.050606
     4  C   -0.269344
     5  C    0.121637
     6  C   -0.348560
     7  C   -0.438084
     8  C    0.125341
     9  C   -0.349482
    10  C   -0.437625
    11  C   -0.260200
    12  C    0.110685
    13  C   -0.176304
    14  N   -0.659390
    15  C    0.352562
    16  C   -0.174066
    17  C   -0.154580
    18  C    0.235877
    19  N   -0.499110
    20  C    0.038530
    21  C   -0.154255
    22  C   -0.152896
    23  C    0.167973
    24  C   -0.281564
    25  H    0.137898
    26  H    0.150191
    27  H    0.129901
    28  H    0.146353
    29  H    0.146736
    30  H    0.151143
    31  H    0.145388
    32  H    0.152161
    33  H    0.148119
    34  H    0.144289
    35  H    0.145491
    36  H    0.152881
    37  H    0.150434
    38  H    0.121542
    39  H    0.167672
    40  H    0.162434
    41  H    0.155299
    42  H    0.144906
    43  H    0.136352
    44  H    0.134050
    45  H    0.135274
    46  H    0.127510
 Sum of Mulliken charges =  -0.00000

 Dipole moment (field-independent basis, Debye):
    X=             -3.1674    Y=             -2.4487    Z=             -0.9151  Tot=              4.1069
 Quadrupole moment (field-independent basis, Debye-Ang):
   XX=           -136.3702   YY=           -132.7039   ZZ=           -144.5290
   XY=             -9.2078   XZ=             -6.5574   YZ=              3.8390

 1\1\GINC-NODE07\FOpt\RB3LYP\6-31G(d)\C22H22N2\WYKGROUP\04-Nov-2022\0\\
 #p b3lyp/6-31g(d) opt SCF=XQC\\Gaussian input prepared by ASE\\0,1\C,1
 .2412359364,-1.9152472535,1.5830831478\C,0.6477782317,-0.9806113948,0.
 8169924239\C,-0.8020602635,-0.7242108875,0.7295147843\C,-1.8805880513,
 -1.4281038722,1.2603782567\C,-3.1914283817,-0.9794778775,1.0549852842\
 C,-4.3287318671,-1.7622975701,1.6880267326\C,-4.6890011801,-1.26341853
 13,3.0999367707\C,-3.4151876376,0.2022421917,0.30609296\C,-4.810696939
 2,0.7172854941,0.0028931247\C,-5.405036862,0.1207837791,-1.2870897272\

 Normal termination of Gaussian 16 at Fri Nov  4 23:15:23 2022.
