 Gaussian 16, Revision B.01,
 Gaussian 16:  ES64L-G16RevB.01 20-Dec-2017

 -------------------------------------------------------------------
 #p b3lyp/6-31g(d) 6D 10F nosymm GFInput td=(50-50,nstate=2) SCF=XQC
 -------------------------------------------------------------------

 ------------------------------
 Gaussian input prepared by ASE
 ------------------------------
 Symbolic Z-matrix:
 Charge =  0 Multiplicity = 1

                          Input orientation:
 ---------------------------------------------------------------------
 Center     Atomic      Atomic             Coordinates (Angstroms)
 Number     Number       Type             X           Y           Z
 ---------------------------------------------------------------------
      1          6           0        1.241236   -1.915247    1.583083
      2          6           0        0.647778   -0.980611    0.816992
      3          6           0       -0.802060   -0.724211    0.729515
      4          6           0       -1.880588   -1.428104    1.260378
      5          6           0       -3.191428   -0.979478    1.054985
      6          6           0       -4.328732   -1.762298    1.688027
      7          6           0       -4.689001   -1.263419    3.099937
      8          6           0       -3.415188    0.202242    0.306093
      9          6           0       -4.810697    0.717285    0.002893
     10          6           0       -5.405037    0.120784   -1.287090
     11          6           0       -2.317665    0.904435   -0.215103
     12          6           0       -1.026493    0.439489   -0.007069
     13          6           0        0.292932    1.019157   -0.438343
     14          7           0        1.255139   -0.001519   -0.000901
     15          6           0        2.590402    0.054195   -0.417212
     16          6           0        3.343623   -1.145171   -0.616628
     17          6           0        4.638101   -1.100531   -1.069196
     18          6           0        5.272379    0.135085   -1.368312
     19          7           0        6.560969    0.122995   -1.811963
     20          6           0        7.122875    1.283196   -2.092154
     21          6           0        6.469051    2.533723   -1.960156
     22          6           0        5.167682    2.559000   -1.516179
     23          6           0        4.516565    1.338112   -1.200177
     24          6           0        3.184254    1.271338   -0.724007
     25          1           0        0.627887   -2.590655    2.167841
     26          1           0        2.314146   -2.014740    1.677408
     27          1           0       -1.714756   -2.337237    1.833992
     28          1           0       -4.038025   -2.818120    1.750756
     29          1           0       -5.221275   -1.732444    1.053814
     30          1           0       -5.009292   -0.215538    3.084662
     31          1           0       -5.501956   -1.860186    3.529519
     32          1           0       -3.824580   -1.333292    3.769477
     33          1           0       -5.488518    0.518214    0.839853
     34          1           0       -4.769843    1.808797   -0.100206
     35          1           0       -6.405404    0.525479   -1.479628
     36          1           0       -5.487020   -0.969956   -1.222383
     37          1           0       -4.771897    0.352298   -2.150812
     38          1           0       -2.492645    1.815229   -0.785106
     39          1           0        0.374399    1.176644   -1.522546
     40          1           0        0.479422    1.990542    0.047286
     41          1           0        2.866698   -2.100475   -0.435665
     42          1           0        5.206990   -2.011153   -1.230183
     43          1           0        8.153327    1.248926   -2.444972
     44          1           0        6.997696    3.449202   -2.209510
     45          1           0        4.630850    3.498202   -1.401175
     46          1           0        2.637700    2.199813   -0.589836
 ---------------------------------------------------------------------

 SCF Done:  E(RB3LYP) =  -961.104345658     A.U. after   15 cycles

 Excitation energies and oscillator strengths:

 Excited state symmetry could not be determined.
 Excited State   1:      Triplet-?Sym    2.4908 eV  497.78 nm  f=0.0000  <S**2>=2.000
      82 -> 85         0.14612
      83 -> 85        -0.18314
      83 -> 86        -0.12247
      84 -> 85         0.57170
      84 -> 86        -0.25935
 This state for optimization and/or second-order correction.
 Total Energy, E(TD-HF/TD-DFT) =  -961.012812018
 Copying the excited state density for this state as the 1-particle RhoCI density.

 Excited state symmetry could not be determined.
 Excited State   2:      Triplet-?Sym    2.8203 eV  439.61 nm  f=0.0000  <S**2>=2.000
      82 -> 85         0.13323
      83 -> 85        -0.31306
      83 -> 86         0.18034
      84 -> 85         0.14445
      84 -> 86         0.49556
      84 -> 87        -0.14137
      84 -> 90        -0.12554

 Excited state symmetry could not be determined.
 Excited State   3:      Singlet-?Sym    3.3250 eV  372.89 nm  f=0.1028  <S**2>=0.000
      84 -> 85         0.68322
      84 -> 86         0.14045

 Excited state symmetry could not be determined.
 Excited State   4:      Singlet-?Sym    3.8702 eV  320.36 nm  f=0.1009  <S**2>=0.000
      84 -> 85        -0.14159
      84 -> 86         0.66311
      84 -> 87         0.13633

 Alpha  occ. eigenvalues --  -14.36627 -14.32109 -10.23490 -10.23326 -10.22924
 Alpha  occ. eigenvalues --  -10.21591 -10.21516 -10.20198 -10.20023 -10.19879
 Alpha  occ. eigenvalues --  -10.19771 -10.19758 -10.19458 -10.19371 -10.19265
 Alpha  occ. eigenvalues --  -10.19235 -10.19127 -10.19117 -10.19057 -10.18817
 Alpha  occ. eigenvalues --  -10.18709 -10.18210 -10.18102 -10.16325  -0.97111
 Alpha  occ. eigenvalues --   -0.93373  -0.86904  -0.84220  -0.80473  -0.79785
 Alpha  occ. eigenvalues --   -0.78817  -0.77098  -0.75419  -0.73911  -0.72194
 Alpha  occ. eigenvalues --   -0.71660  -0.67518  -0.65440  -0.63842  -0.63236
 Alpha  occ. eigenvalues --   -0.61735  -0.60067  -0.59467  -0.56534  -0.55840
 Alpha  occ. eigenvalues --   -0.52333  -0.51320  -0.50610  -0.48927  -0.48028
 Alpha  occ. eigenvalues --   -0.47200  -0.46713  -0.45759  -0.44616  -0.43855
 Alpha  occ. eigenvalues --   -0.43132  -0.42749  -0.42671  -0.42353  -0.41527
 Alpha  occ. eigenvalues --   -0.41066  -0.40558  -0.40310  -0.39738  -0.38967
 Alpha  occ. eigenvalues --   -0.38028  -0.37614  -0.37017  -0.35974  -0.35703
 Alpha  occ. eigenvalues --   -0.35348  -0.35082  -0.34866  -0.34307  -0.32822
 Alpha  occ. eigenvalues --   -0.32651  -0.31656  -0.29918  -0.26290  -0.24686
 Alpha  occ. eigenvalues --   -0.24479  -0.23534  -0.22039  -0.18608
 Alpha virt. eigenvalues --   -0.04589  -0.02636  -0.00786  -0.00139   0.02703
 Alpha virt. eigenvalues --    0.06187   0.08745   0.09362   0.10140   0.10351
 Alpha virt. eigenvalues --    0.11110   0.11285   0.12116   0.12565   0.13401

 Mulliken charges:
               1
     1  C   -0.464305
     2  C    0.430529
     3  C    0.050604
     4  C   -0.269339
     5  C    0.121622
     6  C   -0.348547
     7  C   -0.438085
     8  C    0.125351
     9  C   -0.349488
    10  C   -0.437622
    11  C   -0.260197
    12  C    0.110680
    13  C   -0.176300
    14  N   -0.659388
    15  C    0.352566
    16  C   -0.174074
    17  C   -0.154568
    18  C    0.235880
    19  N   -0.499122
    20  C    0.038535
    21  C   -0.154256
    22  C   -0.152885
    23  C    0.167965
    24  C   -0.281568
    25  H    0.137898
    26  H    0.150189
    27  H    0.129899
    28  H    0.146353
    29  H    0.146734
    30  H    0.151143
    31  H    0.145388
    32  H    0.152161
    33  H    0.148118
    34  H    0.144289
    35  H    0.145490
    36  H    0.152880
    37  H    0.150433
    38  H    0.121542
    39  H    0.167671
    40  H    0.162433
    41  H    0.155301
    42  H    0.144906
    43  H    0.136351
    44  H    0.134049
    45  H    0.135274
    46  H    0.127510
 Sum of Mulliken charges =  -0.00000

 Dipole moment (field-independent basis, Debye):
    X=             -3.5828    Y=              2.0036    Z=              0.1223  Tot=              4.1068
 Quadrupole moment (field-independent basis, Debye-Ang):
   XX=           -144.4038   YY=           -129.8373   ZZ=           -143.9169
   XY=             10.0879   XZ=             -0.0804   YZ=             -7.2189

 Normal termination of Gaussian 16 at Sat Nov  5 09:56:16 2022.
