 Gaussian 16, Revision B.01,
 Gaussian 16:  ES64L-G16RevB.01 20-Dec-2017

 -----------------------------
 #p b3lyp/6-31g(d) opt SCF=XQC
 -----------------------------

 ------------------------------
 Gaussian input prepared by ASE
 ------------------------------
 Symbolic Z-matrix:
 Charge =  0 Multiplicity = 1

 SCF Done:  E(RB3LYP) =  -1225.36178249     A.U. after   15 cycles
 SCF Done:  E(RB3LYP) =  -1225.36753278     A.U. after   13 cycles
 SCF Done:  E(RB3LYP) =  -1225.36353641     A.U. after   15 cycles
 SCF Done:  E(RB3LYP) =  -1225.36831107     A.U. after   13 cycles
 SCF Done:  E(RB3LYP) =  -1225.36870824     A.U. after   12 cycles
 SCF Done:  E(RB3LYP) =  -1225.36897005     A.U. after   11 cycles
 SCF Done:  E(RB3LYP) =  -1225.36899650     A.U. after   12 cycles
 SCF Done:  E(RB3LYP) =  -1225.36901243     A.U. after   10 cycles
 SCF Done:  E(RB3LYP) =  -1225.36901527     A.U. after    9 cycles
 SCF Done:  E(RB3LYP) =  -1225.36901596     A.U. after    8 cycles
 SCF Done:  E(RB3LYP) =  -1225.36909218     A.U. after    9 cycles
 SCF Done:  E(RB3LYP) =  -1225.36895927     A.U. after   12 cycles
 SCF Done:  E(RB3LYP) =  -1225.36921536     A.U. after   12 cycles
 SCF Done:  E(RB3LYP) =  -1225.36931408     A.U. after   11 cycles
 SCF Done:  E(RB3LYP) =  -1225.36935330     A.U. after   11 cycles
 SCF Done:  E(RB3LYP) =  -1225.36935780     A.U. after   10 cycles
 SCF Done:  E(RB3LYP) =  -1225.36935943     A.U. after   10 cycles
 SCF Done:  E(RB3LYP) =  -1225.36935969     A.U. after    8 cycles
 SCF Done:  E(RB3LYP) =  -1225.36935981     A.U. after    7 cycles
 SCF Done:  E(RB3LYP) =  -1225.36935983     A.U. after    7 cycles
 Optimization completed.
    -- Stationary point found.

                         Standard orientation:
 ---------------------------------------------------------------------
 Center     Atomic      Atomic             Coordinates (Angstroms)
 Number     Number       Type             X           Y           Z
 ---------------------------------------------------------------------
      1          8           0       -2.802858   -3.774190   -0.109750
      2          6           0       -2.581238   -2.570603   -0.007707
      3          6           0       -1.198569   -2.097239    0.175696
      4          6           0       -0.760362   -0.845974   -0.077489
      5          6           0        0.618528   -0.403703   -0.010892
      6          6           0        1.762877   -1.190198   -0.013820
      7          7           0        2.833401   -0.354906   -0.010982
      8          6           0        4.212722   -0.702322   -0.016763
      9          6           0        5.148966    0.216558   -0.501599
     10          6           0        6.498559   -0.127889   -0.518088
     11          6           0        6.918847   -1.379863   -0.063406
     12          6           0        5.977292   -2.287510    0.423553
     13          6           0        4.624515   -1.951944    0.457940
     14          7           0        2.459846    0.949126   -0.011149
     15          6           0        1.126420    0.939859   -0.009635
     16          6           0        0.398549    2.220667   -0.000869
     17          6           0        0.957073    3.353198   -0.613966
     18          6           0        0.257474    4.555813   -0.583235
     19          7           0       -0.939559    4.713125    0.000086
     20          6           0       -1.462726    3.632206    0.589457
     21          6           0       -0.846837    2.380556    0.624440
     22          6           0       -3.737127   -1.608079   -0.136130
     23          6           0       -4.736546   -1.910951   -1.075818
     24          6           0       -5.858062   -1.101734   -1.229685
     25          6           0       -6.020937    0.022479   -0.415045
     26          6           0       -5.063562    0.329757    0.550296
     27          6           0       -3.945744   -0.487242    0.672475
     28          9           0       -3.048935   -0.177152    1.642767
     29          1           0       -0.508354   -2.889435    0.457649
     30          1           0       -1.481277   -0.092109   -0.379328
     31          1           0        1.876518   -2.261293   -0.079093
     32          1           0        4.808229    1.182696   -0.853315
     33          1           0        7.224505    0.586920   -0.895045
     34          1           0        7.972221   -1.643516   -0.082500
     35          1           0        6.293673   -3.258471    0.793659
     36          1           0        3.903630   -2.648610    0.873329
     37          1           0        1.920792    3.284445   -1.106641
     38          1           0        0.677456    5.442123   -1.056295
     39          1           0       -2.429845    3.771454    1.070375
     40          1           0       -1.328649    1.562833    1.148915
     41          1           0       -4.606392   -2.802385   -1.681038
     42          1           0       -6.607914   -1.349451   -1.974948
     43          1           0       -6.896205    0.656652   -0.522848
     44          1           0       -5.171603    1.179580    1.216277
 ---------------------------------------------------------------------

 The electronic state is 1-A.
 Alpha  occ. eigenvalues --  -24.71892 -19.13353 -14.44313 -14.36723 -14.32825
 Alpha  occ. eigenvalues --  -10.28602 -10.27819 -10.25425 -10.24510 -10.23602
 Alpha  occ. eigenvalues --  -10.22213 -10.22164 -10.22150 -10.22117 -10.21359
 Alpha  occ. eigenvalues --  -10.21354 -10.21132 -10.21100 -10.21006 -10.20822
 Alpha  occ. eigenvalues --  -10.20706 -10.20676 -10.20674 -10.20582 -10.20168
 Alpha  occ. eigenvalues --  -10.19948 -10.19934 -10.19767  -1.22810  -1.07384
 Alpha  occ. eigenvalues --   -1.03230  -0.93866  -0.89614  -0.87164  -0.85331
 Alpha  occ. eigenvalues --   -0.83403  -0.80718  -0.78926  -0.76993  -0.76360
 Alpha  occ. eigenvalues --   -0.75972  -0.75754  -0.74338  -0.67859  -0.66564
 Alpha  occ. eigenvalues --   -0.64245  -0.62972  -0.62531  -0.62440  -0.61002
 Alpha  occ. eigenvalues --   -0.58780  -0.57866  -0.56488  -0.56141  -0.53472
 Alpha  occ. eigenvalues --   -0.52104  -0.50526  -0.50046  -0.49457  -0.48677
 Alpha  occ. eigenvalues --   -0.47992  -0.47852  -0.47493  -0.46793  -0.45895
 Alpha  occ. eigenvalues --   -0.45758  -0.45073  -0.44512  -0.44102  -0.43708
 Alpha  occ. eigenvalues --   -0.42621  -0.41557  -0.41230  -0.40696  -0.39796
 Alpha  occ. eigenvalues --   -0.39573  -0.38789  -0.38157  -0.37789  -0.36966
 Alpha  occ. eigenvalues --   -0.36614  -0.36385  -0.36134  -0.35808  -0.33040
 Alpha  occ. eigenvalues --   -0.31457  -0.30600  -0.27587  -0.27023  -0.26924
 Alpha  occ. eigenvalues --   -0.26156  -0.25611  -0.25391  -0.25111  -0.24794
 Alpha  occ. eigenvalues --   -0.22676
 Alpha virt. eigenvalues --   -0.07486  -0.05105  -0.02994  -0.01906  -0.01085
 Alpha virt. eigenvalues --   -0.01028  -0.00526   0.02642   0.05741   0.07379
 Alpha virt. eigenvalues --    0.07947   0.09555   0.10282   0.10769   0.12302

 Mulliken charges:
               1
     1  O   -0.472345
     2  C    0.386679
     3  C   -0.191362
     4  C   -0.151450
     5  C   -0.017686
     6  C    0.057908
     7  N   -0.365778
     8  C    0.325647
     9  C   -0.143949
    10  C   -0.140569
    11  C   -0.119224
    12  C   -0.141964
    13  C   -0.163606
    14  N   -0.371433
    15  C    0.228639
    16  C    0.139536
    17  C   -0.164677
    18  C    0.034507
    19  N   -0.407569
    20  C    0.030121
    21  C   -0.200613
    22  C   -0.001763
    23  C   -0.156420
    24  C   -0.130841
    25  C   -0.124012
    26  C   -0.193728
    27  C    0.325338
    28  F   -0.289720
    29  H    0.139202
    30  H    0.160666
    31  H    0.185518
    32  H    0.170269
    33  H    0.143143
    34  H    0.139331
    35  H    0.142462
    36  H    0.144745
    37  H    0.151580
    38  H    0.141917
    39  H    0.139873
    40  H    0.158310
    41  H    0.163471
    42  H    0.141663
    43  H    0.146193
    44  H    0.151990
 Sum of Mulliken charges =  -0.00000

 Dipole moment (field-independent basis, Debye):
    X=              2.5341    Y=             -0.7527    Z=             -1.0872  Tot=              2.8584
 Quadrupole moment (field-independent basis, Debye-Ang):
   XX=           -122.9608   YY=           -176.9573   ZZ=           -158.5217
   XY=            -13.4043   XZ=              1.1452   YZ=             -2.4185

 Normal termination of Gaussian 16 at Fri Nov  4 23:56:47 2022.
