 Gaussian 16, Revision B.01,
 Gaussian 16:  ES64L-G16RevB.01 20-Dec-2017

 -------------------------------------------------------------------
 #p b3lyp/6-31g(d) 6D 10F nosymm GFInput td=(50-50,nstate=2) SCF=XQC
 -------------------------------------------------------------------

 ------------------------------
 Gaussian input prepared by ASE
 ------------------------------
 Symbolic Z-matrix:
 Charge =  0 Multiplicity = 1

                          Input orientation:
 ---------------------------------------------------------------------
 Center     Atomic      Atomic             Coordinates (Angstroms)
 Number     Number       Type             X           Y           Z
 ---------------------------------------------------------------------
      1          8           0        3.275872   -2.708193    2.375584
      2          6           0        2.952201   -1.772094    1.649563
      3          6           0        1.578102   -1.698661    1.124260
      4          6           0        0.978118   -0.583536    0.657026
      5          6           0       -0.408494   -0.478107    0.247672
      6          6           0       -1.450782   -1.344081    0.550726
      7          7           0       -2.585797   -0.819146    0.021646
      8          6           0       -3.903980   -1.350410    0.080035
      9          6           0       -4.996866   -0.489692   -0.063921
     10          6           0       -6.287976   -1.007992    0.004772
     11          6           0       -6.496437   -2.371776    0.222608
     12          6           0       -5.399139   -3.223062    0.359462
     13          6           0       -4.101025   -2.720634    0.280359
     14          7           0       -2.353000    0.355902   -0.614836
     15          6           0       -1.044010    0.577621   -0.490347
     16          6           0       -0.459847    1.789681   -1.090351
     17          6           0       -1.225461    2.961077   -1.200498
     18          6           0       -0.657370    4.090797   -1.781594
     19          7           0        0.597435    4.142797   -2.251335
     20          6           0        1.319145    3.020988   -2.150701
     21          6           0        0.849093    1.831445   -1.592839
     22          6           0        3.965961   -0.689209    1.369067
     23          6           0        4.821088   -0.309298    2.416926
     24          6           0        5.812609    0.649696    2.233841
     25          6           0        5.992542    1.231883    0.975785
     26          6           0        5.182460    0.850290   -0.092402
     27          6           0        4.190098   -0.099007    0.122046
     28          9           0        3.439952   -0.470195   -0.946312
     29          1           0        1.029123   -2.632055    1.228497
     30          1           0        1.557828    0.332366    0.592245
     31          1           0       -1.463387   -2.243479    1.146833
     32          1           0       -4.820049    0.565980   -0.229818
     33          1           0       -7.135787   -0.338119   -0.107173
     34          1           0       -7.505729   -2.768813    0.278863
     35          1           0       -5.548521   -4.287736    0.514364
     36          1           0       -3.253651   -3.394957    0.349738
     37          1           0       -2.245450    2.979922   -0.832426
     38          1           0       -1.238628    5.007138   -1.871993
     39          1           0        2.333297    3.068578   -2.544685
     40          1           0        1.492509    0.958738   -1.575945
     41          1           0        4.684195   -0.791279    3.379652
     42          1           0        6.449616    0.937215    3.064872
     43          1           0        6.768127    1.976478    0.821071
     44          1           0        5.312019    1.262939   -1.087559
 ---------------------------------------------------------------------

 SCF Done:  E(RB3LYP) =  -1225.36936377     A.U. after   16 cycles

 Excitation energies and oscillator strengths:

 Excited state symmetry could not be determined.
 Excited State   1:      Triplet-?Sym    2.5164 eV  492.70 nm  f=0.0000  <S**2>=2.000
      94 -> 97        -0.19092
      95 -> 97         0.25340
      96 -> 97         0.57239
 This state for optimization and/or second-order correction.
 Total Energy, E(TD-HF/TD-DFT) =  -1225.27688627
 Copying the excited state density for this state as the 1-particle RhoCI density.

 Excited state symmetry could not be determined.
 Excited State   2:      Triplet-?Sym    2.9190 eV  424.75 nm  f=0.0000  <S**2>=2.000
      89 -> 97         0.13374
      93 -> 97         0.10273
      94 -> 97         0.28932
      95 -> 97         0.56514
      95 -> 99        -0.12177
      96 -> 97        -0.10981

 Excited state symmetry could not be determined.
 Excited State   3:      Singlet-?Sym    3.4179 eV  362.74 nm  f=0.0034  <S**2>=0.000
      89 -> 97         0.18044
      94 -> 97         0.21319
      95 -> 97         0.60543
      96 -> 97         0.12842

 Excited state symmetry could not be determined.
 Excited State   4:      Singlet-?Sym    3.7356 eV  331.90 nm  f=0.4562  <S**2>=0.000
      95 -> 97        -0.17564
      96 -> 97         0.67281

 Alpha  occ. eigenvalues --  -24.71892 -19.13353 -14.44313 -14.36723 -14.32825
 Alpha  occ. eigenvalues --  -10.28602 -10.27819 -10.25425 -10.24510 -10.23602
 Alpha  occ. eigenvalues --  -10.22213 -10.22164 -10.22150 -10.22117 -10.21359
 Alpha  occ. eigenvalues --  -10.21354 -10.21132 -10.21100 -10.21006 -10.20822
 Alpha  occ. eigenvalues --  -10.20706 -10.20676 -10.20674 -10.20582 -10.20168
 Alpha  occ. eigenvalues --  -10.19948 -10.19934 -10.19767  -1.22810  -1.07384
 Alpha  occ. eigenvalues --   -1.03230  -0.93866  -0.89614  -0.87164  -0.85331
 Alpha  occ. eigenvalues --   -0.83403  -0.80718  -0.78926  -0.76993  -0.76360
 Alpha  occ. eigenvalues --   -0.75972  -0.75754  -0.74338  -0.67859  -0.66564
 Alpha  occ. eigenvalues --   -0.64245  -0.62972  -0.62531  -0.62440  -0.61002
 Alpha  occ. eigenvalues --   -0.58780  -0.57866  -0.56488  -0.56141  -0.53472
 Alpha  occ. eigenvalues --   -0.52104  -0.50526  -0.50046  -0.49457  -0.48677
 Alpha  occ. eigenvalues --   -0.47992  -0.47852  -0.47493  -0.46793  -0.45895
 Alpha  occ. eigenvalues --   -0.45758  -0.45073  -0.44512  -0.44102  -0.43708
 Alpha  occ. eigenvalues --   -0.42621  -0.41557  -0.41230  -0.40696  -0.39795
 Alpha  occ. eigenvalues --   -0.39573  -0.38789  -0.38157  -0.37789  -0.36966
 Alpha  occ. eigenvalues --   -0.36614  -0.36385  -0.36134  -0.35808  -0.33040
 Alpha  occ. eigenvalues --   -0.31457  -0.30600  -0.27587  -0.27024  -0.26924
 Alpha  occ. eigenvalues --   -0.26156  -0.25611  -0.25391  -0.25111  -0.24794
 Alpha  occ. eigenvalues --   -0.22676
 Alpha virt. eigenvalues --   -0.07486  -0.05105  -0.02994  -0.01906  -0.01085
 Alpha virt. eigenvalues --   -0.01028  -0.00526   0.02642   0.05741   0.07379
 Alpha virt. eigenvalues --    0.07947   0.09555   0.10282   0.10769   0.12302

 Mulliken charges:
               1
     1  O   -0.472342
     2  C    0.386705
     3  C   -0.191376
     4  C   -0.151442
     5  C   -0.017671
     6  C    0.057897
     7  N   -0.365774
     8  C    0.325638
     9  C   -0.143938
    10  C   -0.140581
    11  C   -0.119220
    12  C   -0.141967
    13  C   -0.163599
    14  N   -0.371433
    15  C    0.228622
    16  C    0.139544
    17  C   -0.164675
    18  C    0.034505
    19  N   -0.407571
    20  C    0.030135
    21  C   -0.200630
    22  C   -0.001784
    23  C   -0.156422
    24  C   -0.130843
    25  C   -0.124011
    26  C   -0.193715
    27  C    0.325327
    28  F   -0.289716
    29  H    0.139202
    30  H    0.160665
    31  H    0.185517
    32  H    0.170269
    33  H    0.143144
    34  H    0.139331
    35  H    0.142462
    36  H    0.144746
    37  H    0.151580
    38  H    0.141917
    39  H    0.139873
    40  H    0.158316
    41  H    0.163472
    42  H    0.141663
    43  H    0.146193
    44  H    0.151987
 Sum of Mulliken charges =  -0.00000

 Dipole moment (field-independent basis, Debye):
    X=             -2.5889    Y=             -0.5405    Z=              1.0843  Tot=              2.8583
 Quadrupole moment (field-independent basis, Debye-Ang):
   XX=           -128.3130   YY=           -164.6142   ZZ=           -166.1095
   XY=             18.6485   XZ=             -3.8070   YZ=              9.7533

 Normal termination of Gaussian 16 at Sat Nov  5 09:59:44 2022.
