 Gaussian 16, Revision B.01,
 Gaussian 16:  ES64L-G16RevB.01 20-Dec-2017

 -----------------------------
 #p b3lyp/6-31g(d) opt SCF=XQC
 -----------------------------

 ------------------------------
 Gaussian input prepared by ASE
 ------------------------------
 Symbolic Z-matrix:
 Charge =  0 Multiplicity = 1

 SCF Done:  E(RB3LYP) =  -1266.38726753     A.U. after   15 cycles
 SCF Done:  E(RB3LYP) =  -1266.39508128     A.U. after   13 cycles
 SCF Done:  E(RB3LYP) =  -1266.39588766     A.U. after   13 cycles
 SCF Done:  E(RB3LYP) =  -1266.39642652     A.U. after   12 cycles
 SCF Done:  E(RB3LYP) =  -1266.39657949     A.U. after   12 cycles
 SCF Done:  E(RB3LYP) =  -1266.39660634     A.U. after   11 cycles
 SCF Done:  E(RB3LYP) =  -1266.39669797     A.U. after   11 cycles
 SCF Done:  E(RB3LYP) =  -1266.39673834     A.U. after   11 cycles
 SCF Done:  E(RB3LYP) =  -1266.39674379     A.U. after   10 cycles
 SCF Done:  E(RB3LYP) =  -1266.39674797     A.U. after   10 cycles
 SCF Done:  E(RB3LYP) =  -1266.39676904     A.U. after   11 cycles
 SCF Done:  E(RB3LYP) =  -1266.39678216     A.U. after    9 cycles
 SCF Done:  E(RB3LYP) =  -1266.39676633     A.U. after   11 cycles
 SCF Done:  E(RB3LYP) =  -1266.39677861     A.U. after   10 cycles
 SCF Done:  E(RB3LYP) =  -1266.39678281     A.U. after   10 cycles
 SCF Done:  E(RB3LYP) =  -1266.39678467     A.U. after    9 cycles
 SCF Done:  E(RB3LYP) =  -1266.39678458     A.U. after    7 cycles
 SCF Done:  E(RB3LYP) =  -1266.39678458     A.U. after    6 cycles
 SCF Done:  E(RB3LYP) =  -1266.39678489     A.U. after    8 cycles
 SCF Done:  E(RB3LYP) =  -1266.39678491     A.U. after    8 cycles
 Optimization completed.
    -- Stationary point found.

                         Standard orientation:
 ---------------------------------------------------------------------
 Center     Atomic      Atomic             Coordinates (Angstroms)
 Number     Number       Type             X           Y           Z
 ---------------------------------------------------------------------
      1          6           0       -7.712417    0.250654   -0.009390
      2          8           0       -6.587468    0.259051   -0.872782
      3          6           0       -5.352633    0.054340   -0.326203
      4          6           0       -4.272656    0.100050   -1.220330
      5          6           0       -2.974958   -0.094964   -0.764540
      6          6           0       -2.706897   -0.341598    0.591960
      7          6           0       -1.291433   -0.610557    1.112003
      8          6           0       -1.020931   -2.140710    1.281496
      9          6           0       -1.146846   -3.006136    0.026641
     10          7           0       -2.416674   -3.435590   -0.259706
     11          8           0       -0.183657   -3.346033   -0.651829
     12          6           0       -0.210902    0.122217    0.353611
     13          6           0        0.824850   -0.401157   -0.382025
     14          7           0        1.624422    0.610515   -0.884228
     15          6           0        2.827922    0.396276   -1.674658
     16          6           0        4.054438   -0.007612   -0.871185
     17          6           0        4.392322    0.640931    0.323773
     18          6           0        5.540764    0.281603    1.024523
     19          6           0        6.390369   -0.733207    0.559687
     20          6           0        7.618827   -1.135354    1.342311
     21          6           0        6.048350   -1.375276   -0.634875
     22          6           0        4.895201   -1.021307   -1.337607
     23          6           0        1.113316    1.826544   -0.461861
     24          6           0        1.564493    3.132618   -0.689675
     25          6           0        0.832731    4.176551   -0.133057
     26          6           0       -0.322059    3.930326    0.635532
     27          6           0       -0.767054    2.633328    0.861747
     28          6           0       -0.048358    1.556730    0.314991
     29          6           0       -3.794992   -0.378098    1.470026
     30          6           0       -5.109571   -0.187616    1.030479
     31          1           0       -8.579496    0.440157   -0.644805
     32          1           0       -7.642889    1.038025    0.752963
     33          1           0       -7.834288   -0.721068    0.488087
     34          1           0       -4.476430    0.297270   -2.268416
     35          1           0       -2.148476   -0.047280   -1.467369
     36          1           0       -1.269606   -0.222967    2.141656
     37          1           0       -0.005934   -2.279614    1.663506
     38          1           0       -1.718926   -2.519166    2.037498
     39          1           0       -3.210506   -2.941130    0.124784
     40          1           0       -2.545944   -3.866005   -1.166493
     41          1           0        1.052578   -1.436626   -0.596867
     42          1           0        2.612935   -0.372652   -2.425119
     43          1           0        3.019745    1.322619   -2.228241
     44          1           0        3.749927    1.427753    0.710196
     45          1           0        5.783906    0.798945    1.950364
     46          1           0        8.333718   -1.677911    0.715135
     47          1           0        7.358509   -1.790767    2.184186
     48          1           0        8.131530   -0.262086    1.761356
     49          1           0        6.685966   -2.168713   -1.018551
     50          1           0        4.648823   -1.543531   -2.259924
     51          1           0        2.456828    3.332996   -1.276336
     52          1           0        1.160127    5.200147   -0.294323
     53          1           0       -0.871723    4.768907    1.054573
     54          1           0       -1.665039    2.453763    1.446835
     55          1           0       -3.620930   -0.553670    2.530445
     56          1           0       -5.920893   -0.217463    1.749050
 ---------------------------------------------------------------------

 The electronic state is 1-A.
 Alpha  occ. eigenvalues --  -19.18056 -19.10764 -14.36941 -14.34875 -10.28363
 Alpha  occ. eigenvalues --  -10.24926 -10.24459 -10.23060 -10.20646 -10.20618
 Alpha  occ. eigenvalues --  -10.19881 -10.19416 -10.19329 -10.19243 -10.19216
 Alpha  occ. eigenvalues --  -10.19191 -10.19135 -10.18780 -10.18585 -10.18579
 Alpha  occ. eigenvalues --  -10.18354 -10.18333 -10.18276 -10.18166 -10.17951
 Alpha  occ. eigenvalues --  -10.17462 -10.17401 -10.17163 -10.17016 -10.16969
 Alpha  occ. eigenvalues --   -1.06633  -1.02441  -0.97486  -0.89634  -0.85846
 Alpha  occ. eigenvalues --   -0.85442  -0.83213  -0.81061  -0.78874  -0.76261
 Alpha  occ. eigenvalues --   -0.75085  -0.74230  -0.73874  -0.73355  -0.70907
 Alpha  occ. eigenvalues --   -0.70163  -0.69614  -0.66451  -0.63833  -0.61338
 Alpha  occ. eigenvalues --   -0.60481  -0.60307  -0.58676  -0.57728  -0.57237
 Alpha  occ. eigenvalues --   -0.56468  -0.54368  -0.53525  -0.52557  -0.51059
 Alpha  occ. eigenvalues --   -0.49464  -0.48521  -0.47937  -0.47145  -0.46881
 Alpha  occ. eigenvalues --   -0.46621  -0.45936  -0.45148  -0.44877  -0.44452
 Alpha  occ. eigenvalues --   -0.43648  -0.42891  -0.42713  -0.42299  -0.41749
 Alpha  occ. eigenvalues --   -0.41568  -0.41278  -0.41010  -0.40336  -0.40040
 Alpha  occ. eigenvalues --   -0.39451  -0.38634  -0.38206  -0.37798  -0.37626
 Alpha  occ. eigenvalues --   -0.36842  -0.35713  -0.35289  -0.34726  -0.34307
 Alpha  occ. eigenvalues --   -0.34058  -0.33550  -0.33238  -0.32769  -0.32280
 Alpha  occ. eigenvalues --   -0.31312  -0.31128  -0.26671  -0.25993  -0.25159
 Alpha  occ. eigenvalues --   -0.24513  -0.24287  -0.23426  -0.21741  -0.20779
 Alpha  occ. eigenvalues --   -0.18937
 Alpha virt. eigenvalues --   -0.00637   0.00021   0.00184   0.00276   0.00749
 Alpha virt. eigenvalues --    0.02554   0.03699   0.06869   0.08704   0.09347
 Alpha virt. eigenvalues --    0.10206   0.10323   0.10572   0.11851   0.12031

 Mulliken charges:
               1
     1  C   -0.214733
     2  O   -0.506174
     3  C    0.373527
     4  C   -0.178708
     5  C   -0.178407
     6  C    0.147038
     7  C   -0.246563
     8  C   -0.364201
     9  C    0.583767
    10  N   -0.731759
    11  O   -0.509041
    12  C    0.031458
    13  C   -0.026872
    14  N   -0.516634
    15  C   -0.251259
    16  C    0.169884
    17  C   -0.176479
    18  C   -0.179801
    19  C    0.179099
    20  C   -0.529972
    21  C   -0.179709
    22  C   -0.185161
    23  C    0.305457
    24  C   -0.170126
    25  C   -0.152825
    26  C   -0.140258
    27  C   -0.213084
    28  C    0.076097
    29  C   -0.214249
    30  C   -0.197498
    31  H    0.171218
    32  H    0.153285
    33  H    0.149248
    34  H    0.140682
    35  H    0.148357
    36  H    0.147292
    37  H    0.175745
    38  H    0.148021
    39  H    0.344618
    40  H    0.334573
    41  H    0.200122
    42  H    0.169031
    43  H    0.172315
    44  H    0.146197
    45  H    0.123402
    46  H    0.155253
    47  H    0.166377
    48  H    0.158077
    49  H    0.122564
    50  H    0.125158
    51  H    0.126062
    52  H    0.119577
    53  H    0.116752
    54  H    0.125185
    55  H    0.125989
    56  H    0.132087
 Sum of Mulliken charges =  -0.00000

 Dipole moment (field-independent basis, Debye):
    X=             -2.2741    Y=             -0.1485    Z=              1.1054  Tot=              2.5329
 Quadrupole moment (field-independent basis, Debye-Ang):
   XX=           -134.9276   YY=           -180.4600   ZZ=           -166.4828
   XY=              5.1146   XZ=             -7.9589   YZ=             -0.5751

 Normal termination of Gaussian 16 at Sat Nov  5 00:36:52 2022.
