 Gaussian 16, Revision B.01,
 Gaussian 16:  ES64L-G16RevB.01 20-Dec-2017

 -------------------------------------------------------------------
 #p b3lyp/6-31g(d) 6D 10F nosymm GFInput td=(50-50,nstate=2) SCF=XQC
 -------------------------------------------------------------------

 ------------------------------
 Gaussian input prepared by ASE
 ------------------------------
 Symbolic Z-matrix:
 Charge =  0 Multiplicity = 1

                          Input orientation:
 ---------------------------------------------------------------------
 Center     Atomic      Atomic             Coordinates (Angstroms)
 Number     Number       Type             X           Y           Z
 ---------------------------------------------------------------------
      1          6           0        7.726568    1.107028   -0.346705
      2          8           0        6.721594    0.492159    0.442591
      3          6           0        5.442857    0.477514   -0.037087
      4          6           0        4.483946   -0.118401    0.795547
      5          6           0        3.153853   -0.183632    0.400083
      6          6           0        2.732373    0.339672   -0.833320
      7          6           0        1.282212    0.235213   -1.315444
      8          6           0        1.089125   -0.957775   -2.306789
      9          6           0        1.426900   -2.353419   -1.779948
     10          7           0        2.747205   -2.708791   -1.876872
     11          8           0        0.580554   -3.130418   -1.351514
     12          6           0        0.262412    0.278368   -0.202876
     13          6           0       -0.637009   -0.689969    0.172928
     14          7           0       -1.428600   -0.240219    1.215095
     15          6           0       -2.506579   -1.006496    1.823265
     16          6           0       -3.797064   -1.039730    1.019162
     17          6           0       -4.323478    0.118449    0.432471
     18          6           0       -5.526476    0.073939   -0.267460
     19          6           0       -6.244995   -1.122835   -0.406033
     20          6           0       -7.534874   -1.166542   -1.191930
     21          6           0       -5.714945   -2.274975    0.183737
     22          6           0       -4.506699   -2.235385    0.881916
     23          6           0       -1.052456    1.055956    1.526215
     24          6           0       -1.552356    1.943515    2.487271
     25          6           0       -0.963938    3.200937    2.575306
     26          6           0        0.097515    3.571512    1.726255
     27          6           0        0.590925    2.689735    0.772100
     28          6           0        0.016248    1.412663    0.656495
     29          6           0        3.700773    0.935158   -1.648109
     30          6           0        5.045809    1.007841   -1.269691
     31          1           0        8.653430    1.014112    0.222314
     32          1           0        7.511824    2.170230   -0.518335
     33          1           0        7.845340    0.603695   -1.315792
     34          1           0        4.805873   -0.517679    1.752545
     35          1           0        2.421572   -0.639645    1.059728
     36          1           0        1.105995    1.126059   -1.936917
     37          1           0        0.044706   -0.983356   -2.629248
     38          1           0        1.708264   -0.759048   -3.189479
     39          1           0        3.453370   -1.990401   -1.964850
     40          1           0        3.016935   -3.552765   -1.387809
     41          1           0       -0.770213   -1.687079   -0.224868
     42          1           0       -2.150498   -2.029964    1.985676
     43          1           0       -2.684654   -0.580377    2.817285
     44          1           0       -3.785847    1.058887    0.519716
     45          1           0       -5.916810    0.985767   -0.714843
     46          1           0       -8.129167   -2.050327   -0.937909
     47          1           0       -7.342486   -1.200882   -2.272621
     48          1           0       -8.150319   -0.279640   -1.003001
     49          1           0       -6.247777   -3.218709    0.090147
     50          1           0       -4.113302   -3.148844    1.323412
     51          1           0       -2.374119    1.669507    3.143175
     52          1           0       -1.331967    3.909433    3.312554
     53          1           0        0.535967    4.561169    1.822599
     54          1           0        1.417174    2.980623    0.128945
     55          1           0        3.405341    1.362748   -2.604925
     56          1           0        5.759968    1.485408   -1.931040
 ---------------------------------------------------------------------

 SCF Done:  E(RB3LYP) =  -1266.39677997     A.U. after   15 cycles

 Excitation energies and oscillator strengths:

 Excited state symmetry could not be determined.
 Excited State   1:      Triplet-?Sym    3.2397 eV  382.71 nm  f=0.0000  <S**2>=2.000
     105 ->113        -0.14722
     106 ->107         0.15417
     106 ->108         0.49584
     106 ->109        -0.37336
 This state for optimization and/or second-order correction.
 Total Energy, E(TD-HF/TD-DFT) =  -1266.27772409
 Copying the excited state density for this state as the 1-particle RhoCI density.

 Excited state symmetry could not be determined.
 Excited State   2:      Triplet-?Sym    3.6648 eV  338.31 nm  f=0.0000  <S**2>=2.000
     100 ->107         0.36278
     104 ->107        -0.28389
     104 ->111         0.46064
     106 ->111        -0.10594

 Excited state symmetry could not be determined.
 Excited State   3:      Singlet-?Sym    4.3729 eV  283.53 nm  f=0.0054  <S**2>=0.000
     106 ->107         0.69836

 Excited state symmetry could not be determined.
 Excited State   4:      Singlet-?Sym    4.5715 eV  271.21 nm  f=0.0028  <S**2>=0.000
     106 ->108         0.58933
     106 ->109         0.37154

 Alpha  occ. eigenvalues --  -19.18056 -19.10764 -14.36941 -14.34875 -10.28363
 Alpha  occ. eigenvalues --  -10.24926 -10.24459 -10.23060 -10.20646 -10.20618
 Alpha  occ. eigenvalues --  -10.19881 -10.19416 -10.19329 -10.19243 -10.19216
 Alpha  occ. eigenvalues --  -10.19191 -10.19135 -10.18780 -10.18585 -10.18579
 Alpha  occ. eigenvalues --  -10.18354 -10.18333 -10.18276 -10.18166 -10.17950
 Alpha  occ. eigenvalues --  -10.17462 -10.17401 -10.17163 -10.17016 -10.16969
 Alpha  occ. eigenvalues --   -1.06633  -1.02441  -0.97486  -0.89634  -0.85846
 Alpha  occ. eigenvalues --   -0.85442  -0.83213  -0.81061  -0.78874  -0.76261
 Alpha  occ. eigenvalues --   -0.75085  -0.74230  -0.73874  -0.73355  -0.70906
 Alpha  occ. eigenvalues --   -0.70163  -0.69614  -0.66451  -0.63833  -0.61338
 Alpha  occ. eigenvalues --   -0.60481  -0.60306  -0.58676  -0.57728  -0.57237
 Alpha  occ. eigenvalues --   -0.56468  -0.54368  -0.53525  -0.52557  -0.51059
 Alpha  occ. eigenvalues --   -0.49464  -0.48521  -0.47936  -0.47145  -0.46881
 Alpha  occ. eigenvalues --   -0.46621  -0.45936  -0.45148  -0.44877  -0.44452
 Alpha  occ. eigenvalues --   -0.43648  -0.42891  -0.42713  -0.42299  -0.41749
 Alpha  occ. eigenvalues --   -0.41568  -0.41278  -0.41010  -0.40336  -0.40040
 Alpha  occ. eigenvalues --   -0.39451  -0.38634  -0.38206  -0.37798  -0.37626
 Alpha  occ. eigenvalues --   -0.36842  -0.35713  -0.35289  -0.34726  -0.34307
 Alpha  occ. eigenvalues --   -0.34058  -0.33550  -0.33238  -0.32769  -0.32280
 Alpha  occ. eigenvalues --   -0.31312  -0.31128  -0.26671  -0.25993  -0.25159
 Alpha  occ. eigenvalues --   -0.24513  -0.24287  -0.23426  -0.21741  -0.20779
 Alpha  occ. eigenvalues --   -0.18937
 Alpha virt. eigenvalues --   -0.00637   0.00022   0.00184   0.00276   0.00749
 Alpha virt. eigenvalues --    0.02555   0.03699   0.06869   0.08704   0.09347
 Alpha virt. eigenvalues --    0.10206   0.10323   0.10572   0.11851   0.12031

 Mulliken charges:
               1
     1  C   -0.214735
     2  O   -0.506174
     3  C    0.373534
     4  C   -0.178715
     5  C   -0.178403
     6  C    0.147045
     7  C   -0.246572
     8  C   -0.364236
     9  C    0.583785
    10  N   -0.731761
    11  O   -0.509045
    12  C    0.031466
    13  C   -0.026848
    14  N   -0.516658
    15  C   -0.251248
    16  C    0.169880
    17  C   -0.176474
    18  C   -0.179798
    19  C    0.179104
    20  C   -0.529986
    21  C   -0.179703
    22  C   -0.185173
    23  C    0.305483
    24  C   -0.170131
    25  C   -0.152826
    26  C   -0.140252
    27  C   -0.213086
    28  C    0.076079
    29  C   -0.214246
    30  C   -0.197504
    31  H    0.171219
    32  H    0.153286
    33  H    0.149248
    34  H    0.140682
    35  H    0.148357
    36  H    0.147291
    37  H    0.175749
    38  H    0.148025
    39  H    0.344619
    40  H    0.334572
    41  H    0.200123
    42  H    0.169031
    43  H    0.172314
    44  H    0.146197
    45  H    0.123401
    46  H    0.155255
    47  H    0.166379
    48  H    0.158080
    49  H    0.122562
    50  H    0.125159
    51  H    0.126063
    52  H    0.119576
    53  H    0.116751
    54  H    0.125187
    55  H    0.125988
    56  H    0.132086
 Sum of Mulliken charges =  -0.00000

 Dipole moment (field-independent basis, Debye):
    X=              2.1207    Y=              0.7772    Z=             -1.1462  Tot=              2.5328
 Quadrupole moment (field-independent basis, Debye-Ang):
   XX=           -136.5286   YY=           -175.9292   ZZ=           -169.1065
   XY=              4.8139   XZ=            -10.9749   YZ=             -7.6920

 Normal termination of Gaussian 16 at Sat Nov  5 10:13:12 2022.
