 Gaussian 16, Revision B.01,
 Gaussian 16:  ES64L-G16RevB.01 20-Dec-2017

 -------------------------------------------------------------------
 #p b3lyp/6-31g(d) 6D 10F nosymm GFInput td=(50-50,nstate=2) SCF=XQC
 -------------------------------------------------------------------

 ------------------------------
 Gaussian input prepared by ASE
 ------------------------------
 Symbolic Z-matrix:
 Charge =  0 Multiplicity = 1

                          Input orientation:
 ---------------------------------------------------------------------
 Center     Atomic      Atomic             Coordinates (Angstroms)
 Number     Number       Type             X           Y           Z
 ---------------------------------------------------------------------
      1          6           0       -1.868943    0.108342   -1.389076
      2          7           0       -1.266933   -0.363054   -0.150737
      3          6           0       -2.051102   -0.278006    1.072353
      4          7           0        0.100438   -0.118765   -0.011177
      5          6           0        0.923673   -1.316027   -0.138228
      6          8           0        0.415252   -2.396443   -0.345728
      7          6           0        2.353444   -1.083170    0.003993
      8          6           0        2.821341    0.159170    0.233742
      9          7           0        1.965982    1.225007    0.337893
     10          6           0        0.590807    1.153545    0.224916
     11         16           0       -0.302922    2.558466    0.379533
     12          1           0       -2.816399   -0.426301   -1.516945
     13          1           0       -1.217373   -0.162112   -2.225139
     14          1           0       -2.061818    1.189387   -1.413732
     15          1           0       -2.994810   -0.804651    0.893677
     16          1           0       -1.520501   -0.805020    1.870732
     17          1           0       -2.269825    0.748173    1.397300
     18          1           0        3.008012   -1.939904   -0.082206
     19          1           0        3.874266    0.393111    0.348351
     20          1           0        2.317409    2.158251    0.510478
 ---------------------------------------------------------------------

 SCF Done:  E(RB3LYP) =  -871.692989138     A.U. after   15 cycles

 Excitation energies and oscillator strengths:

 Excited state symmetry could not be determined.
 Excited State   1:      Triplet-?Sym    3.0228 eV  410.17 nm  f=0.0000  <S**2>=2.000
      42 -> 46        -0.11819
      42 -> 47        -0.11850
      43 -> 46         0.65450
      43 -> 47        -0.19220
 This state for optimization and/or second-order correction.
 Total Energy, E(TD-HF/TD-DFT) =  -871.581904218
 Copying the excited state density for this state as the 1-particle RhoCI density.

 Excited state symmetry could not be determined.
 Excited State   2:      Triplet-?Sym    3.2926 eV  376.55 nm  f=0.0000  <S**2>=2.000
      44 -> 46        -0.27921
      44 -> 47         0.18677
      45 -> 46         0.56755
      45 -> 47        -0.24982

 Excited state symmetry could not be determined.
 Excited State   3:      Singlet-?Sym    3.4789 eV  356.39 nm  f=0.0000  <S**2>=0.000
      44 -> 46        -0.10910
      44 -> 47         0.10060
      45 -> 46         0.66670
      45 -> 47        -0.17905

 Excited state symmetry could not be determined.
 Excited State   4:      Singlet-?Sym    3.7529 eV  330.37 nm  f=0.0000  <S**2>=0.000
      44 -> 46         0.65723
      44 -> 47        -0.14449
      45 -> 46         0.16490
      45 -> 47         0.13116

 Alpha  occ. eigenvalues --  -88.83841 -19.13206 -14.42932 -14.42109 -14.36522
 Alpha  occ. eigenvalues --  -10.32564 -10.30800 -10.27711 -10.21470 -10.20514
 Alpha  occ. eigenvalues --  -10.20513  -7.90095  -5.86651  -5.86060  -5.85677
 Alpha  occ. eigenvalues --   -1.06896  -1.02552  -0.98958  -0.85971  -0.82679
 Alpha  occ. eigenvalues --   -0.74508  -0.71576  -0.68801  -0.66129  -0.62165
 Alpha  occ. eigenvalues --   -0.58104  -0.56123  -0.51563  -0.49389  -0.47801
 Alpha  occ. eigenvalues --   -0.45320  -0.44550  -0.43878  -0.42442  -0.39863
 Alpha  occ. eigenvalues --   -0.39816  -0.39495  -0.38523  -0.37744  -0.34098
 Alpha  occ. eigenvalues --   -0.27199  -0.26844  -0.22993  -0.22949  -0.21945
 Alpha virt. eigenvalues --   -0.05430  -0.03117   0.04408   0.09694   0.09913
 Alpha virt. eigenvalues --    0.10376   0.11527   0.12247   0.14273   0.15168
 Alpha virt. eigenvalues --    0.15754   0.15978   0.17958   0.18588   0.19342

 Mulliken charges:
               1
     1  C   -0.293151
     2  N   -0.237698
     3  C   -0.293153
     4  N   -0.415761
     5  C    0.626539
     6  O   -0.466026
     7  C   -0.241764
     8  C    0.110003
     9  N   -0.594325
    10  C    0.366326
    11  S   -0.253349
    12  H    0.157619
    13  H    0.159353
    14  H    0.167701
    15  H    0.157614
    16  H    0.159344
    17  H    0.167713
    18  H    0.170784
    19  H    0.184841
    20  H    0.367389
 Sum of Mulliken charges =  -0.00000

 Dipole moment (field-independent basis, Debye):
    X=              3.4464    Y=              0.7376    Z=              0.3709  Tot=              3.5439
 Quadrupole moment (field-independent basis, Debye-Ang):
   XX=            -53.3251   YY=            -85.6905   ZZ=            -70.8210
   XY=              4.8247   XZ=              2.0404   YZ=             -2.0045

 Normal termination of Gaussian 16 at Sat Nov  5 11:10:41 2022.
