 Gaussian 16, Revision B.01,
 Gaussian 16:  ES64L-G16RevB.01 20-Dec-2017

 -----------------------------
 #p b3lyp/6-31g(d) opt SCF=XQC
 -----------------------------

 ------------------------------
 Gaussian input prepared by ASE
 ------------------------------
 Symbolic Z-matrix:
 Charge =  0 Multiplicity = 1

 SCF Done:  E(RB3LYP) =  -871.688711621     A.U. after   15 cycles
 SCF Done:  E(RB3LYP) =  -871.692183815     A.U. after   13 cycles
 SCF Done:  E(RB3LYP) =  -871.692667310     A.U. after   12 cycles
 SCF Done:  E(RB3LYP) =  -871.692916112     A.U. after   11 cycles
 SCF Done:  E(RB3LYP) =  -871.692970464     A.U. after   11 cycles
 SCF Done:  E(RB3LYP) =  -871.692986523     A.U. after   11 cycles
 SCF Done:  E(RB3LYP) =  -871.692988744     A.U. after    8 cycles
 SCF Done:  E(RB3LYP) =  -871.692989564     A.U. after    8 cycles
 SCF Done:  E(RB3LYP) =  -871.692989934     A.U. after    8 cycles
 SCF Done:  E(RB3LYP) =  -871.692989982     A.U. after    7 cycles
 Optimization completed.
    -- Stationary point found.

                         Standard orientation:
 ---------------------------------------------------------------------
 Center     Atomic      Atomic             Coordinates (Angstroms)
 Number     Number       Type             X           Y           Z
 ---------------------------------------------------------------------
      1          6           0        1.908678   -1.053886    1.249133
      2          7           0        1.162091   -1.071707   -0.000028
      3          6           0        1.908843   -1.053558   -1.249083
      4          7           0       -0.034864   -0.353267   -0.000036
      5          6           0       -1.223488   -1.198529   -0.000174
      6          8           0       -1.122921   -2.406309   -0.000038
      7          6           0       -2.482924   -0.468793   -0.000024
      8          6           0       -2.489125    0.878457    0.000031
      9          7           0       -1.316137    1.587395    0.000045
     10          6           0       -0.051702    1.030456    0.000046
     11         16           0        1.275303    2.048063    0.000030
     12          1           0        2.610485   -1.894519    1.223288
     13          1           0        1.215634   -1.222790    2.078501
     14          1           0        2.468409   -0.125642    1.426703
     15          1           0        2.610666   -1.894181   -1.223358
     16          1           0        1.215913   -1.222265   -2.078586
     17          1           0        2.468576   -0.125252   -1.426336
     18          1           0       -3.394866   -1.050381    0.000004
     19          1           0       -3.394869    1.475235    0.000081
     20          1           0       -1.320743    2.599427    0.000085
 ---------------------------------------------------------------------

 The electronic state is 1-A.
 Alpha  occ. eigenvalues --  -88.83841 -19.13206 -14.42932 -14.42109 -14.36522
 Alpha  occ. eigenvalues --  -10.32564 -10.30800 -10.27711 -10.21470 -10.20514
 Alpha  occ. eigenvalues --  -10.20513  -7.90095  -5.86651  -5.86060  -5.85677
 Alpha  occ. eigenvalues --   -1.06896  -1.02552  -0.98958  -0.85971  -0.82679
 Alpha  occ. eigenvalues --   -0.74508  -0.71576  -0.68801  -0.66129  -0.62165
 Alpha  occ. eigenvalues --   -0.58104  -0.56123  -0.51563  -0.49389  -0.47801
 Alpha  occ. eigenvalues --   -0.45320  -0.44550  -0.43878  -0.42442  -0.39863
 Alpha  occ. eigenvalues --   -0.39817  -0.39495  -0.38523  -0.37744  -0.34097
 Alpha  occ. eigenvalues --   -0.27199  -0.26844  -0.22992  -0.22949  -0.21945
 Alpha virt. eigenvalues --   -0.05430  -0.03117   0.04408   0.09694   0.09913
 Alpha virt. eigenvalues --    0.10376   0.11527   0.12247   0.14273   0.15168
 Alpha virt. eigenvalues --    0.15754   0.15978   0.17958   0.18588   0.19342

 Mulliken charges:
               1
     1  C   -0.293157
     2  N   -0.237686
     3  C   -0.293158
     4  N   -0.415754
     5  C    0.626506
     6  O   -0.466016
     7  C   -0.241736
     8  C    0.109972
     9  N   -0.594296
    10  C    0.366313
    11  S   -0.253349
    12  H    0.157620
    13  H    0.159354
    14  H    0.167703
    15  H    0.157615
    16  H    0.159345
    17  H    0.167714
    18  H    0.170784
    19  H    0.184841
    20  H    0.367388
 Sum of Mulliken charges =  -0.00000

 Dipole moment (field-independent basis, Debye):
    X=             -2.9744    Y=              1.9266    Z=              0.0000  Tot=              3.5439
 Quadrupole moment (field-independent basis, Debye-Ang):
   XX=            -60.9918   YY=            -79.8504   ZZ=            -70.6571
   XY=            -13.4401   XZ=             -0.0003   YZ=             -0.0004

 Normal termination of Gaussian 16 at Fri Nov  4 18:15:58 2022.
