 Gaussian 16, Revision B.01,
 Gaussian 16:  ES64L-G16RevB.01 20-Dec-2017

 -------------------------------------------------------------------
 #p b3lyp/6-31g(d) 6D 10F nosymm GFInput td=(50-50,nstate=2) SCF=XQC
 -------------------------------------------------------------------

 ------------------------------
 Gaussian input prepared by ASE
 ------------------------------
 Symbolic Z-matrix:
 Charge =  0 Multiplicity = 1

                          Input orientation:
 ---------------------------------------------------------------------
 Center     Atomic      Atomic             Coordinates (Angstroms)
 Number     Number       Type             X           Y           Z
 ---------------------------------------------------------------------
      1          6           0       -2.164636    1.823796   -1.718354
      2          6           0       -1.487720    0.823306   -0.812688
      3          6           0       -2.236287   -0.073354   -0.036742
      4          7           0       -3.683514   -0.071971   -0.094070
      5          6           0       -4.428972    0.590080    0.912899
      6          8           0       -5.597372    0.394885    1.149984
      7          8           0       -3.612797    1.451265    1.549605
      8          6           0       -4.082568    2.220321    2.718723
      9          6           0       -2.830323    3.005938    3.115477
     10          6           0       -5.212679    3.166066    2.300077
     11          6           0       -4.504994    1.264819    3.839333
     12          6           0       -4.359028   -0.762194   -1.128378
     13          8           0       -5.539874   -0.663796   -1.366283
     14          8           0       -3.464008   -1.509530   -1.801802
     15          6           0       -3.873211   -2.313626   -2.970075
     16          6           0       -4.889135   -3.376505   -2.539770
     17          6           0       -4.415932   -1.400221   -4.073858
     18          6           0       -2.553616   -2.960960   -3.397147
     19          6           0       -1.617597   -0.990298    0.813118
     20          6           0       -0.233865   -1.019638    0.903659
     21          6           0        0.524450   -0.140647    0.131968
     22          7           0        1.967296   -0.196675    0.251964
     23          6           0        2.628439   -1.198545   -0.497180
     24          8           0        2.064124   -2.212235   -0.851868
     25          8           0        3.874811   -0.826184   -0.813611
     26          6           0        4.782553   -1.751113   -1.526241
     27          6           0        6.079184   -0.942145   -1.604061
     28          6           0        4.982539   -3.026716   -0.702707
     29          6           0        4.237154   -2.037070   -2.929009
     30          6           0        2.562534    0.735587    1.128031
     31          8           0        1.997506    1.763224    1.444586
     32          8           0        3.740548    0.298675    1.589365
     33          6           0        4.567241    1.147231    2.473996
     34          6           0        5.809328    0.280266    2.692306
     35          6           0        4.931010    2.451769    1.758865
     36          6           0        3.835348    1.387440    3.798277
     37          6           0       -0.077688    0.777465   -0.739852
     38          6           0        0.753222    1.723278   -1.573054
     39          1           0       -3.235842    1.884818   -1.519638
     40          1           0       -1.741563    2.825783   -1.587992
     41          1           0       -2.036596    1.557303   -2.776229
     42          1           0       -2.007561    2.326746    3.359311
     43          1           0       -3.041337    3.629169    3.990913
     44          1           0       -2.505768    3.655634    2.296545
     45          1           0       -4.888224    3.800960    1.468319
     46          1           0       -5.474267    3.817231    3.141854
     47          1           0       -6.100614    2.610327    1.995225
     48          1           0       -3.688538    0.574510    4.078421
     49          1           0       -4.736362    1.841571    4.741833
     50          1           0       -5.387491    0.688223    3.557580
     51          1           0       -4.482474   -3.981534   -1.722113
     52          1           0       -5.098936   -4.043391   -3.383678
     53          1           0       -5.824041   -2.919886   -2.211489
     54          1           0       -5.348541   -0.922340   -3.770331
     55          1           0       -4.601181   -1.991527   -4.977658
     56          1           0       -3.682368   -0.624848   -4.321697
     57          1           0       -1.814525   -2.197547   -3.659857
     58          1           0       -2.716857   -3.603189   -4.269061
     59          1           0       -2.141265   -3.570241   -2.586984
     60          1           0       -2.228210   -1.675132    1.393162
     61          1           0        0.268200   -1.726607    1.555250
     62          1           0        5.916009   -0.000803   -2.138590
     63          1           0        6.845963   -1.514493   -2.136388
     64          1           0        6.452800   -0.710574   -0.601638
     65          1           0        5.756427   -3.645155   -1.170846
     66          1           0        5.312678   -2.776229    0.311143
     67          1           0        4.061363   -3.608551   -0.642026
     68          1           0        4.065103   -1.099424   -3.468871
     69          1           0        4.971485   -2.623251   -3.492981
     70          1           0        3.301434   -2.595534   -2.882375
     71          1           0        5.536866   -0.678402    3.145263
     72          1           0        6.510297    0.792123    3.359821
     73          1           0        6.316756    0.082922    1.742692
     74          1           0        4.049600    3.074270    1.596983
     75          1           0        5.397794    2.237019    0.791492
     76          1           0        5.649180    3.012996    2.367006
     77          1           0        4.501160    1.912441    4.492520
     78          1           0        3.553078    0.432783    4.255528
     79          1           0        2.937106    1.987951    3.649485
     80          1           0        0.393066    1.765671   -2.606551
     81          1           0        0.711908    2.741839   -1.167334
     82          1           0        1.802813    1.424380   -1.591509
 ---------------------------------------------------------------------

 SCF Done:  E(RB3LYP) =  -1804.89124981     A.U. after   15 cycles

 Excitation energies and oscillator strengths:

 Excited state symmetry could not be determined.
 Excited State   1:      Triplet-?Sym    3.5875 eV  345.60 nm  f=0.0000  <S**2>=2.000
     141 ->146        -0.16480
     142 ->146         0.11317
     143 ->146         0.12619
     144 ->147        -0.39296
     144 ->148         0.23937
     144 ->149         0.11036
     145 ->146         0.45670
 This state for optimization and/or second-order correction.
 Total Energy, E(TD-HF/TD-DFT) =  -1804.75941229
 Copying the excited state density for this state as the 1-particle RhoCI density.

 Excited state symmetry could not be determined.
 Excited State   2:      Triplet-?Sym    4.4598 eV  278.00 nm  f=0.0000  <S**2>=2.000
     144 ->146         0.58474
     144 ->147        -0.16076
     145 ->146        -0.17324
     145 ->147        -0.23872
     145 ->148         0.14310

 Excited state symmetry could not be determined.
 Excited State   3:      Singlet-?Sym    5.1371 eV  241.35 nm  f=0.0010  <S**2>=0.000
     144 ->146         0.46548
     145 ->147         0.47558
     145 ->148        -0.17983

 Excited state symmetry could not be determined.
 Excited State   4:      Singlet-?Sym    5.4853 eV  226.03 nm  f=0.0020  <S**2>=0.000
     141 ->149         0.11112
     143 ->147        -0.11832
     143 ->149        -0.21457
     144 ->146        -0.10043
     145 ->148        -0.22546
     145 ->149         0.56489

 Alpha  occ. eigenvalues --  -19.19005 -19.18914 -19.17944 -19.17929 -19.13205
 Alpha  occ. eigenvalues --  -19.13066 -19.12032 -19.11939 -14.38197 -14.37829
 Alpha  occ. eigenvalues --  -10.34682 -10.34603 -10.33576 -10.33543 -10.26434
 Alpha  occ. eigenvalues --  -10.26416 -10.25428 -10.25418 -10.22760 -10.22673
 Alpha  occ. eigenvalues --  -10.20046 -10.19898 -10.18971 -10.18852 -10.18633
 Alpha  occ. eigenvalues --  -10.18618 -10.18162 -10.18049 -10.18037 -10.18031
 Alpha  occ. eigenvalues --  -10.17912 -10.17873 -10.17412 -10.17402 -10.17173
 Alpha  occ. eigenvalues --  -10.17148 -10.16981 -10.16971  -1.11656  -1.10491
 Alpha  occ. eigenvalues --   -1.09833  -1.08952  -1.02227  -1.01686  -1.01315
 Alpha  occ. eigenvalues --   -1.00298  -0.94512  -0.94043  -0.85203  -0.81623
 Alpha  occ. eigenvalues --   -0.81421  -0.81031  -0.79930  -0.78087  -0.75371
 Alpha  occ. eigenvalues --   -0.70399  -0.70019  -0.69996  -0.69779  -0.69734
 Alpha  occ. eigenvalues --   -0.69021  -0.68963  -0.68831  -0.68824  -0.67764
 Alpha  occ. eigenvalues --   -0.67269  -0.66897  -0.64638  -0.60800  -0.59692
 Alpha  occ. eigenvalues --   -0.59075  -0.58407  -0.54590  -0.52674  -0.52170
 Alpha  occ. eigenvalues --   -0.51237  -0.50974  -0.50517  -0.50461  -0.49977
 Alpha  occ. eigenvalues --   -0.48117  -0.47055  -0.46976  -0.46600  -0.46295
 Alpha  occ. eigenvalues --   -0.46138  -0.45851  -0.45701  -0.45462  -0.44740
 Alpha  occ. eigenvalues --   -0.44086  -0.43963  -0.43939  -0.43404  -0.43364
 Alpha  occ. eigenvalues --   -0.43018  -0.42446  -0.42095  -0.41906  -0.41769
 Alpha  occ. eigenvalues --   -0.41381  -0.40881  -0.40615  -0.40006  -0.39922
 Alpha  occ. eigenvalues --   -0.39782  -0.39587  -0.39514  -0.38870  -0.38783
 Alpha  occ. eigenvalues --   -0.38601  -0.38430  -0.38114  -0.37651  -0.37560
 Alpha  occ. eigenvalues --   -0.37310  -0.37021  -0.36389  -0.36347  -0.36216
 Alpha  occ. eigenvalues --   -0.36152  -0.35506  -0.35411  -0.35372  -0.35257
 Alpha  occ. eigenvalues --   -0.34874  -0.34589  -0.34465  -0.34386  -0.34232
 Alpha  occ. eigenvalues --   -0.33563  -0.33248  -0.32814  -0.30218  -0.29456
 Alpha  occ. eigenvalues --   -0.29189  -0.29096  -0.28958  -0.27779  -0.27614
 Alpha  occ. eigenvalues --   -0.27002  -0.26220  -0.25746  -0.23764  -0.23163
 Alpha virt. eigenvalues --   -0.00753  -0.00539   0.00536   0.01673   0.05964
 Alpha virt. eigenvalues --    0.06113   0.07766   0.07897   0.08333   0.08911
 Alpha virt. eigenvalues --    0.08995   0.09560   0.10364   0.10534   0.11016

 Mulliken charges:
               1
     1  C   -0.543364
     2  C    0.128985
     3  C    0.245420
     4  N   -0.663077
     5  C    0.810103
     6  O   -0.471424
     7  O   -0.514908
     8  C    0.313018
     9  C   -0.450213
    10  C   -0.466128
    11  C   -0.469449
    12  C    0.816459
    13  O   -0.474463
    14  O   -0.516859
    15  C    0.313460
    16  C   -0.467343
    17  C   -0.468828
    18  C   -0.449314
    19  C   -0.149708
    20  C   -0.134486
    21  C    0.210068
    22  N   -0.643694
    23  C    0.812783
    24  O   -0.495515
    25  O   -0.496307
    26  C    0.312426
    27  C   -0.461160
    28  C   -0.471293
    29  C   -0.465177
    30  C    0.819418
    31  O   -0.503157
    32  O   -0.500164
    33  C    0.312997
    34  C   -0.461392
    35  C   -0.470338
    36  C   -0.465470
    37  C    0.129490
    38  C   -0.533172
    39  H    0.171548
    40  H    0.163577
    41  H    0.163766
    42  H    0.163040
    43  H    0.143019
    44  H    0.155581
    45  H    0.147311
    46  H    0.141724
    47  H    0.191693
    48  H    0.148006
    49  H    0.143692
    50  H    0.188254
    51  H    0.149293
    52  H    0.141964
    53  H    0.191434
    54  H    0.189515
    55  H    0.143413
    56  H    0.144940
    57  H    0.155761
    58  H    0.142933
    59  H    0.162037
    60  H    0.138910
    61  H    0.141170
    62  H    0.155592
    63  H    0.148286
    64  H    0.160937
    65  H    0.145660
    66  H    0.153642
    67  H    0.187307
    68  H    0.148340
    69  H    0.143790
    70  H    0.190574
    71  H    0.156229
    72  H    0.148217
    73  H    0.160495
    74  H    0.186831
    75  H    0.152303
    76  H    0.145442
    77  H    0.143528
    78  H    0.149162
    79  H    0.190258
    80  H    0.154080
    81  H    0.178380
    82  H    0.160136
 Sum of Mulliken charges =  -0.00000

 Dipole moment (field-independent basis, Debye):
    X=              6.7035    Y=              0.4271    Z=             -0.0591  Tot=              6.7174
 Quadrupole moment (field-independent basis, Debye-Ang):
   XX=           -233.7953   YY=           -219.3638   ZZ=           -206.8401
   XY=             -3.0967   XZ=              1.2418   YZ=              5.5392

 Normal termination of Gaussian 16 at Sat Nov  5 11:55:57 2022.
