 Gaussian 16, Revision B.01,
 Gaussian 16:  ES64L-G16RevB.01 20-Dec-2017

 -----------------------------
 #p b3lyp/6-31g(d) opt SCF=XQC
 -----------------------------

 ------------------------------
 Gaussian input prepared by ASE
 ------------------------------
 Symbolic Z-matrix:
 Charge =  0 Multiplicity = 1

 SCF Done:  E(RB3LYP) =  -1804.87964373     A.U. after   15 cycles
 SCF Done:  E(RB3LYP) =  -1804.88761686     A.U. after   12 cycles
 SCF Done:  E(RB3LYP) =  -1804.88818301     A.U. after   12 cycles
 SCF Done:  E(RB3LYP) =  -1804.88983526     A.U. after   12 cycles
 SCF Done:  E(RB3LYP) =  -1804.89042486     A.U. after   11 cycles
 SCF Done:  E(RB3LYP) =  -1804.89055903     A.U. after   12 cycles
 SCF Done:  E(RB3LYP) =  -1804.89065268     A.U. after   11 cycles
 SCF Done:  E(RB3LYP) =  -1804.89074994     A.U. after   10 cycles
 SCF Done:  E(RB3LYP) =  -1804.89084048     A.U. after   11 cycles
 SCF Done:  E(RB3LYP) =  -1804.89088604     A.U. after   11 cycles
 SCF Done:  E(RB3LYP) =  -1804.89119598     A.U. after   12 cycles
 SCF Done:  E(RB3LYP) =  -1804.89125112     A.U. after   12 cycles
 SCF Done:  E(RB3LYP) =  -1804.89124823     A.U. after   10 cycles
 SCF Done:  E(RB3LYP) =  -1804.89125445     A.U. after   10 cycles
 SCF Done:  E(RB3LYP) =  -1804.89125439     A.U. after    9 cycles
 SCF Done:  E(RB3LYP) =  -1804.89125438     A.U. after    7 cycles
 SCF Done:  E(RB3LYP) =  -1804.89125465     A.U. after    9 cycles
 SCF Done:  E(RB3LYP) =  -1804.89125479     A.U. after    9 cycles
 SCF Done:  E(RB3LYP) =  -1804.89125484     A.U. after    9 cycles
 SCF Done:  E(RB3LYP) =  -1804.89125491     A.U. after    7 cycles
 Optimization completed.
    -- Stationary point found.

                         Standard orientation:
 ---------------------------------------------------------------------
 Center     Atomic      Atomic             Coordinates (Angstroms)
 Number     Number       Type             X           Y           Z
 ---------------------------------------------------------------------
      1          6           0        2.091194   -0.147320    2.415054
      2          6           0        1.321074   -0.078466    1.118288
      3          6           0        1.984543    0.007386   -0.114140
      4          7           0        3.431526    0.018949   -0.176294
      5          6           0        4.121673    1.247692   -0.324265
      6          8           0        5.263545    1.358727   -0.702773
      7          8           0        3.287659    2.247968    0.017853
      8          6           0        3.694434    3.659563   -0.126719
      9          6           0        2.440773    4.407775    0.332886
     10          6           0        4.879537    3.957302    0.797258
     11          6           0        4.006100    3.967524   -1.594786
     12          6           0        4.159139   -1.193895   -0.130346
     13          8           0        5.356497   -1.274729    0.012753
     14          8           0        3.293241   -2.218773   -0.243997
     15          6           0        3.761644   -3.617438   -0.187286
     16          6           0        4.711675   -3.895541   -1.356506
     17          6           0        4.409701   -3.900934    1.171701
     18          6           0        2.457650   -4.403322   -0.344601
     19          6           0        1.278995    0.086139   -1.314900
     20          6           0       -0.107921    0.085892   -1.299438
     21          6           0       -0.781943   -0.007889   -0.082855
     22          7           0       -2.230716   -0.003719   -0.102443
     23          6           0       -2.865568   -1.236104   -0.385737
     24          8           0       -2.307570   -2.118431   -1.003768
     25          8           0       -4.074158   -1.303255    0.186125
     26          6           0       -4.955199   -2.468983   -0.042289
     27          6           0       -6.218120   -2.081186    0.729969
     28          6           0       -5.252116   -2.616003   -1.537478
     29          6           0       -4.318624   -3.727178    0.556633
     30          6           0       -2.859646    1.237097    0.133649
     31          8           0       -2.288586    2.141574    0.709246
     32          8           0       -4.080419    1.284910   -0.413037
     33          6           0       -4.943211    2.471908   -0.232300
     34          6           0       -6.223121    2.060940   -0.963740
     35          6           0       -5.215295    2.700271    1.257458
     36          6           0       -4.302096    3.689412   -0.905904
     37          6           0       -0.091274   -0.103824    1.133426
     38          6           0       -0.831231   -0.207548    2.445259
     39          1           0        3.146581    0.087834    2.268238
     40          1           0        1.689868    0.556869    3.151952
     41          1           0        2.032048   -1.148315    2.863410
     42          1           0        1.582659    4.148851   -0.295042
     43          1           0        2.606459    5.488565    0.271456
     44          1           0        2.195760    4.152148    1.368604
     45          1           0        4.635111    3.682466    1.829199
     46          1           0        5.098908    5.030808    0.775019
     47          1           0        5.770216    3.409086    0.486841
     48          1           0        3.154285    3.698255   -2.228973
     49          1           0        4.188737    5.041709   -1.710768
     50          1           0        4.889067    3.424393   -1.935414
     51          1           0        4.229132   -3.641551   -2.306578
     52          1           0        4.961936   -4.962250   -1.377385
     53          1           0        5.633610   -3.319782   -1.262407
     54          1           0        5.331769   -3.331610    1.297872
     55          1           0        4.642067   -4.969059    1.248699
     56          1           0        3.719408   -3.645822    1.983586
     57          1           0        1.762566   -4.167492    0.467380
     58          1           0        2.664253   -5.478636   -0.325730
     59          1           0        1.969850   -4.158065   -1.293031
     60          1           0        1.825405    0.143307   -2.251097
     61          1           0       -0.676613    0.142770   -2.221283
     62          1           0       -5.988752   -1.914538    1.787366
     63          1           0       -6.961148   -2.882264    0.658637
     64          1           0       -6.656128   -1.164662    0.322294
     65          1           0       -6.008244   -3.395319   -1.683974
     66          1           0       -5.647042   -1.677152   -1.940243
     67          1           0       -4.355491   -2.891656   -2.095024
     68          1           0       -4.080132   -3.566660    1.613793
     69          1           0       -5.027429   -4.560416    0.491637
     70          1           0       -3.405787   -3.998898    0.025101
     71          1           0       -6.012807    1.836265   -2.014330
     72          1           0       -6.954922    2.874420   -0.923138
     73          1           0       -6.666256    1.173086   -0.501635
     74          1           0       -4.306325    2.990920    1.786508
     75          1           0       -5.617147    1.789286    1.714008
     76          1           0       -5.958483    3.496858    1.374503
     77          1           0       -5.000388    4.533367   -0.873759
     78          1           0       -4.082195    3.470964   -1.956642
     79          1           0       -3.377947    3.977437   -0.403330
     80          1           0       -0.396228   -0.980045    3.088411
     81          1           0       -0.788996    0.741247    2.994611
     82          1           0       -1.885188   -0.446866    2.292864
 ---------------------------------------------------------------------

 The electronic state is 1-A.
 Alpha  occ. eigenvalues --  -19.19005 -19.18913 -19.17944 -19.17929 -19.13205
 Alpha  occ. eigenvalues --  -19.13066 -19.12032 -19.11939 -14.38197 -14.37829
 Alpha  occ. eigenvalues --  -10.34682 -10.34603 -10.33576 -10.33543 -10.26434
 Alpha  occ. eigenvalues --  -10.26416 -10.25428 -10.25418 -10.22760 -10.22673
 Alpha  occ. eigenvalues --  -10.20046 -10.19898 -10.18971 -10.18852 -10.18633
 Alpha  occ. eigenvalues --  -10.18617 -10.18162 -10.18049 -10.18037 -10.18031
 Alpha  occ. eigenvalues --  -10.17912 -10.17873 -10.17412 -10.17402 -10.17173
 Alpha  occ. eigenvalues --  -10.17148 -10.16981 -10.16971  -1.11656  -1.10491
 Alpha  occ. eigenvalues --   -1.09833  -1.08952  -1.02227  -1.01686  -1.01316
 Alpha  occ. eigenvalues --   -1.00298  -0.94512  -0.94043  -0.85203  -0.81623
 Alpha  occ. eigenvalues --   -0.81421  -0.81031  -0.79930  -0.78087  -0.75371
 Alpha  occ. eigenvalues --   -0.70399  -0.70019  -0.69996  -0.69779  -0.69734
 Alpha  occ. eigenvalues --   -0.69021  -0.68963  -0.68831  -0.68824  -0.67764
 Alpha  occ. eigenvalues --   -0.67269  -0.66897  -0.64638  -0.60800  -0.59692
 Alpha  occ. eigenvalues --   -0.59075  -0.58407  -0.54590  -0.52674  -0.52170
 Alpha  occ. eigenvalues --   -0.51237  -0.50974  -0.50517  -0.50461  -0.49977
 Alpha  occ. eigenvalues --   -0.48117  -0.47055  -0.46976  -0.46600  -0.46295
 Alpha  occ. eigenvalues --   -0.46138  -0.45851  -0.45701  -0.45462  -0.44740
 Alpha  occ. eigenvalues --   -0.44086  -0.43963  -0.43939  -0.43404  -0.43364
 Alpha  occ. eigenvalues --   -0.43018  -0.42446  -0.42095  -0.41906  -0.41769
 Alpha  occ. eigenvalues --   -0.41382  -0.40881  -0.40615  -0.40006  -0.39922
 Alpha  occ. eigenvalues --   -0.39782  -0.39587  -0.39514  -0.38870  -0.38783
 Alpha  occ. eigenvalues --   -0.38601  -0.38430  -0.38114  -0.37651  -0.37559
 Alpha  occ. eigenvalues --   -0.37310  -0.37021  -0.36389  -0.36347  -0.36216
 Alpha  occ. eigenvalues --   -0.36152  -0.35506  -0.35411  -0.35372  -0.35257
 Alpha  occ. eigenvalues --   -0.34874  -0.34589  -0.34465  -0.34386  -0.34232
 Alpha  occ. eigenvalues --   -0.33563  -0.33248  -0.32814  -0.30218  -0.29456
 Alpha  occ. eigenvalues --   -0.29189  -0.29096  -0.28958  -0.27779  -0.27614
 Alpha  occ. eigenvalues --   -0.27002  -0.26220  -0.25746  -0.23764  -0.23163
 Alpha virt. eigenvalues --   -0.00754  -0.00539   0.00535   0.01673   0.05964
 Alpha virt. eigenvalues --    0.06113   0.07766   0.07897   0.08333   0.08911
 Alpha virt. eigenvalues --    0.08995   0.09560   0.10364   0.10534   0.11016

 Mulliken charges:
               1
     1  C   -0.543359
     2  C    0.129031
     3  C    0.245357
     4  N   -0.663104
     5  C    0.810160
     6  O   -0.471442
     7  O   -0.514910
     8  C    0.313004
     9  C   -0.450208
    10  C   -0.466124
    11  C   -0.469449
    12  C    0.816471
    13  O   -0.474462
    14  O   -0.516866
    15  C    0.313493
    16  C   -0.467359
    17  C   -0.468839
    18  C   -0.449315
    19  C   -0.149699
    20  C   -0.134463
    21  C    0.210081
    22  N   -0.643688
    23  C    0.812732
    24  O   -0.495500
    25  O   -0.496292
    26  C    0.312459
    27  C   -0.461163
    28  C   -0.471290
    29  C   -0.465189
    30  C    0.819401
    31  O   -0.503145
    32  O   -0.500159
    33  C    0.312991
    34  C   -0.461383
    35  C   -0.470353
    36  C   -0.465464
    37  C    0.129459
    38  C   -0.533149
    39  H    0.171545
    40  H    0.163576
    41  H    0.163764
    42  H    0.163038
    43  H    0.143019
    44  H    0.155580
    45  H    0.147310
    46  H    0.141725
    47  H    0.191692
    48  H    0.148008
    49  H    0.143692
    50  H    0.188254
    51  H    0.149294
    52  H    0.141966
    53  H    0.191437
    54  H    0.189517
    55  H    0.143413
    56  H    0.144939
    57  H    0.155759
    58  H    0.142932
    59  H    0.162035
    60  H    0.138905
    61  H    0.141160
    62  H    0.155594
    63  H    0.148285
    64  H    0.160932
    65  H    0.145659
    66  H    0.153632
    67  H    0.187308
    68  H    0.148339
    69  H    0.143791
    70  H    0.190577
    71  H    0.156229
    72  H    0.148215
    73  H    0.160496
    74  H    0.186836
    75  H    0.152309
    76  H    0.145443
    77  H    0.143525
    78  H    0.149163
    79  H    0.190256
    80  H    0.154080
    81  H    0.178380
    82  H    0.160129
 Sum of Mulliken charges =  -0.00000

 Dipole moment (field-independent basis, Debye):
    X=             -6.6659    Y=             -0.0414    Z=              0.8282  Tot=              6.7173
 Quadrupole moment (field-independent basis, Debye-Ang):
   XX=           -230.0317   YY=           -206.1999   ZZ=           -220.3751
   XY=             -0.4035   XZ=              3.6028   YZ=             -4.6236

 Normal termination of Gaussian 16 at Fri Nov  4 20:26:33 2022.
