 Gaussian 16, Revision B.01,
 Gaussian 16:  ES64L-G16RevB.01 20-Dec-2017

 -----------------------------
 #p b3lyp/6-31g(d) opt SCF=XQC
 -----------------------------

 ------------------------------
 Gaussian input prepared by ASE
 ------------------------------
 Symbolic Z-matrix:
 Charge =  0 Multiplicity = 1

 SCF Done:  E(RB3LYP) =  -1233.42679295     A.U. after   14 cycles
 SCF Done:  E(RB3LYP) =  -1233.43385165     A.U. after   12 cycles
 SCF Done:  E(RB3LYP) =  -1233.43472224     A.U. after   13 cycles
 SCF Done:  E(RB3LYP) =  -1233.43500944     A.U. after   13 cycles
 SCF Done:  E(RB3LYP) =  -1233.43559215     A.U. after   12 cycles
 SCF Done:  E(RB3LYP) =  -1233.43581703     A.U. after   11 cycles
 SCF Done:  E(RB3LYP) =  -1233.43595983     A.U. after   11 cycles
 SCF Done:  E(RB3LYP) =  -1233.43603084     A.U. after   11 cycles
 SCF Done:  E(RB3LYP) =  -1233.43606672     A.U. after   10 cycles
 SCF Done:  E(RB3LYP) =  -1233.43608618     A.U. after   10 cycles
 SCF Done:  E(RB3LYP) =  -1233.43608880     A.U. after    7 cycles
 SCF Done:  E(RB3LYP) =  -1233.43608993     A.U. after    7 cycles
 SCF Done:  E(RB3LYP) =  -1233.43609068     A.U. after    7 cycles
 SCF Done:  E(RB3LYP) =  -1233.43609094     A.U. after    7 cycles
 SCF Done:  E(RB3LYP) =  -1233.43609104     A.U. after    6 cycles
 SCF Done:  E(RB3LYP) =  -1233.43609110     A.U. after    7 cycles
 SCF Done:  E(RB3LYP) =  -1233.43609112     A.U. after    6 cycles
 Optimization completed.
    -- Stationary point found.

                         Standard orientation:
 ---------------------------------------------------------------------
 Center     Atomic      Atomic             Coordinates (Angstroms)
 Number     Number       Type             X           Y           Z
 ---------------------------------------------------------------------
      1          6           0       -1.970388   -0.610236    1.779895
      2          6           0       -1.983556   -0.370864    0.239288
      3          6           0       -1.270710   -1.574914   -0.410403
      4          6           0        0.211694   -1.618333    0.024740
      5          6           0        0.987435   -0.312549   -0.282037
      6          6           0        0.239557    0.959377    0.217128
      7          6           0       -1.214306    0.888487   -0.280486
      8          6           0       -2.167797    2.072798   -0.154541
      9          6           0       -3.029110    2.253975    1.064625
     10          6           0       -3.565793    1.481749   -0.121366
     11          6           0       -3.451398   -0.044029   -0.219385
     12          6           0       -3.871984   -0.517017   -1.635848
     13          6           0       -5.382060   -0.723348   -1.494002
     14          6           0       -5.543336   -1.079487   -0.021156
     15          8           0       -6.482202   -1.595077    0.527360
     16          8           0       -4.415550   -0.712512    0.649874
     17          6           0        0.942317    2.229160   -0.272887
     18          6           0        1.873617    2.969226    0.638992
     19          6           0        2.436960    2.171604   -0.536107
     20          6           0        3.192059    0.903914   -0.379067
     21          6           0        4.491536    0.882642   -0.765996
     22          6           0        5.354828   -0.282507   -0.627127
     23          8           0        6.581506   -0.220079   -0.666322
     24          6           0        4.698761   -1.640159   -0.359716
     25          8           0        5.136910   -2.105910    0.918212
     26          6           0        3.173227   -1.604363   -0.417346
     27          6           0        2.491287   -0.344033    0.180679
     28          6           0        2.633627   -0.376201    1.726400
     29          1           0       -1.033052   -0.298827    2.245837
     30          1           0       -2.094502   -1.679717    1.979242
     31          1           0       -2.788595   -0.116034    2.299052
     32          1           0       -1.759010   -2.518663   -0.134602
     33          1           0       -1.308795   -1.502122   -1.504696
     34          1           0        0.689960   -2.455512   -0.493397
     35          1           0        0.268614   -1.852065    1.093573
     36          1           0        1.018448   -0.221457   -1.380850
     37          1           0        0.235098    0.971401    1.312105
     38          1           0       -1.132426    0.740505   -1.371064
     39          1           0       -1.964258    2.948420   -0.766171
     40          1           0       -2.786676    1.768135    1.999626
     41          1           0       -3.459992    3.243496    1.195307
     42          1           0       -4.376885    1.942007   -0.681302
     43          1           0       -3.592295    0.203616   -2.409040
     44          1           0       -3.396723   -1.471781   -1.875759
     45          1           0       -5.954664    0.191608   -1.691027
     46          1           0       -5.799651   -1.511981   -2.123997
     47          1           0        0.376966    2.834614   -0.977822
     48          1           0        1.943753    4.050654    0.560891
     49          1           0        2.022534    2.587241    1.644072
     50          1           0        2.815108    2.795372   -1.343054
     51          1           0        4.975563    1.790667   -1.120254
     52          1           0        5.064263   -2.325113   -1.142535
     53          1           0        6.098384   -1.951554    0.930265
     54          1           0        2.884998   -1.679070   -1.474432
     55          1           0        2.803995   -2.506710    0.080041
     56          1           0        2.211695    0.509403    2.208835
     57          1           0        3.686743   -0.451795    2.003855
     58          1           0        2.127302   -1.255473    2.138635
 ---------------------------------------------------------------------

 The electronic state is 1-A.
 Alpha  occ. eigenvalues --  -19.18458 -19.14734 -19.13103 -19.12915 -10.31058
 Alpha  occ. eigenvalues --  -10.26481 -10.26450 -10.23859 -10.22474 -10.21846
 Alpha  occ. eigenvalues --  -10.21246 -10.21167 -10.20884 -10.20874 -10.20649
 Alpha  occ. eigenvalues --  -10.20549 -10.20520 -10.20414 -10.20411 -10.20337
 Alpha  occ. eigenvalues --  -10.20272 -10.19781 -10.19361 -10.19228 -10.19192
 Alpha  occ. eigenvalues --  -10.18903 -10.18060 -10.17855  -1.09504  -1.03813
 Alpha  occ. eigenvalues --   -1.01666  -1.00900  -0.90339  -0.89114  -0.84608
 Alpha  occ. eigenvalues --   -0.83349  -0.80838  -0.78844  -0.75897  -0.75493
 Alpha  occ. eigenvalues --   -0.74326  -0.71676  -0.69813  -0.68040  -0.64921
 Alpha  occ. eigenvalues --   -0.63812  -0.63382  -0.62209  -0.60778  -0.60122
 Alpha  occ. eigenvalues --   -0.59196  -0.57190  -0.55561  -0.54416  -0.54095
 Alpha  occ. eigenvalues --   -0.52466  -0.52368  -0.50846  -0.50293  -0.49131
 Alpha  occ. eigenvalues --   -0.48852  -0.47381  -0.46737  -0.45731  -0.45350
 Alpha  occ. eigenvalues --   -0.45009  -0.44381  -0.43944  -0.43116  -0.42701
 Alpha  occ. eigenvalues --   -0.41950  -0.41828  -0.41114  -0.40942  -0.40503
 Alpha  occ. eigenvalues --   -0.40337  -0.39765  -0.39352  -0.39046  -0.38477
 Alpha  occ. eigenvalues --   -0.37827  -0.37561  -0.36550  -0.36474  -0.36022
 Alpha  occ. eigenvalues --   -0.35708  -0.35605  -0.34586  -0.33693  -0.33480
 Alpha  occ. eigenvalues --   -0.33072  -0.32293  -0.32167  -0.31590  -0.30471
 Alpha  occ. eigenvalues --   -0.29807  -0.29289  -0.28759  -0.28036  -0.27412
 Alpha  occ. eigenvalues --   -0.26283  -0.24746  -0.23452
 Alpha virt. eigenvalues --   -0.05724   0.01232   0.04716   0.06022   0.06953
 Alpha virt. eigenvalues --    0.07673   0.08175   0.09120   0.09302   0.09681
 Alpha virt. eigenvalues --    0.10348   0.11077   0.11461   0.11769   0.12166

 Mulliken charges:
               1
     1  C   -0.485406
     2  C    0.027790
     3  C   -0.296327
     4  C   -0.294775
     5  C   -0.104525
     6  C   -0.093516
     7  C   -0.107922
     8  C   -0.135017
     9  C   -0.318077
    10  C   -0.158642
    11  C    0.331434
    12  C   -0.319366
    13  C   -0.394737
    14  C    0.620207
    15  O   -0.458851
    16  O   -0.485900
    17  C   -0.127870
    18  C   -0.320837
    19  C   -0.203152
    20  C    0.212961
    21  C   -0.262736
    22  C    0.413918
    23  O   -0.500261
    24  C    0.070637
    25  O   -0.625330
    26  C   -0.310184
    27  C    0.005528
    28  C   -0.464944
    29  H    0.149305
    30  H    0.157175
    31  H    0.178713
    32  H    0.141502
    33  H    0.129617
    34  H    0.146431
    35  H    0.148557
    36  H    0.117783
    37  H    0.136399
    38  H    0.123049
    39  H    0.139223
    40  H    0.163829
    41  H    0.154104
    42  H    0.138258
    43  H    0.156158
    44  H    0.164820
    45  H    0.181638
    46  H    0.183453
    47  H    0.142181
    48  H    0.160582
    49  H    0.166902
    50  H    0.155075
    51  H    0.138650
    52  H    0.138258
    53  H    0.402220
    54  H    0.138397
    55  H    0.160910
    56  H    0.139430
    57  H    0.180698
    58  H    0.152585
 Sum of Mulliken charges =  -0.00000

 Dipole moment (field-independent basis, Debye):
    X=             -0.7252    Y=              3.0160    Z=             -3.0395  Tot=              4.3429
 Quadrupole moment (field-independent basis, Debye-Ang):
   XX=           -225.2458   YY=           -160.9675   ZZ=           -163.0468
   XY=            -11.3671   XZ=             16.3512   YZ=              3.9038

 1\1\GINC-NODE74\FOpt\RB3LYP\6-31G(d)\C24H30O4\WYKGROUP\04-Nov-2022\0\\
 #p b3lyp/6-31g(d) opt SCF=XQC\\Gaussian input prepared by ASE\\0,1\C,-
 1.8827439061,-1.1160459938,1.588606004\C,-1.9307695021,-0.5334455318,0
 .1431951165\C,-1.2006038852,-1.5376777632,-0.7724263694\C,0.2903296424
 ,-1.6366551157,-0.3773619183\C,1.0275487204,-0.2738125407,-0.388701276
 9\C,0.2578584722,0.8296890398,0.3962465922\C,-1.2028865927,0.832395784
 ,-0.0860192974\C,-2.1829243577,1.9295448902,0.3181917997\C,-3.02542293
 47,1.8044882315,1.5573885108\C,-3.5649617458,1.3069212209,0.2336582367

 Normal termination of Gaussian 16 at Fri Nov  4 18:48:51 2022.
