 Gaussian 16, Revision B.01,
 Gaussian 16:  ES64L-G16RevB.01 20-Dec-2017

 -------------------------------------------------------------------
 #p b3lyp/6-31g(d) 6D 10F nosymm GFInput td=(50-50,nstate=2) SCF=XQC
 -------------------------------------------------------------------

 ------------------------------
 Gaussian input prepared by ASE
 ------------------------------
 Symbolic Z-matrix:
 Charge =  0 Multiplicity = 1

                          Input orientation:
 ---------------------------------------------------------------------
 Center     Atomic      Atomic             Coordinates (Angstroms)
 Number     Number       Type             X           Y           Z
 ---------------------------------------------------------------------
      1          6           0       -1.882744   -1.116046    1.588606
      2          6           0       -1.930770   -0.533446    0.143195
      3          6           0       -1.200604   -1.537678   -0.772426
      4          6           0        0.290330   -1.636655   -0.377362
      5          6           0        1.027549   -0.273813   -0.388701
      6          6           0        0.257858    0.829689    0.396247
      7          6           0       -1.202887    0.832396   -0.086019
      8          6           0       -2.182924    1.929545    0.318192
      9          6           0       -3.025423    1.804488    1.557389
     10          6           0       -3.564962    1.306921    0.233658
     11          6           0       -3.414620   -0.152820   -0.210464
     12          6           0       -3.849867   -0.303442   -1.691967
     13          6           0       -5.351432   -0.579436   -1.581719
     14          6           0       -5.476142   -1.265267   -0.226653
     15          8           0       -6.391466   -1.918450    0.201956
     16          8           0       -4.345404   -1.028412    0.495970
     17          6           0        0.919583    2.197036    0.199223
     18          6           0        1.849199    2.736778    1.243748
     19          6           0        2.409988    2.243283   -0.089065
     20          6           0        3.199113    0.995048   -0.234208
     21          6           0        4.491223    1.099169   -0.632223
     22          6           0        5.385603   -0.042046   -0.773090
     23          8           0        6.609404    0.062494   -0.812557
     24          6           0        4.768548   -1.443035   -0.813399
     25          8           0        5.242032   -2.174253    0.319354
     26          6           0        3.241783   -1.438459   -0.842077
     27          6           0        2.540142   -0.366826    0.035655
     28          6           0        2.712234   -0.745216    1.531568
     29          1           0       -0.944836   -0.892108    2.101302
     30          1           0       -1.976528   -2.205936    1.540881
     31          1           0       -2.703064   -0.776154    2.216913
     32          1           0       -1.660082   -2.532892   -0.712490
     33          1           0       -1.261023   -1.219325   -1.820866
     34          1           0        0.779400   -2.320309   -1.078433
     35          1           0        0.373089   -2.105354    0.609424
     36          1           0        1.035655    0.065344   -1.438252
     37          1           0        0.273663    0.592536    1.465193
     38          1           0       -1.137853    0.938403   -1.182604
     39          1           0       -2.012686    2.926634   -0.080637
     40          1           0       -2.753500    1.126049    2.354145
     41          1           0       -3.478185    2.725799    1.915275
     42          1           0       -4.397590    1.859096   -0.196537
     43          1           0       -3.602704    0.581639   -2.284340
     44          1           0       -3.355661   -1.164845   -2.148857
     45          1           0       -5.950151    0.339703   -1.558091
     46          1           0       -5.761089   -1.215886   -2.369327
     47          1           0        0.326253    2.930473   -0.342219
     48          1           0        1.891013    3.809222    1.412927
     49          1           0        2.026390    2.140859    2.133556
     50          1           0        2.757330    3.044537   -0.737595
     51          1           0        4.945842    2.077309   -0.776628
     52          1           0        5.136163   -1.921587   -1.736116
     53          1           0        6.199438   -1.999407    0.354063
     54          1           0        2.935698   -1.279250   -1.884695
     55          1           0        2.904449   -2.440321   -0.558470
     56          1           0        2.277600   -0.004711    2.208185
     57          1           0        3.771925   -0.851895    1.771200
     58          1           0        2.235703   -1.709170    1.739249
 ---------------------------------------------------------------------

 SCF Done:  E(RB3LYP) =  -1233.43609665     A.U. after   15 cycles

 Excitation energies and oscillator strengths:

 Excited state symmetry could not be determined.
 Excited State   1:      Triplet-?Sym    2.8885 eV  429.24 nm  f=0.0000  <S**2>=2.000
     102 ->104        -0.34854
     103 ->104         0.58927
 This state for optimization and/or second-order correction.
 Total Energy, E(TD-HF/TD-DFT) =  -1233.32994720
 Copying the excited state density for this state as the 1-particle RhoCI density.

 Excited state symmetry could not be determined.
 Excited State   2:      Triplet-?Sym    3.0719 eV  403.60 nm  f=0.0000  <S**2>=2.000
      99 ->104         0.10090
     100 ->104        -0.10440
     102 ->104         0.57281
     103 ->104         0.34445

 Excited state symmetry could not be determined.
 Excited State   3:      Singlet-?Sym    3.4293 eV  361.55 nm  f=0.0002  <S**2>=0.000
     103 ->104         0.69185

 Excited state symmetry could not be determined.
 Excited State   4:      Singlet-?Sym    4.8895 eV  253.57 nm  f=0.2672  <S**2>=0.000
      99 ->104        -0.34956
     100 ->104         0.16593
     102 ->104         0.57804

 Alpha  occ. eigenvalues --  -19.18458 -19.14734 -19.13103 -19.12915 -10.31058
 Alpha  occ. eigenvalues --  -10.26481 -10.26450 -10.23859 -10.22474 -10.21846
 Alpha  occ. eigenvalues --  -10.21246 -10.21167 -10.20884 -10.20874 -10.20649
 Alpha  occ. eigenvalues --  -10.20549 -10.20520 -10.20414 -10.20411 -10.20337
 Alpha  occ. eigenvalues --  -10.20272 -10.19781 -10.19361 -10.19228 -10.19192
 Alpha  occ. eigenvalues --  -10.18903 -10.18060 -10.17855  -1.09504  -1.03813
 Alpha  occ. eigenvalues --   -1.01666  -1.00900  -0.90339  -0.89114  -0.84608
 Alpha  occ. eigenvalues --   -0.83349  -0.80838  -0.78844  -0.75897  -0.75493
 Alpha  occ. eigenvalues --   -0.74326  -0.71676  -0.69813  -0.68040  -0.64921
 Alpha  occ. eigenvalues --   -0.63812  -0.63382  -0.62209  -0.60778  -0.60122
 Alpha  occ. eigenvalues --   -0.59196  -0.57190  -0.55561  -0.54416  -0.54095
 Alpha  occ. eigenvalues --   -0.52466  -0.52368  -0.50846  -0.50293  -0.49131
 Alpha  occ. eigenvalues --   -0.48852  -0.47381  -0.46737  -0.45731  -0.45350
 Alpha  occ. eigenvalues --   -0.45009  -0.44381  -0.43944  -0.43116  -0.42701
 Alpha  occ. eigenvalues --   -0.41950  -0.41828  -0.41114  -0.40942  -0.40503
 Alpha  occ. eigenvalues --   -0.40337  -0.39765  -0.39352  -0.39046  -0.38477
 Alpha  occ. eigenvalues --   -0.37827  -0.37561  -0.36550  -0.36474  -0.36022
 Alpha  occ. eigenvalues --   -0.35708  -0.35605  -0.34586  -0.33693  -0.33480
 Alpha  occ. eigenvalues --   -0.33072  -0.32293  -0.32167  -0.31590  -0.30471
 Alpha  occ. eigenvalues --   -0.29807  -0.29289  -0.28758  -0.28036  -0.27412
 Alpha  occ. eigenvalues --   -0.26283  -0.24746  -0.23452
 Alpha virt. eigenvalues --   -0.05724   0.01232   0.04716   0.06022   0.06953
 Alpha virt. eigenvalues --    0.07673   0.08175   0.09120   0.09302   0.09681
 Alpha virt. eigenvalues --    0.10348   0.11077   0.11461   0.11770   0.12166

 Mulliken charges:
               1
     1  C   -0.485388
     2  C    0.027771
     3  C   -0.296315
     4  C   -0.294782
     5  C   -0.104452
     6  C   -0.093520
     7  C   -0.107972
     8  C   -0.134982
     9  C   -0.318096
    10  C   -0.158633
    11  C    0.331414
    12  C   -0.319340
    13  C   -0.394726
    14  C    0.620197
    15  O   -0.458849
    16  O   -0.485900
    17  C   -0.127879
    18  C   -0.320823
    19  C   -0.203144
    20  C    0.212977
    21  C   -0.262754
    22  C    0.413916
    23  O   -0.500261
    24  C    0.070640
    25  O   -0.625327
    26  C   -0.310171
    27  C    0.005459
    28  C   -0.464942
    29  H    0.149304
    30  H    0.157174
    31  H    0.178711
    32  H    0.141501
    33  H    0.129621
    34  H    0.146431
    35  H    0.148557
    36  H    0.117778
    37  H    0.136395
    38  H    0.123056
    39  H    0.139220
    40  H    0.163832
    41  H    0.154105
    42  H    0.138257
    43  H    0.156154
    44  H    0.164813
    45  H    0.181635
    46  H    0.183450
    47  H    0.142181
    48  H    0.160580
    49  H    0.166902
    50  H    0.155075
    51  H    0.138649
    52  H    0.138257
    53  H    0.402220
    54  H    0.138398
    55  H    0.160908
    56  H    0.139433
    57  H    0.180701
    58  H    0.152586
 Sum of Mulliken charges =  -0.00000

 Dipole moment (field-independent basis, Debye):
    X=             -0.8568    Y=              3.6057    Z=             -2.2639  Tot=              4.3429
 Quadrupole moment (field-independent basis, Debye-Ang):
   XX=           -224.0761   YY=           -164.1381   ZZ=           -161.4181
   XY=            -16.2892   XZ=             13.9564   YZ=              4.5770

 Normal termination of Gaussian 16 at Sat Nov  5 11:22:07 2022.
