 Gaussian 16, Revision B.01,
 Gaussian 16:  ES64L-G16RevB.01 20-Dec-2017

 -----------------------------
 #p b3lyp/6-31g(d) opt SCF=XQC
 -----------------------------

 ------------------------------
 Gaussian input prepared by ASE
 ------------------------------
 Symbolic Z-matrix:
 Charge =  0 Multiplicity = 1

 SCF Done:  E(RB3LYP) =  -1072.44701310     A.U. after   15 cycles
 SCF Done:  E(RB3LYP) =  -1072.45512691     A.U. after   13 cycles
 SCF Done:  E(RB3LYP) =  -1072.45672812     A.U. after   13 cycles
 SCF Done:  E(RB3LYP) =  -1072.45700284     A.U. after   12 cycles
 SCF Done:  E(RB3LYP) =  -1072.45703156     A.U. after   12 cycles
 SCF Done:  E(RB3LYP) =  -1072.45729365     A.U. after   11 cycles
 SCF Done:  E(RB3LYP) =  -1072.45735172     A.U. after   11 cycles
 SCF Done:  E(RB3LYP) =  -1072.45737119     A.U. after   10 cycles
 SCF Done:  E(RB3LYP) =  -1072.45738649     A.U. after   11 cycles
 SCF Done:  E(RB3LYP) =  -1072.45739625     A.U. after   11 cycles
 SCF Done:  E(RB3LYP) =  -1072.45745559     A.U. after   12 cycles
 SCF Done:  E(RB3LYP) =  -1072.45748750     A.U. after   10 cycles
 SCF Done:  E(RB3LYP) =  -1072.45750899     A.U. after   11 cycles
 SCF Done:  E(RB3LYP) =  -1072.45750982     A.U. after   11 cycles
 SCF Done:  E(RB3LYP) =  -1072.45751480     A.U. after   10 cycles
 SCF Done:  E(RB3LYP) =  -1072.45751661     A.U. after   11 cycles
 SCF Done:  E(RB3LYP) =  -1072.45751733     A.U. after   11 cycles
 SCF Done:  E(RB3LYP) =  -1072.45751805     A.U. after   10 cycles
 SCF Done:  E(RB3LYP) =  -1072.45751803     A.U. after    8 cycles
 SCF Done:  E(RB3LYP) =  -1072.45751808     A.U. after    7 cycles
 Optimization completed.
    -- Stationary point found.

                         Standard orientation:
 ---------------------------------------------------------------------
 Center     Atomic      Atomic             Coordinates (Angstroms)
 Number     Number       Type             X           Y           Z
 ---------------------------------------------------------------------
      1          6           0       -4.549972   -2.876241    0.170466
      2          6           0       -4.862050   -1.431021    0.525738
      3          8           0       -3.645798   -0.699400    0.828083
      4          6           0       -2.969748   -0.190296   -0.210810
      5          8           0       -3.351640   -0.216328   -1.364579
      6          6           0       -1.650294    0.437350    0.247037
      7          6           0       -0.570589   -0.644710    0.002750
      8          8           0       -0.667966   -1.716980    0.594743
      9          7           0        0.421749   -0.380747   -0.898431
     10          6           0        1.402297   -1.442310   -1.178915
     11          6           0        2.714408   -1.317807   -0.424766
     12          6           0        2.747819   -1.481756    0.968825
     13          6           0        3.951181   -1.367910    1.663238
     14          6           0        5.138756   -1.097206    0.976821
     15          6           0        5.115937   -0.942063   -0.408863
     16          6           0        3.908235   -1.050641   -1.103258
     17          6           0        0.613473    0.935123   -1.533935
     18          6           0        1.518239    1.883646   -0.676552
     19          6           0        0.786302    3.160467   -0.247562
     20          6           0       -0.602040    2.865379    0.388700
     21          6           0       -0.441381    2.509724    1.805097
     22          7           0       -0.295152    2.249424    2.927769
     23          6           0       -1.438345    1.808409   -0.446168
     24          6           0       -0.758229    1.563097   -1.799062
     25          1           0       -5.483628   -3.434472    0.035389
     26          1           0       -3.968876   -3.352235    0.965890
     27          1           0       -3.978207   -2.930426   -0.760120
     28          1           0       -5.449327   -1.358606    1.443963
     29          1           0       -5.387487   -0.920469   -0.285022
     30          1           0       -1.706755    0.540837    1.332604
     31          1           0        0.909928   -2.382677   -0.923050
     32          1           0        1.593202   -1.435431   -2.258515
     33          1           0        1.825316   -1.703160    1.498490
     34          1           0        3.963788   -1.496356    2.742336
     35          1           0        6.075902   -1.011981    1.520496
     36          1           0        6.035206   -0.736220   -0.951170
     37          1           0        3.896013   -0.932001   -2.185153
     38          1           0        1.105198    0.733758   -2.490984
     39          1           0        1.861179    1.340829    0.209003
     40          1           0        2.419232    2.156720   -1.236683
     41          1           0        1.398429    3.730556    0.458634
     42          1           0        0.624482    3.812716   -1.112833
     43          1           0       -1.169243    3.804439    0.384479
     44          1           0       -2.426802    2.246015   -0.612898
     45          1           0       -0.645469    2.493560   -2.365381
     46          1           0       -1.379016    0.888126   -2.393502
 ---------------------------------------------------------------------

 The electronic state is 1-A.
 Alpha  occ. eigenvalues --  -19.19294 -19.13993 -19.11204 -14.36964 -14.33405
 Alpha  occ. eigenvalues --  -10.32125 -10.29184 -10.24644 -10.24252 -10.24249
 Alpha  occ. eigenvalues --  -10.22733 -10.22507 -10.22458 -10.21457 -10.21161
 Alpha  occ. eigenvalues --  -10.19960 -10.19780 -10.19717 -10.19199 -10.19132
 Alpha  occ. eigenvalues --  -10.19002 -10.18898 -10.18508 -10.17879  -1.10378
 Alpha  occ. eigenvalues --   -1.03492  -1.01681  -0.94419  -0.90617  -0.86177
 Alpha  occ. eigenvalues --   -0.85048  -0.80480  -0.78207  -0.76981  -0.75952
 Alpha  occ. eigenvalues --   -0.74311  -0.73066  -0.69122  -0.67126  -0.65405
 Alpha  occ. eigenvalues --   -0.62773  -0.60478  -0.60004  -0.58213  -0.55900
 Alpha  occ. eigenvalues --   -0.54057  -0.52929  -0.51580  -0.50763  -0.50446
 Alpha  occ. eigenvalues --   -0.50209  -0.48086  -0.46762  -0.45931  -0.45611
 Alpha  occ. eigenvalues --   -0.45152  -0.44501  -0.44052  -0.43572  -0.42763
 Alpha  occ. eigenvalues --   -0.41871  -0.41371  -0.41108  -0.40467  -0.39637
 Alpha  occ. eigenvalues --   -0.39230  -0.38955  -0.38093  -0.37716  -0.36910
 Alpha  occ. eigenvalues --   -0.36455  -0.36010  -0.35824  -0.35028  -0.34661
 Alpha  occ. eigenvalues --   -0.34036  -0.33908  -0.33732  -0.33353  -0.31794
 Alpha  occ. eigenvalues --   -0.31363  -0.30027  -0.27455  -0.25638  -0.25030
 Alpha  occ. eigenvalues --   -0.24454  -0.23835
 Alpha virt. eigenvalues --   -0.00710  -0.00296  -0.00052   0.02148   0.03241
 Alpha virt. eigenvalues --    0.03642   0.06354   0.09022   0.09573   0.10359
 Alpha virt. eigenvalues --    0.10980   0.11347   0.12699   0.13087   0.13721

 Mulliken charges:
               1
     1  C   -0.459505
     2  C   -0.051949
     3  O   -0.439217
     4  C    0.643104
     5  O   -0.490953
     6  C   -0.283828
     7  C    0.610092
     8  O   -0.533115
     9  N   -0.422572
    10  C   -0.249711
    11  C    0.165098
    12  C   -0.186635
    13  C   -0.129317
    14  C   -0.128776
    15  C   -0.127756
    16  C   -0.190922
    17  C    0.017441
    18  C   -0.283656
    19  C   -0.284482
    20  C   -0.179082
    21  C    0.355077
    22  N   -0.479519
    23  C   -0.120826
    24  C   -0.300653
    25  H    0.147192
    26  H    0.174386
    27  H    0.175819
    28  H    0.157119
    29  H    0.168681
    30  H    0.215242
    31  H    0.200827
    32  H    0.147425
    33  H    0.169826
    34  H    0.137410
    35  H    0.130937
    36  H    0.128947
    37  H    0.119766
    38  H    0.142899
    39  H    0.184106
    40  H    0.150549
    41  H    0.167034
    42  H    0.149927
    43  H    0.187722
    44  H    0.159588
    45  H    0.142940
    46  H    0.193316
 Sum of Mulliken charges =  -0.00000

 Dipole moment (field-independent basis, Debye):
    X=              0.7061    Y=              2.4178    Z=             -3.8274  Tot=              4.5819
 Quadrupole moment (field-independent basis, Debye-Ang):
   XX=           -124.2866   YY=           -134.8035   ZZ=           -149.3662
   XY=              2.4202   XZ=             -5.3525   YZ=             -7.5346

 Normal termination of Gaussian 16 at Fri Nov  4 18:44:43 2022.
