 Gaussian 16, Revision B.01,
 Gaussian 16:  ES64L-G16RevB.01 20-Dec-2017

 -------------------------------------------------------------------
 #p b3lyp/6-31g(d) 6D 10F nosymm GFInput td=(50-50,nstate=2) SCF=XQC
 -------------------------------------------------------------------

 ------------------------------
 Gaussian input prepared by ASE
 ------------------------------
 Symbolic Z-matrix:
 Charge =  0 Multiplicity = 1

                          Input orientation:
 ---------------------------------------------------------------------
 Center     Atomic      Atomic             Coordinates (Angstroms)
 Number     Number       Type             X           Y           Z
 ---------------------------------------------------------------------
      1          7           0       -3.332574    0.531215    0.494596
      2          7           0       -1.991116    0.574361    0.576087
      3          6           0       -1.182058   -0.168711   -0.102081
      4          6           0        0.274948    0.082535    0.058474
      5          6           0        1.204631   -0.225106   -0.949929
      6          6           0        2.561736    0.045293   -0.782571
      7          6           0        2.989130    0.631225    0.401316
      8          9           0        4.302226    0.892254    0.570127
      9          6           0        2.098653    0.954169    1.420116
     10          6           0        0.747949    0.675378    1.242688
     11          6           0       -1.593681   -1.256524   -1.081942
     12          9           0       -1.532657   -0.830344   -2.365673
     13          9           0       -0.800266   -2.341340   -0.987213
     14          9           0       -2.866254   -1.699512   -0.881523
     15          1           0       -3.784028   -0.321197    0.182257
     16          1           0       -3.763653    0.983602    1.288647
     17          1           0        0.876322   -0.665946   -1.883824
     18          1           0        3.283141   -0.186023   -1.559213
     19          1           0        2.469492    1.406439    2.334138
     20          1           0        0.038058    0.918234    2.025524
 ---------------------------------------------------------------------

 SCF Done:  E(RB3LYP) =  -817.285175193     A.U. after   15 cycles

 Excitation energies and oscillator strengths:

 Excited state symmetry could not be determined.
 Excited State   1:      Triplet-?Sym    2.7260 eV  454.83 nm  f=0.0000  <S**2>=2.000
      50 -> 53         0.11832
      50 -> 55        -0.12736
      51 -> 54        -0.11647
      52 -> 53         0.67649
      52 <- 53         0.10419
 This state for optimization and/or second-order correction.
 Total Energy, E(TD-HF/TD-DFT) =  -817.184997603
 Copying the excited state density for this state as the 1-particle RhoCI density.

 Excited state symmetry could not be determined.
 Excited State   2:      Triplet-?Sym    3.9425 eV  314.48 nm  f=0.0000  <S**2>=2.000
      50 -> 53         0.38237
      51 -> 54         0.43652
      52 -> 55        -0.38039

 Excited state symmetry could not be determined.
 Excited State   3:      Singlet-?Sym    4.6780 eV  265.04 nm  f=0.3666  <S**2>=0.000
      52 -> 53         0.67388
      52 -> 54         0.16077

 Excited state symmetry could not be determined.
 Excited State   4:      Singlet-?Sym    4.8621 eV  255.00 nm  f=0.0372  <S**2>=0.000
      51 -> 53         0.46572
      52 -> 53        -0.16314
      52 -> 54         0.49578

 Alpha  occ. eigenvalues --  -24.74382 -24.73360 -24.73280 -24.70345 -14.38919
 Alpha  occ. eigenvalues --  -14.38748 -10.44447 -10.27206 -10.24518 -10.20880
 Alpha  occ. eigenvalues --  -10.20131 -10.19863 -10.19689 -10.19684  -1.31370
 Alpha  occ. eigenvalues --   -1.22866  -1.22294  -1.21493  -1.01850  -0.87369
 Alpha  occ. eigenvalues --   -0.83899  -0.75951  -0.75050  -0.72707  -0.65291
 Alpha  occ. eigenvalues --   -0.62774  -0.60900  -0.59212  -0.59045  -0.57275
 Alpha  occ. eigenvalues --   -0.55284  -0.53792  -0.49443  -0.48343  -0.47024
 Alpha  occ. eigenvalues --   -0.46812  -0.45691  -0.44829  -0.43739  -0.43305
 Alpha  occ. eigenvalues --   -0.42805  -0.42345  -0.41011  -0.40896  -0.39350
 Alpha  occ. eigenvalues --   -0.38124  -0.36044  -0.34472  -0.28772  -0.27673
 Alpha  occ. eigenvalues --   -0.25993  -0.22009
 Alpha virt. eigenvalues --   -0.04202  -0.00885   0.02525   0.07662   0.09293
 Alpha virt. eigenvalues --    0.11992   0.14015   0.14360   0.15554   0.16875
 Alpha virt. eigenvalues --    0.18020   0.19489   0.19788   0.21654   0.23070

 Mulliken charges:
               1
     1  N   -0.549595
     2  N   -0.312673
     3  C    0.101950
     4  C    0.122294
     5  C   -0.179794
     6  C   -0.205435
     7  C    0.383747
     8  F   -0.296836
     9  C   -0.201001
    10  C   -0.159702
    11  C    0.815532
    12  F   -0.263193
    13  F   -0.259699
    14  F   -0.281096
    15  H    0.341478
    16  H    0.346850
    17  H    0.148605
    18  H    0.148815
    19  H    0.147601
    20  H    0.152151
 Sum of Mulliken charges =  -0.00000

 Dipole moment (field-independent basis, Debye):
    X=             -2.4304    Y=             -0.1619    Z=              1.2669  Tot=              2.7456
 Quadrupole moment (field-independent basis, Debye-Ang):
   XX=            -70.1412   YY=            -79.5822   ZZ=            -72.4537
   XY=             -0.9080   XZ=             -7.0573   YZ=              1.9649

 Normal termination of Gaussian 16 at Sat Nov  5 11:11:55 2022.
