 Gaussian 16, Revision B.01,
 Gaussian 16:  ES64L-G16RevB.01 20-Dec-2017

 -------------------------------------------------------------------
 #p b3lyp/6-31g(d) 6D 10F nosymm GFInput td=(50-50,nstate=2) SCF=XQC
 -------------------------------------------------------------------

 ------------------------------
 Gaussian input prepared by ASE
 ------------------------------
 Symbolic Z-matrix:
 Charge =  0 Multiplicity = 1

                          Input orientation:
 ---------------------------------------------------------------------
 Center     Atomic      Atomic             Coordinates (Angstroms)
 Number     Number       Type             X           Y           Z
 ---------------------------------------------------------------------
      1          6           0       -4.285167    1.906572    2.769471
      2          6           0       -4.786821    1.264929    1.485372
      3          8           0       -3.699734    1.078782    0.542216
      4          6           0       -2.956623   -0.027291    0.683344
      5          8           0       -3.187929   -0.919920    1.475439
      6          6           0       -1.776176   -0.023971   -0.291878
      7          6           0       -0.568319    0.500066    0.522221
      8          8           0       -0.626681    1.630835    0.999354
      9          7           0        0.495266   -0.334944    0.717372
     10          6           0        1.607627    0.144943    1.553686
     11          6           0        2.796241    0.694465    0.784858
     12          6           0        2.673614    1.881860    0.046517
     13          6           0        3.763407    2.388203   -0.660038
     14          6           0        4.992374    1.722082   -0.633444
     15          6           0        5.125387    0.546701    0.105133
     16          6           0        4.030763    0.036926    0.808301
     17          6           0        0.626897   -1.649595    0.064300
     18          6           0        1.315385   -1.550388   -1.339105
     19          6           0        0.407691   -2.042204   -2.472349
     20          6           0       -1.010674   -1.406101   -2.417425
     21          6           0       -0.990693   -0.076516   -3.042152
     22          7           0       -0.958453    0.964374   -3.556974
     23          6           0       -1.623156   -1.417510   -0.955122
     24          6           0       -0.759016   -2.293591   -0.039260
     25          1           0       -5.132035    2.122752    3.431029
     26          1           0       -3.760900    2.842327    2.553950
     27          1           0       -3.600047    1.235280    3.294658
     28          1           0       -5.487605    1.914668    0.956207
     29          1           0       -5.257838    0.297301    1.674893
     30          1           0       -1.977049    0.753118   -1.032240
     31          1           0        1.187420    0.919059    2.198942
     32          1           0        1.929012   -0.692594    2.183983
     33          1           0        1.720548    2.403535    0.036619
     34          1           0        3.655517    3.308158   -1.228504
     35          1           0        5.841074    2.120809   -1.182820
     36          1           0        6.078438    0.024874    0.135338
     37          1           0        4.140394   -0.879031    1.385993
     38          1           0        1.251546   -2.251524    0.731968
     39          1           0        1.600378   -0.510116   -1.520983
     40          1           0        2.245644   -2.128888   -1.346855
     41          1           0        0.865293   -1.832029   -3.444377
     42          1           0        0.287596   -3.129731   -2.416035
     43          1           0       -1.667168   -2.017278   -3.049129
     44          1           0       -2.623320   -1.853299   -1.033246
     45          1           0       -0.673967   -3.314826   -0.425316
     46          1           0       -1.228143   -2.351273    0.946089
 ---------------------------------------------------------------------

 SCF Done:  E(RB3LYP) =  -1072.45752141     A.U. after   15 cycles

 Excitation energies and oscillator strengths:

 Excited state symmetry could not be determined.
 Excited State   1:      Triplet-?Sym    3.7285 eV  332.54 nm  f=0.0000  <S**2>=2.000
      84 -> 88        -0.24064
      84 -> 90         0.15051
      85 -> 88         0.20485
      85 -> 89         0.15320
      85 -> 90         0.36979
      86 -> 88         0.10699
      86 -> 90        -0.13628
      87 -> 88         0.41088
 This state for optimization and/or second-order correction.
 Total Energy, E(TD-HF/TD-DFT) =  -1072.32050337
 Copying the excited state density for this state as the 1-particle RhoCI density.

 Excited state symmetry could not be determined.
 Excited State   2:      Triplet-?Sym    4.6061 eV  269.17 nm  f=0.0000  <S**2>=2.000
      84 -> 89        -0.12616
      86 -> 88        -0.17911
      86 -> 89         0.34017
      86 -> 92        -0.10240
      86 -> 93        -0.19574
      87 -> 88         0.22285
      87 -> 89        -0.32483
      87 -> 92         0.10025
      87 -> 93         0.19083

 Excited state symmetry could not be determined.
 Excited State   3:      Singlet-?Sym    5.2485 eV  236.23 nm  f=0.0034  <S**2>=0.000
      84 -> 88        -0.14422
      84 -> 89         0.27850
      84 -> 93        -0.11651
      86 -> 88        -0.26870
      86 -> 89         0.44712
      86 -> 93        -0.15979
      87 -> 89         0.19018

 Excited state symmetry could not be determined.
 Excited State   4:      Singlet-?Sym    5.3832 eV  230.32 nm  f=0.0003  <S**2>=0.000
      84 -> 88        -0.12266
      84 -> 90        -0.14485
      85 -> 88        -0.41268
      85 -> 90         0.16823
      86 -> 88         0.16003
      87 -> 88         0.11288
      87 -> 89         0.17831
      87 -> 90         0.42308

 Alpha  occ. eigenvalues --  -19.19294 -19.13993 -19.11204 -14.36964 -14.33405
 Alpha  occ. eigenvalues --  -10.32125 -10.29185 -10.24644 -10.24252 -10.24249
 Alpha  occ. eigenvalues --  -10.22733 -10.22507 -10.22458 -10.21457 -10.21162
 Alpha  occ. eigenvalues --  -10.19960 -10.19780 -10.19717 -10.19199 -10.19132
 Alpha  occ. eigenvalues --  -10.19002 -10.18897 -10.18507 -10.17879  -1.10378
 Alpha  occ. eigenvalues --   -1.03492  -1.01681  -0.94419  -0.90617  -0.86177
 Alpha  occ. eigenvalues --   -0.85048  -0.80480  -0.78207  -0.76981  -0.75952
 Alpha  occ. eigenvalues --   -0.74311  -0.73066  -0.69122  -0.67126  -0.65405
 Alpha  occ. eigenvalues --   -0.62773  -0.60478  -0.60004  -0.58213  -0.55900
 Alpha  occ. eigenvalues --   -0.54057  -0.52929  -0.51580  -0.50763  -0.50446
 Alpha  occ. eigenvalues --   -0.50209  -0.48086  -0.46762  -0.45930  -0.45611
 Alpha  occ. eigenvalues --   -0.45152  -0.44501  -0.44052  -0.43572  -0.42763
 Alpha  occ. eigenvalues --   -0.41871  -0.41371  -0.41108  -0.40467  -0.39637
 Alpha  occ. eigenvalues --   -0.39230  -0.38955  -0.38093  -0.37716  -0.36910
 Alpha  occ. eigenvalues --   -0.36455  -0.36010  -0.35824  -0.35028  -0.34661
 Alpha  occ. eigenvalues --   -0.34036  -0.33908  -0.33732  -0.33353  -0.31794
 Alpha  occ. eigenvalues --   -0.31363  -0.30027  -0.27455  -0.25638  -0.25029
 Alpha  occ. eigenvalues --   -0.24454  -0.23835
 Alpha virt. eigenvalues --   -0.00710  -0.00296  -0.00052   0.02148   0.03241
 Alpha virt. eigenvalues --    0.03642   0.06354   0.09022   0.09573   0.10359
 Alpha virt. eigenvalues --    0.10980   0.11347   0.12699   0.13087   0.13721

 Mulliken charges:
               1
     1  C   -0.459495
     2  C   -0.051964
     3  O   -0.439209
     4  C    0.643092
     5  O   -0.490952
     6  C   -0.283787
     7  C    0.610033
     8  O   -0.533107
     9  N   -0.422570
    10  C   -0.249695
    11  C    0.165077
    12  C   -0.186630
    13  C   -0.129313
    14  C   -0.128777
    15  C   -0.127761
    16  C   -0.190914
    17  C    0.017480
    18  C   -0.283688
    19  C   -0.284472
    20  C   -0.179110
    21  C    0.355096
    22  N   -0.479525
    23  C   -0.120811
    24  C   -0.300657
    25  H    0.147192
    26  H    0.174384
    27  H    0.175819
    28  H    0.157122
    29  H    0.168684
    30  H    0.215237
    31  H    0.200826
    32  H    0.147427
    33  H    0.169828
    34  H    0.137409
    35  H    0.130938
    36  H    0.128947
    37  H    0.119765
    38  H    0.142895
    39  H    0.184113
    40  H    0.150553
    41  H    0.167035
    42  H    0.149927
    43  H    0.187723
    44  H    0.159585
    45  H    0.142938
    46  H    0.193311
 Sum of Mulliken charges =  -0.00000

 Dipole moment (field-independent basis, Debye):
    X=              0.9203    Y=             -4.4720    Z=              0.3844  Tot=              4.5818
 Quadrupole moment (field-independent basis, Debye-Ang):
   XX=           -124.2953   YY=           -137.5853   ZZ=           -147.7485
   XY=             -3.4209   XZ=             -2.6914   YZ=              9.7979

 Normal termination of Gaussian 16 at Sat Nov  5 11:27:19 2022.
