 Gaussian 16, Revision B.01,
 Gaussian 16:  ES64L-G16RevB.01 20-Dec-2017

 -----------------------------
 #p b3lyp/6-31g(d) opt SCF=XQC
 -----------------------------

 ------------------------------
 Gaussian input prepared by ASE
 ------------------------------
 Symbolic Z-matrix:
 Charge =  0 Multiplicity = 1

 SCF Done:  E(RB3LYP) =  -817.281529611     A.U. after   14 cycles
 SCF Done:  E(RB3LYP) =  -817.281275583     A.U. after   13 cycles
 SCF Done:  E(RB3LYP) =  -817.282718411     A.U. after   13 cycles
 SCF Done:  E(RB3LYP) =  -817.284486921     A.U. after   13 cycles
 SCF Done:  E(RB3LYP) =  -817.284771523     A.U. after   11 cycles
 SCF Done:  E(RB3LYP) =  -817.285003069     A.U. after   11 cycles
 SCF Done:  E(RB3LYP) =  -817.285070750     A.U. after   11 cycles
 SCF Done:  E(RB3LYP) =  -817.285154942     A.U. after   11 cycles
 SCF Done:  E(RB3LYP) =  -817.285168539     A.U. after   11 cycles
 SCF Done:  E(RB3LYP) =  -817.285173318     A.U. after    9 cycles
 SCF Done:  E(RB3LYP) =  -817.285173332     A.U. after    7 cycles
 Optimization completed.
    -- Stationary point found.

                         Standard orientation:
 ---------------------------------------------------------------------
 Center     Atomic      Atomic             Coordinates (Angstroms)
 Number     Number       Type             X           Y           Z
 ---------------------------------------------------------------------
      1          7           0       -2.780561    2.008832   -0.387658
      2          7           0       -1.486355    1.666980   -0.260461
      3          6           0       -1.051996    0.468974   -0.053679
      4          6           0        0.421680    0.270643   -0.026979
      5          6           0        1.019000   -0.958852   -0.354666
      6          6           0        2.404723   -1.109068   -0.346475
      7          6           0        3.196782   -0.019107   -0.011512
      8          9           0        4.538770   -0.159661    0.001240
      9          6           0        2.642563    1.214571    0.314179
     10          6           0        1.258686    1.350328    0.306571
     11          6           0       -1.920682   -0.766057    0.127928
     12          9           0       -2.005262   -1.496528   -1.008988
     13          9           0       -1.437863   -1.580629    1.086398
     14          9           0       -3.199114   -0.468539    0.492541
     15          1           0       -3.492785    1.422584    0.033082
     16          1           0       -2.911457    3.003449   -0.266815
     17          1           0        0.408154   -1.809020   -0.634609
     18          1           0        2.871329   -2.054433   -0.602733
     19          1           0        3.292639    2.042983    0.576175
     20          1           0        0.807211    2.303376    0.558818
 ---------------------------------------------------------------------

 The electronic state is 1-A.
 Alpha  occ. eigenvalues --  -24.74382 -24.73360 -24.73280 -24.70345 -14.38919
 Alpha  occ. eigenvalues --  -14.38748 -10.44447 -10.27206 -10.24518 -10.20880
 Alpha  occ. eigenvalues --  -10.20131 -10.19863 -10.19689 -10.19684  -1.31370
 Alpha  occ. eigenvalues --   -1.22866  -1.22294  -1.21493  -1.01850  -0.87369
 Alpha  occ. eigenvalues --   -0.83899  -0.75951  -0.75050  -0.72707  -0.65290
 Alpha  occ. eigenvalues --   -0.62774  -0.60900  -0.59212  -0.59045  -0.57275
 Alpha  occ. eigenvalues --   -0.55284  -0.53792  -0.49443  -0.48343  -0.47024
 Alpha  occ. eigenvalues --   -0.46812  -0.45691  -0.44829  -0.43739  -0.43305
 Alpha  occ. eigenvalues --   -0.42805  -0.42345  -0.41011  -0.40896  -0.39350
 Alpha  occ. eigenvalues --   -0.38124  -0.36044  -0.34472  -0.28772  -0.27673
 Alpha  occ. eigenvalues --   -0.25993  -0.22009
 Alpha virt. eigenvalues --   -0.04202  -0.00885   0.02525   0.07662   0.09293
 Alpha virt. eigenvalues --    0.11992   0.14015   0.14360   0.15554   0.16875
 Alpha virt. eigenvalues --    0.18020   0.19489   0.19788   0.21654   0.23070

 Mulliken charges:
               1
     1  N   -0.549603
     2  N   -0.312672
     3  C    0.101910
     4  C    0.122305
     5  C   -0.179793
     6  C   -0.205438
     7  C    0.383748
     8  F   -0.296835
     9  C   -0.201000
    10  C   -0.159701
    11  C    0.815585
    12  F   -0.263197
    13  F   -0.259701
    14  F   -0.281112
    15  H    0.341478
    16  H    0.346852
    17  H    0.148607
    18  H    0.148815
    19  H    0.147601
    20  H    0.152151
 Sum of Mulliken charges =  -0.00000

 Dipole moment (field-independent basis, Debye):
    X=             -2.0867    Y=              1.6277    Z=              0.7310  Tot=              2.7456
 Quadrupole moment (field-independent basis, Debye-Ang):
   XX=            -74.3073   YY=            -68.3580   ZZ=            -79.2148
   XY=             -6.4809   XZ=             -1.9118   YZ=              3.6245

 1\1\GINC-NODE75\FOpt\RB3LYP\6-31G(d)\C8H6F4N2\WYKGROUP\04-Nov-2022\0\\
 #p b3lyp/6-31g(d) opt SCF=XQC\\Gaussian input prepared by ASE\\0,1\N,-
 3.3325736045,0.5312147902,0.4945962814\N,-1.9911162757,0.5743612771,0.
 5760868458\C,-1.1820577963,-0.168710593,-0.1020813617\C,0.2749484402,0
 .0825347034,0.0584743614\C,1.2046309753,-0.2251060612,-0.949929302\C,2
 .5617356347,0.0452933423,-0.7825712907\C,2.9891303694,0.6312251067,0.4
 013164853\F,4.3022255075,0.8922538853,0.5701271112\C,2.0986526399,0.95
 41685595,1.4201158495\C,0.7479494105,0.6753778024,1.2426877591\C,-1.59

 Normal termination of Gaussian 16 at Fri Nov  4 18:17:57 2022.
