 Gaussian 16, Revision B.01,
 Gaussian 16:  ES64L-G16RevB.01 20-Dec-2017

 -----------------------------
 #p b3lyp/6-31g(d) opt SCF=XQC
 -----------------------------

 ------------------------------
 Gaussian input prepared by ASE
 ------------------------------
 Symbolic Z-matrix:
 Charge =  0 Multiplicity = 1

 SCF Done:  E(RB3LYP) =  -880.562968468     A.U. after   15 cycles
 SCF Done:  E(RB3LYP) =  -880.567462521     A.U. after   13 cycles
 SCF Done:  E(RB3LYP) =  -880.568024597     A.U. after   13 cycles
 SCF Done:  E(RB3LYP) =  -880.565533820     A.U. after   14 cycles
 SCF Done:  E(RB3LYP) =  -880.568701509     A.U. after   14 cycles
 SCF Done:  E(RB3LYP) =  -880.568910959     A.U. after   13 cycles
 SCF Done:  E(RB3LYP) =  -880.569068593     A.U. after   13 cycles
 SCF Done:  E(RB3LYP) =  -880.569115873     A.U. after   12 cycles
 SCF Done:  E(RB3LYP) =  -880.569136497     A.U. after   12 cycles
 SCF Done:  E(RB3LYP) =  -880.569143668     A.U. after   11 cycles
 SCF Done:  E(RB3LYP) =  -880.569148875     A.U. after   12 cycles
 SCF Done:  E(RB3LYP) =  -880.569150134     A.U. after    9 cycles
 SCF Done:  E(RB3LYP) =  -880.569150824     A.U. after    8 cycles
 SCF Done:  E(RB3LYP) =  -880.569151233     A.U. after    8 cycles
 SCF Done:  E(RB3LYP) =  -880.569151442     A.U. after    8 cycles
 SCF Done:  E(RB3LYP) =  -880.569151486     A.U. after    7 cycles
 SCF Done:  E(RB3LYP) =  -880.569151489     A.U. after    7 cycles
 SCF Done:  E(RB3LYP) =  -880.569151497     A.U. after    6 cycles
 Optimization completed.
    -- Stationary point found.

                         Standard orientation:
 ---------------------------------------------------------------------
 Center     Atomic      Atomic             Coordinates (Angstroms)
 Number     Number       Type             X           Y           Z
 ---------------------------------------------------------------------
      1          6           0        1.581914    0.317897    1.689862
      2          6           0        1.436726    0.395948    0.366379
      3          6           0        2.595644    0.591990   -0.591564
      4          7           0        3.887805    0.300920    0.013556
      5          6           0        5.011155    0.491744   -0.901715
      6          6           0        6.357332    0.210551   -0.226096
      7          6           0        6.554732   -1.248714    0.202028
      8          6           0        0.102349    0.294577   -0.325318
      9          8           0       -0.955930    0.200117    0.640378
     10          6           0       -2.228455    0.355633    0.169601
     11          6           0       -2.776750    1.651547    0.078704
     12          6           0       -1.935231    2.858118    0.419135
     13          6           0       -4.114146    1.790605   -0.306121
     14          6           0       -4.920420    0.683974   -0.577506
     15          6           0       -4.395371   -0.595987   -0.455822
     16          6           0       -3.055348   -0.751433   -0.099015
     17          7           0       -2.553457   -2.128886   -0.000942
     18          8           0       -1.373136   -2.347174   -0.270220
     19          8           0       -3.363940   -2.997252    0.324937
     20          1           0        0.727517    0.171801    2.340914
     21          1           0        2.564509    0.404896    2.141034
     22          1           0        2.407661   -0.004716   -1.509515
     23          1           0        2.611638    1.640460   -0.929390
     24          1           0        3.875189   -0.662893    0.342692
     25          1           0        4.923394   -0.128083   -1.817666
     26          1           0        4.989798    1.538008   -1.235042
     27          1           0        7.154117    0.490433   -0.927894
     28          1           0        6.454359    0.869183    0.645952
     29          1           0        5.841828   -1.546930    0.979984
     30          1           0        6.432960   -1.932857   -0.647438
     31          1           0        7.558847   -1.404354    0.611885
     32          1           0       -0.057569    1.176909   -0.964847
     33          1           0        0.067384   -0.591987   -0.969909
     34          1           0       -2.565211    3.687677    0.754059
     35          1           0       -1.213399    2.622479    1.205419
     36          1           0       -1.365828    3.211786   -0.450458
     37          1           0       -4.535088    2.790681   -0.376471
     38          1           0       -5.957624    0.819798   -0.867706
     39          1           0       -4.995654   -1.480763   -0.629975
 ---------------------------------------------------------------------

 The electronic state is 1-A.
 Alpha  occ. eigenvalues --  -19.17868 -19.17731 -19.17712 -14.56936 -14.31769
 Alpha  occ. eigenvalues --  -10.27236 -10.25183 -10.24558 -10.21930 -10.21636
 Alpha  occ. eigenvalues --  -10.21537 -10.21375 -10.21072 -10.20565 -10.19585
 Alpha  occ. eigenvalues --  -10.19386 -10.18110 -10.17620 -10.16739  -1.22096
 Alpha  occ. eigenvalues --   -1.06863  -1.04629  -0.90680  -0.88526  -0.81487
 Alpha  occ. eigenvalues --   -0.80683  -0.77787  -0.76280  -0.71582  -0.69707
 Alpha  occ. eigenvalues --   -0.68290  -0.68220  -0.64988  -0.60866  -0.59314
 Alpha  occ. eigenvalues --   -0.57981  -0.55290  -0.53740  -0.52977  -0.52202
 Alpha  occ. eigenvalues --   -0.51172  -0.49389  -0.48824  -0.47973  -0.47803
 Alpha  occ. eigenvalues --   -0.45932  -0.45005  -0.43909  -0.43327  -0.42618
 Alpha  occ. eigenvalues --   -0.42013  -0.40838  -0.40344  -0.39928  -0.38928
 Alpha  occ. eigenvalues --   -0.38779  -0.37753  -0.37380  -0.35728  -0.34911
 Alpha  occ. eigenvalues --   -0.33743  -0.33580  -0.32600  -0.30959  -0.30379
 Alpha  occ. eigenvalues --   -0.29441  -0.28221  -0.26695  -0.25646  -0.24589
 Alpha  occ. eigenvalues --   -0.22275
 Alpha virt. eigenvalues --   -0.08062  -0.02008  -0.00314   0.02448   0.07371
 Alpha virt. eigenvalues --    0.08195   0.08743   0.10133   0.11452   0.11920
 Alpha virt. eigenvalues --    0.13324   0.13875   0.14059   0.14298   0.15834

 Mulliken charges:
               1
     1  C   -0.381958
     2  C    0.131723
     3  C   -0.164732
     4  N   -0.564394
     5  C   -0.107929
     6  C   -0.254210
     7  C   -0.453422
     8  C   -0.077825
     9  O   -0.539411
    10  C    0.293153
    11  C    0.146457
    12  C   -0.536828
    13  C   -0.180098
    14  C   -0.134111
    15  C   -0.158642
    16  C    0.248537
    17  N    0.362005
    18  O   -0.381838
    19  O   -0.386215
    20  H    0.155894
    21  H    0.155298
    22  H    0.117726
    23  H    0.150825
    24  H    0.303360
    25  H    0.107258
    26  H    0.135765
    27  H    0.132241
    28  H    0.146805
    29  H    0.146544
    30  H    0.142892
    31  H    0.148856
    32  H    0.135697
    33  H    0.177738
    34  H    0.160890
    35  H    0.190113
    36  H    0.167992
    37  H    0.139330
    38  H    0.146002
    39  H    0.178512
 Sum of Mulliken charges =  -0.00000

 Dipole moment (field-independent basis, Debye):
    X=             -0.3580    Y=              3.9008    Z=             -2.0442  Tot=              4.4185
 Quadrupole moment (field-independent basis, Debye-Ang):
   XX=            -97.6835   YY=           -119.0931   ZZ=           -113.2000
   XY=            -13.3584   XZ=              1.3812   YZ=             -0.3261

 Normal termination of Gaussian 16 at Fri Nov  4 18:26:47 2022.
