 Gaussian 16, Revision B.01,
 Gaussian 16:  ES64L-G16RevB.01 20-Dec-2017

 -------------------------------------------------------------------
 #p b3lyp/6-31g(d) 6D 10F nosymm GFInput td=(50-50,nstate=2) SCF=XQC
 -------------------------------------------------------------------

 ------------------------------
 Gaussian input prepared by ASE
 ------------------------------
 Symbolic Z-matrix:
 Charge =  0 Multiplicity = 1

                          Input orientation:
 ---------------------------------------------------------------------
 Center     Atomic      Atomic             Coordinates (Angstroms)
 Number     Number       Type             X           Y           Z
 ---------------------------------------------------------------------
      1          6           0        0.800723    1.340067    1.112330
      2          6           0        0.638599    0.412607    0.167708
      3          6           0        1.765756   -0.088162   -0.714293
      4          7           0        3.084601    0.236983   -0.189410
      5          6           0        4.177189   -0.238134   -1.035912
      6          6           0        5.549372    0.148695   -0.474488
      7          6           0        5.890469   -0.512212    0.866618
      8          6           0       -0.684900   -0.244085   -0.126215
      9          8           0       -1.721677    0.337148    0.679208
     10          6           0       -3.006824    0.020111    0.343023
     11          6           0       -3.678766    0.796933   -0.623063
     12          6           0       -2.955537    1.913659   -1.337014
     13          6           0       -5.026230    0.527950   -0.883919
     14          6           0       -5.723538   -0.468369   -0.198739
     15          6           0       -5.076044   -1.213200    0.778379
     16          6           0       -3.724591   -0.975710    1.031974
     17          7           0       -3.090879   -1.805213    2.066007
     18          8           0       -1.897044   -2.079433    1.952522
     19          8           0       -3.810919   -2.202195    2.983114
     20          1           0       -0.030527    1.667688    1.726248
     21          1           0        1.773668    1.789289    1.280246
     22          1           0        1.629495   -1.176931   -0.887620
     23          1           0        1.677528    0.374017   -1.710425
     24          1           0        3.167923   -0.174108    0.738753
     25          1           0        4.142931   -1.335038   -1.198643
     26          1           0        4.052034    0.223606   -2.024530
     27          1           0        6.309936   -0.129152   -1.216151
     28          1           0        5.588760    1.240179   -0.370608
     29          1           0        5.215746   -0.185809    1.666986
     30          1           0        5.829097   -1.605866    0.798586
     31          1           0        6.908026   -0.256147    1.181994
     32          1           0       -0.934404   -0.126347   -1.192502
     33          1           0       -0.638707   -1.319039    0.086044
     34          1           0       -3.660358    2.682687   -1.667223
     35          1           0       -2.208315    2.374927   -0.686090
     36          1           0       -2.429704    1.548854   -2.229152
     37          1           0       -5.542604    1.127417   -1.629768
     38          1           0       -6.771197   -0.651997   -0.415871
     39          1           0       -5.589090   -1.975671    1.351894
 ---------------------------------------------------------------------

 SCF Done:  E(RB3LYP) =  -880.569154827     A.U. after   15 cycles

 Excitation energies and oscillator strengths:

 Excited state symmetry could not be determined.
 Excited State   1:      Triplet-?Sym    2.8238 eV  439.06 nm  f=0.0000  <S**2>=2.000
      64 -> 72        -0.43349
      64 -> 74         0.13781
      65 -> 72         0.47544
      65 -> 74        -0.13960
      67 -> 72        -0.24494
      64 <- 72        -0.10960
      65 <- 72         0.11525
 This state for optimization and/or second-order correction.
 Total Energy, E(TD-HF/TD-DFT) =  -880.465381112
 Copying the excited state density for this state as the 1-particle RhoCI density.

 Excited state symmetry could not be determined.
 Excited State   2:      Triplet-?Sym    3.0513 eV  406.33 nm  f=0.0000  <S**2>=2.000
      66 -> 72        -0.27904
      66 -> 74         0.14251
      68 -> 72         0.58372
      69 -> 72        -0.11013
      69 -> 73        -0.13074
      70 -> 72         0.14156

 Excited state symmetry could not be determined.
 Excited State   3:      Singlet-?Sym    3.4474 eV  359.65 nm  f=0.0005  <S**2>=0.000
      71 -> 72         0.70617

 Excited state symmetry could not be determined.
 Excited State   4:      Singlet-?Sym    3.7160 eV  333.65 nm  f=0.0107  <S**2>=0.000
      66 -> 72        -0.39291
      67 -> 72        -0.10500
      68 -> 72         0.42788
      70 -> 72         0.35998

 Alpha  occ. eigenvalues --  -19.17868 -19.17731 -19.17712 -14.56936 -14.31769
 Alpha  occ. eigenvalues --  -10.27236 -10.25183 -10.24558 -10.21930 -10.21636
 Alpha  occ. eigenvalues --  -10.21537 -10.21375 -10.21072 -10.20565 -10.19585
 Alpha  occ. eigenvalues --  -10.19386 -10.18110 -10.17620 -10.16739  -1.22096
 Alpha  occ. eigenvalues --   -1.06863  -1.04629  -0.90680  -0.88526  -0.81487
 Alpha  occ. eigenvalues --   -0.80683  -0.77787  -0.76280  -0.71582  -0.69707
 Alpha  occ. eigenvalues --   -0.68290  -0.68220  -0.64988  -0.60866  -0.59314
 Alpha  occ. eigenvalues --   -0.57981  -0.55290  -0.53740  -0.52977  -0.52202
 Alpha  occ. eigenvalues --   -0.51172  -0.49389  -0.48824  -0.47973  -0.47803
 Alpha  occ. eigenvalues --   -0.45932  -0.45005  -0.43909  -0.43327  -0.42618
 Alpha  occ. eigenvalues --   -0.42013  -0.40838  -0.40344  -0.39928  -0.38928
 Alpha  occ. eigenvalues --   -0.38779  -0.37753  -0.37380  -0.35728  -0.34911
 Alpha  occ. eigenvalues --   -0.33743  -0.33580  -0.32600  -0.30959  -0.30379
 Alpha  occ. eigenvalues --   -0.29441  -0.28221  -0.26695  -0.25646  -0.24589
 Alpha  occ. eigenvalues --   -0.22275
 Alpha virt. eigenvalues --   -0.08062  -0.02008  -0.00314   0.02448   0.07371
 Alpha virt. eigenvalues --    0.08195   0.08743   0.10133   0.11452   0.11920
 Alpha virt. eigenvalues --    0.13324   0.13875   0.14059   0.14298   0.15834

 Mulliken charges:
               1
     1  C   -0.381950
     2  C    0.131709
     3  C   -0.164725
     4  N   -0.564388
     5  C   -0.107960
     6  C   -0.254203
     7  C   -0.453407
     8  C   -0.077815
     9  O   -0.539413
    10  C    0.293156
    11  C    0.146453
    12  C   -0.536827
    13  C   -0.180084
    14  C   -0.134125
    15  C   -0.158641
    16  C    0.248533
    17  N    0.362013
    18  O   -0.381839
    19  O   -0.386217
    20  H    0.155892
    21  H    0.155297
    22  H    0.117726
    23  H    0.150823
    24  H    0.303360
    25  H    0.107264
    26  H    0.135769
    27  H    0.132241
    28  H    0.146804
    29  H    0.146541
    30  H    0.142889
    31  H    0.148853
    32  H    0.135695
    33  H    0.177735
    34  H    0.160890
    35  H    0.190114
    36  H    0.167993
    37  H    0.139330
    38  H    0.146004
    39  H    0.178512
 Sum of Mulliken charges =  -0.00000

 Dipole moment (field-independent basis, Debye):
    X=             -0.7498    Y=              1.1164    Z=             -4.2089  Tot=              4.4186
 Quadrupole moment (field-independent basis, Debye-Ang):
   XX=            -94.1548   YY=           -117.6007   ZZ=           -120.2317
   XY=             -7.2530   XZ=             11.9125   YZ=              5.3611

 Normal termination of Gaussian 16 at Sat Nov  5 11:16:34 2022.
