 Gaussian 16, Revision B.01,
 Gaussian 16:  ES64L-G16RevB.01 20-Dec-2017

 -----------------------------
 #p b3lyp/6-31g(d) opt SCF=XQC
 -----------------------------

 ------------------------------
 Gaussian input prepared by ASE
 ------------------------------
 Symbolic Z-matrix:
 Charge =  0 Multiplicity = 1

 SCF Done:  E(RB3LYP) =  -904.075291923     A.U. after   15 cycles
 SCF Done:  E(RB3LYP) =  -904.081876605     A.U. after   13 cycles
 SCF Done:  E(RB3LYP) =  -904.082129796     A.U. after   13 cycles
 SCF Done:  E(RB3LYP) =  -904.082126826     A.U. after   14 cycles
 SCF Done:  E(RB3LYP) =  -904.082946748     A.U. after   13 cycles
 SCF Done:  E(RB3LYP) =  -904.083431911     A.U. after   12 cycles
 SCF Done:  E(RB3LYP) =  -904.083688268     A.U. after   13 cycles
 SCF Done:  E(RB3LYP) =  -904.083796489     A.U. after   12 cycles
 SCF Done:  E(RB3LYP) =  -904.083893208     A.U. after   12 cycles
 SCF Done:  E(RB3LYP) =  -904.083943285     A.U. after   11 cycles
 SCF Done:  E(RB3LYP) =  -904.083948650     A.U. after   10 cycles
 SCF Done:  E(RB3LYP) =  -904.083950288     A.U. after    8 cycles
 SCF Done:  E(RB3LYP) =  -904.083950742     A.U. after    8 cycles
 SCF Done:  E(RB3LYP) =  -904.083950883     A.U. after    8 cycles
 SCF Done:  E(RB3LYP) =  -904.083950906     A.U. after    7 cycles
 SCF Done:  E(RB3LYP) =  -904.083950911     A.U. after    7 cycles
 Optimization completed.
    -- Stationary point found.

                         Standard orientation:
 ---------------------------------------------------------------------
 Center     Atomic      Atomic             Coordinates (Angstroms)
 Number     Number       Type             X           Y           Z
 ---------------------------------------------------------------------
      1          6           0       -3.815330    0.202216   -1.324575
      2          6           0       -2.513776   -0.253252   -0.642359
      3          6           0       -2.817776   -1.168871    0.564510
      4          8           0       -2.671722   -0.851704    1.711672
      5          8           0       -3.281768   -2.402887    0.230197
      6          7           0       -1.708903    0.878722   -0.220428
      7          7           0       -2.263320    2.108092   -0.027767
      8          7           0       -1.302883    2.889806    0.328037
      9          7           0       -0.124215    2.225691    0.395391
     10          6           0       -0.379535    0.963500    0.060046
     11          6           0        0.614619   -0.081033   -0.024879
     12          6           0        0.498438   -1.486632   -0.110058
     13          7           0        1.673178   -2.114299   -0.171689
     14          7           0        2.586445   -1.110359   -0.119346
     15          6           0        3.937981   -1.310237   -0.152810
     16          6           0        4.767099   -0.224591   -0.086786
     17          6           0        4.220817    1.084502    0.017485
     18          6           0        2.858778    1.275701    0.051633
     19          6           0        2.008574    0.148938   -0.021563
     20          1           0       -3.589315    0.856145   -2.169900
     21          1           0       -4.367166   -0.667850   -1.695258
     22          1           0       -4.448321    0.749812   -0.624518
     23          1           0       -1.908708   -0.818366   -1.363664
     24          1           0       -3.347017   -2.504625   -0.734273
     25          1           0       -0.396107   -2.094064   -0.103137
     26          1           0        4.251024   -2.343513   -0.228440
     27          1           0        5.840049   -0.378036   -0.110645
     28          1           0        4.888632    1.938172    0.075476
     29          1           0        2.403386    2.254035    0.146155
 ---------------------------------------------------------------------

 The electronic state is 1-A.
 Alpha  occ. eigenvalues --  -19.22330 -19.16044 -14.45363 -14.43672 -14.39758
 Alpha  occ. eigenvalues --  -14.38477 -14.36779 -14.34993 -10.34448 -10.28656
 Alpha  occ. eigenvalues --  -10.27698 -10.25774 -10.25531 -10.23777 -10.22139
 Alpha  occ. eigenvalues --  -10.22125 -10.22072 -10.21746 -10.21639  -1.13211
 Alpha  occ. eigenvalues --   -1.12414  -1.08093  -1.04596  -0.95671  -0.90416
 Alpha  occ. eigenvalues --   -0.89324  -0.83604  -0.81539  -0.79872  -0.75510
 Alpha  occ. eigenvalues --   -0.70905  -0.67914  -0.66185  -0.65496  -0.64053
 Alpha  occ. eigenvalues --   -0.62343  -0.61172  -0.57423  -0.54906  -0.52521
 Alpha  occ. eigenvalues --   -0.51127  -0.50931  -0.48864  -0.48211  -0.47672
 Alpha  occ. eigenvalues --   -0.47487  -0.47283  -0.45717  -0.43696  -0.43366
 Alpha  occ. eigenvalues --   -0.42726  -0.40877  -0.40575  -0.40289  -0.39205
 Alpha  occ. eigenvalues --   -0.36696  -0.36288  -0.34411  -0.33966  -0.31523
 Alpha  occ. eigenvalues --   -0.31402  -0.29277  -0.29242  -0.29111  -0.27764
 Alpha  occ. eigenvalues --   -0.27462  -0.22020
 Alpha virt. eigenvalues --   -0.05249  -0.02760  -0.02039  -0.00916   0.01415
 Alpha virt. eigenvalues --    0.02103   0.07868   0.08118   0.09849   0.11408
 Alpha virt. eigenvalues --    0.12074   0.12357   0.13279   0.13962   0.14721

 Mulliken charges:
               1
     1  C   -0.450852
     2  C   -0.125893
     3  C    0.625490
     4  O   -0.406188
     5  O   -0.567963
     6  N   -0.373231
     7  N   -0.059646
     8  N   -0.083952
     9  N   -0.426972
    10  C    0.554891
    11  C   -0.030257
    12  C    0.026107
    13  N   -0.317009
    14  N   -0.374877
    15  C    0.100413
    16  C   -0.183794
    17  C   -0.115169
    18  C   -0.177821
    19  C    0.392674
    20  H    0.191581
    21  H    0.145167
    22  H    0.211516
    23  H    0.175344
    24  H    0.417295
    25  H    0.150819
    26  H    0.189390
    27  H    0.156526
    28  H    0.155711
    29  H    0.200700
 Sum of Mulliken charges =  -0.00000

 Dipole moment (field-independent basis, Debye):
    X=              2.2083    Y=             -3.4181    Z=             -5.0883  Tot=              6.5154
 Quadrupole moment (field-independent basis, Debye-Ang):
   XX=            -81.1192   YY=           -121.0226   ZZ=           -111.0976
   XY=              8.7764   XZ=             13.8004   YZ=              3.6738

 Normal termination of Gaussian 16 at Fri Nov  4 18:24:25 2022.
