 Gaussian 16, Revision B.01,
 Gaussian 16:  ES64L-G16RevB.01 20-Dec-2017

 -------------------------------------------------------------------
 #p b3lyp/6-31g(d) 6D 10F nosymm GFInput td=(50-50,nstate=2) SCF=XQC
 -------------------------------------------------------------------

 ------------------------------
 Gaussian input prepared by ASE
 ------------------------------
 Symbolic Z-matrix:
 Charge =  0 Multiplicity = 1

                          Input orientation:
 ---------------------------------------------------------------------
 Center     Atomic      Atomic             Coordinates (Angstroms)
 Number     Number       Type             X           Y           Z
 ---------------------------------------------------------------------
      1          6           0       -3.548064   -1.707454    0.781590
      2          6           0       -2.475625   -0.692392    0.349811
      3          6           0       -3.118751    0.510626   -0.375755
      4          8           0       -3.022942    0.725176   -1.551637
      5          8           0       -3.829569    1.340289    0.434335
      6          7           0       -1.470081   -1.307465   -0.497407
      7          7           0       -1.727493   -2.458509   -1.179085
      8          7           0       -0.649727   -2.750727   -1.821847
      9          7           0        0.318985   -1.828475   -1.607624
     10          6           0       -0.197304   -0.919270   -0.784484
     11          6           0        0.517509    0.228269   -0.275757
     12          6           0        0.074100    1.399519    0.378478
     13          7           0        1.061553    2.237556    0.695352
     14          7           0        2.179882    1.617192    0.237991
     15          6           0        3.438449    2.137055    0.354077
     16          6           0        4.493960    1.428030   -0.149514
     17          6           0        4.273091    0.174008   -0.783286
     18          6           0        3.002222   -0.340730   -0.896461
     19          6           0        1.917179    0.396024   -0.369511
     20          1           0       -3.081930   -2.557701    1.284658
     21          1           0       -4.251593   -1.235408    1.475250
     22          1           0       -4.100265   -2.078745   -0.083185
     23          1           0       -1.952338   -0.321507    1.241079
     24          1           0       -3.814681    1.030136    1.355418
     25          1           0       -0.936443    1.699735    0.619117
     26          1           0        3.498139    3.098266    0.847924
     27          1           0        5.494083    1.837207   -0.061973
     28          1           0        5.117715   -0.376913   -1.184769
     29          1           0        2.789938   -1.283792   -1.385360
 ---------------------------------------------------------------------

 SCF Done:  E(RB3LYP) =  -904.083950983     A.U. after   15 cycles

 Excitation energies and oscillator strengths:

 Excited state symmetry could not be determined.
 Excited State   1:      Triplet-?Sym    2.8431 eV  436.09 nm  f=0.0000  <S**2>=2.000
      63 -> 68         0.13643
      67 -> 68         0.66535
 This state for optimization and/or second-order correction.
 Total Energy, E(TD-HF/TD-DFT) =  -903.979469328
 Copying the excited state density for this state as the 1-particle RhoCI density.

 Excited state symmetry could not be determined.
 Excited State   2:      Triplet-?Sym    3.6830 eV  336.64 nm  f=0.0000  <S**2>=2.000
      63 -> 68        -0.15669
      67 -> 68         0.11812
      67 -> 69         0.65444

 Excited state symmetry could not be determined.
 Excited State   3:      Singlet-?Sym    4.0483 eV  306.26 nm  f=0.1593  <S**2>=0.000
      67 -> 68         0.68333
      67 -> 69        -0.13609

 Excited state symmetry could not be determined.
 Excited State   4:      Singlet-?Sym    4.6204 eV  268.34 nm  f=0.1984  <S**2>=0.000
      66 -> 68         0.28762
      67 -> 68         0.13958
      67 -> 69         0.61592

 Alpha  occ. eigenvalues --  -19.22330 -19.16044 -14.45363 -14.43672 -14.39758
 Alpha  occ. eigenvalues --  -14.38477 -14.36779 -14.34993 -10.34448 -10.28656
 Alpha  occ. eigenvalues --  -10.27698 -10.25775 -10.25531 -10.23777 -10.22139
 Alpha  occ. eigenvalues --  -10.22125 -10.22072 -10.21746 -10.21639  -1.13211
 Alpha  occ. eigenvalues --   -1.12414  -1.08093  -1.04596  -0.95671  -0.90416
 Alpha  occ. eigenvalues --   -0.89324  -0.83604  -0.81539  -0.79872  -0.75510
 Alpha  occ. eigenvalues --   -0.70905  -0.67914  -0.66185  -0.65497  -0.64053
 Alpha  occ. eigenvalues --   -0.62343  -0.61172  -0.57423  -0.54906  -0.52521
 Alpha  occ. eigenvalues --   -0.51127  -0.50931  -0.48864  -0.48211  -0.47672
 Alpha  occ. eigenvalues --   -0.47487  -0.47283  -0.45717  -0.43696  -0.43366
 Alpha  occ. eigenvalues --   -0.42726  -0.40877  -0.40575  -0.40289  -0.39205
 Alpha  occ. eigenvalues --   -0.36696  -0.36288  -0.34411  -0.33966  -0.31523
 Alpha  occ. eigenvalues --   -0.31402  -0.29277  -0.29242  -0.29111  -0.27764
 Alpha  occ. eigenvalues --   -0.27462  -0.22020
 Alpha virt. eigenvalues --   -0.05249  -0.02760  -0.02039  -0.00916   0.01415
 Alpha virt. eigenvalues --    0.02103   0.07868   0.08118   0.09849   0.11408
 Alpha virt. eigenvalues --    0.12074   0.12357   0.13279   0.13962   0.14721

 Mulliken charges:
               1
     1  C   -0.450849
     2  C   -0.125869
     3  C    0.625464
     4  O   -0.406184
     5  O   -0.567957
     6  N   -0.373232
     7  N   -0.059645
     8  N   -0.083949
     9  N   -0.426979
    10  C    0.554885
    11  C   -0.030247
    12  C    0.026102
    13  N   -0.317006
    14  N   -0.374868
    15  C    0.100407
    16  C   -0.183795
    17  C   -0.115163
    18  C   -0.177814
    19  C    0.392653
    20  H    0.191580
    21  H    0.145166
    22  H    0.211516
    23  H    0.175343
    24  H    0.417295
    25  H    0.150819
    26  H    0.189390
    27  H    0.156527
    28  H    0.155709
    29  H    0.200700
 Sum of Mulliken charges =  -0.00000

 Dipole moment (field-independent basis, Debye):
    X=              1.8424    Y=              1.5719    Z=              6.0486  Tot=              6.5154
 Quadrupole moment (field-independent basis, Debye-Ang):
   XX=            -82.9296   YY=           -120.4068   ZZ=           -114.1362
   XY=              8.3801   XZ=            -16.1638   YZ=             -5.9965

 Normal termination of Gaussian 16 at Sat Nov  5 11:15:38 2022.
