 Gaussian 16, Revision B.01,
 Gaussian 16:  ES64L-G16RevB.01 20-Dec-2017

 -----------------------------
 #p b3lyp/6-31g(d) opt SCF=XQC
 -----------------------------

 ------------------------------
 Gaussian input prepared by ASE
 ------------------------------
 Symbolic Z-matrix:
 Charge =  0 Multiplicity = 1

 SCF Done:  E(RB3LYP) =  -895.576868065     A.U. after   15 cycles
 SCF Done:  E(RB3LYP) =  -895.580472378     A.U. after   12 cycles
 SCF Done:  E(RB3LYP) =  -895.581046110     A.U. after   12 cycles
 SCF Done:  E(RB3LYP) =  -895.581224582     A.U. after   11 cycles
 SCF Done:  E(RB3LYP) =  -895.581266458     A.U. after   11 cycles
 SCF Done:  E(RB3LYP) =  -895.581315915     A.U. after   10 cycles
 SCF Done:  E(RB3LYP) =  -895.581321106     A.U. after   10 cycles
 SCF Done:  E(RB3LYP) =  -895.581324992     A.U. after   10 cycles
 SCF Done:  E(RB3LYP) =  -895.581328666     A.U. after   11 cycles
 SCF Done:  E(RB3LYP) =  -895.581330778     A.U. after   10 cycles
 SCF Done:  E(RB3LYP) =  -895.581332328     A.U. after   10 cycles
 SCF Done:  E(RB3LYP) =  -895.581332569     A.U. after    8 cycles
 SCF Done:  E(RB3LYP) =  -895.581332864     A.U. after    8 cycles
 SCF Done:  E(RB3LYP) =  -895.581333155     A.U. after    8 cycles
 SCF Done:  E(RB3LYP) =  -895.581333325     A.U. after    8 cycles
 SCF Done:  E(RB3LYP) =  -895.581333411     A.U. after    8 cycles
 SCF Done:  E(RB3LYP) =  -895.581333437     A.U. after    7 cycles
 Optimization completed.
    -- Stationary point found.

                         Standard orientation:
 ---------------------------------------------------------------------
 Center     Atomic      Atomic             Coordinates (Angstroms)
 Number     Number       Type             X           Y           Z
 ---------------------------------------------------------------------
      1          6           0        5.302498   -0.811938    0.972072
      2          6           0        4.722870   -0.794231   -0.435326
      3          8           0        3.298147   -1.024543   -0.426356
      4          6           0        2.510703    0.070431   -0.211980
      5          8           0        2.968536    1.186351   -0.075192
      6          6           0        1.071781   -0.306197   -0.164442
      7          6           0        0.721269   -1.667543   -0.015272
      8          7           0       -0.518949   -2.148990    0.078206
      9          6           0       -1.448114   -1.196659    0.012788
     10          6           0       -1.275113    0.194301   -0.139750
     11          7           0       -2.514239    0.823562   -0.162459
     12          6           0       -3.395875   -0.142328   -0.030786
     13          6           0       -4.875221    0.054674    0.002226
     14          7           0       -2.813720   -1.392169    0.078560
     15          6           0       -3.465509   -2.681032    0.235655
     16          6           0        0.046905    0.681582   -0.238078
     17          8           0        0.408247    1.952225   -0.425079
     18          6           0       -0.553606    3.031765   -0.463042
     19          6           0       -0.909936    3.510667    0.935553
     20          1           0        4.903834    0.018774    1.560928
     21          1           0        5.064956   -1.752768    1.479854
     22          1           0        6.393298   -0.710504    0.928110
     23          1           0        5.124089   -1.610539   -1.041976
     24          1           0        4.923720    0.158518   -0.931103
     25          1           0        1.521459   -2.397352    0.035516
     26          1           0       -5.311851   -0.302899    0.943285
     27          1           0       -5.374651   -0.480459   -0.815292
     28          1           0       -5.087585    1.120464   -0.097944
     29          1           0       -2.680874   -3.437998    0.283108
     30          1           0       -4.054047   -2.712273    1.158526
     31          1           0       -4.121617   -2.893513   -0.614799
     32          1           0       -1.442064    2.722928   -1.015490
     33          1           0       -0.029154    3.812067   -1.020655
     34          1           0       -1.538480    4.406389    0.866200
     35          1           0       -1.472109    2.745723    1.478186
     36          1           0       -0.005911    3.763390    1.498705
 ---------------------------------------------------------------------

 The electronic state is 1-A.
 Alpha  occ. eigenvalues --  -19.18008 -19.17236 -19.11555 -14.39645 -14.32534
 Alpha  occ. eigenvalues --  -14.32390 -10.30213 -10.27149 -10.26294 -10.25133
 Alpha  occ. eigenvalues --  -10.23796 -10.23317 -10.23144 -10.22101 -10.21369
 Alpha  occ. eigenvalues --  -10.20600 -10.19514 -10.17363 -10.17287  -1.08186
 Alpha  occ. eigenvalues --   -1.06885  -1.03097  -0.99353  -0.93532  -0.89817
 Alpha  occ. eigenvalues --   -0.80523  -0.78589  -0.76348  -0.74563  -0.73320
 Alpha  occ. eigenvalues --   -0.71723  -0.66069  -0.65068  -0.62506  -0.60132
 Alpha  occ. eigenvalues --   -0.57227  -0.55460  -0.53052  -0.52379  -0.50255
 Alpha  occ. eigenvalues --   -0.49140  -0.48630  -0.47030  -0.45972  -0.45255
 Alpha  occ. eigenvalues --   -0.44566  -0.43682  -0.43432  -0.42850  -0.42573
 Alpha  occ. eigenvalues --   -0.41462  -0.41360  -0.40703  -0.39521  -0.39377
 Alpha  occ. eigenvalues --   -0.38394  -0.37487  -0.36464  -0.35971  -0.35083
 Alpha  occ. eigenvalues --   -0.34292  -0.33137  -0.32627  -0.29362  -0.28536
 Alpha  occ. eigenvalues --   -0.28177  -0.26326  -0.24568  -0.23494  -0.22021
 Alpha virt. eigenvalues --   -0.02447  -0.01435   0.03946   0.07716   0.07860
 Alpha virt. eigenvalues --    0.10919   0.11714   0.12182   0.12346   0.12718
 Alpha virt. eigenvalues --    0.13887   0.13928   0.15301   0.15465   0.15744

 Mulliken charges:
               1
     1  C   -0.461229
     2  C   -0.035738
     3  O   -0.486446
     4  C    0.600428
     5  O   -0.484265
     6  C   -0.057820
     7  C    0.004148
     8  N   -0.532492
     9  C    0.508444
    10  C    0.181404
    11  N   -0.568087
    12  C    0.499766
    13  C   -0.534359
    14  N   -0.515398
    15  C   -0.336975
    16  C    0.351178
    17  O   -0.491944
    18  C   -0.041659
    19  C   -0.461505
    20  H    0.176380
    21  H    0.152936
    22  H    0.145667
    23  H    0.146677
    24  H    0.168478
    25  H    0.165332
    26  H    0.170384
    27  H    0.170615
    28  H    0.193464
    29  H    0.213741
    30  H    0.171733
    31  H    0.171870
    32  H    0.180889
    33  H    0.155388
    34  H    0.144974
    35  H    0.170392
    36  H    0.163629
 Sum of Mulliken charges =  -0.00000

 Dipole moment (field-independent basis, Debye):
    X=             -3.8208    Y=             -1.4818    Z=              0.2323  Tot=              4.1046
 Quadrupole moment (field-independent basis, Debye-Ang):
   XX=            -86.9222   YY=           -107.5286   ZZ=           -110.0980
   XY=              0.1522   XZ=             -1.0297   YZ=             -0.8103

 Normal termination of Gaussian 16 at Fri Nov  4 18:24:55 2022.
