 Gaussian 16, Revision B.01,
 Gaussian 16:  ES64L-G16RevB.01 20-Dec-2017

 -------------------------------------------------------------------
 #p b3lyp/6-31g(d) 6D 10F nosymm GFInput td=(50-50,nstate=2) SCF=XQC
 -------------------------------------------------------------------

 ------------------------------
 Gaussian input prepared by ASE
 ------------------------------
 Symbolic Z-matrix:
 Charge =  0 Multiplicity = 1

                          Input orientation:
 ---------------------------------------------------------------------
 Center     Atomic      Atomic             Coordinates (Angstroms)
 Number     Number       Type             X           Y           Z
 ---------------------------------------------------------------------
      1          6           0        5.089070   -2.162294   -0.421834
      2          6           0        4.661524   -0.985707   -1.287802
      3          8           0        3.224454   -0.881680   -1.371286
      4          6           0        2.607512   -0.209843   -0.354915
      5          8           0        3.224301    0.309704    0.552412
      6          6           0        1.129003   -0.224784   -0.523411
      7          6           0        0.549657   -1.134301   -1.437474
      8          7           0       -0.755257   -1.285849   -1.667479
      9          6           0       -1.506879   -0.467686   -0.932473
     10          6           0       -1.096697    0.495015    0.012474
     11          7           0       -2.209193    1.132621    0.548877
     12          6           0       -3.244255    0.581695   -0.044999
     13          6           0       -4.668117    0.947400    0.214312
     14          7           0       -2.885865   -0.395131   -0.956224
     15          6           0       -3.750065   -1.210630   -1.792164
     16          6           0        0.289956    0.639190    0.238856
     17          8           0        0.868973    1.517976    1.058946
     18          6           0        0.103153    2.401691    1.910167
     19          6           0       -0.306983    1.713877    3.202872
     20          1           0        4.774151   -2.009704    0.614172
     21          1           0        4.653413   -3.096831   -0.790987
     22          1           0        6.180848   -2.261293   -0.438783
     23          1           0        4.983039   -1.116241   -2.324599
     24          1           0        5.061902   -0.046091   -0.899620
     25          1           0        1.212126   -1.777641   -2.005587
     26          1           0       -5.247484    0.090508    0.580599
     27          1           0       -5.164594    1.315525   -0.692401
     28          1           0       -4.694137    1.734499    0.969851
     29          1           0       -3.106938   -1.865816   -2.382099
     30          1           0       -4.423938   -1.820303   -1.181233
     31          1           0       -4.344873   -0.585634   -2.466316
     32          1           0       -0.764767    2.782923    1.370432
     33          1           0        0.799428    3.220762    2.108101
     34          1           0       -0.772216    2.445161    3.874420
     35          1           0       -1.036330    0.922590    3.009108
     36          1           0        0.566079    1.286322    3.706092
 ---------------------------------------------------------------------

 SCF Done:  E(RB3LYP) =  -895.581334681     A.U. after   15 cycles

 Excitation energies and oscillator strengths:

 Excited state symmetry could not be determined.
 Excited State   1:      Triplet-?Sym    3.4739 eV  356.90 nm  f=0.0000  <S**2>=2.000
      69 -> 71        -0.11826
      69 -> 72        -0.19550
      70 -> 71         0.56276
      70 -> 72        -0.33480
 This state for optimization and/or second-order correction.
 Total Energy, E(TD-HF/TD-DFT) =  -895.453671720
 Copying the excited state density for this state as the 1-particle RhoCI density.

 Excited state symmetry could not be determined.
 Excited State   2:      Triplet-?Sym    4.0972 eV  302.60 nm  f=0.0000  <S**2>=2.000
      69 -> 71         0.38607
      69 -> 72         0.31705
      70 -> 71         0.37767
      70 -> 72         0.28289

 Excited state symmetry could not be determined.
 Excited State   3:      Singlet-?Sym    4.6443 eV  266.96 nm  f=0.0083  <S**2>=0.000
      69 -> 71         0.30546
      69 -> 72        -0.18879
      70 -> 71         0.44283
      70 -> 72         0.40264

 Excited state symmetry could not be determined.
 Excited State   4:      Singlet-?Sym    4.7770 eV  259.54 nm  f=0.0040  <S**2>=0.000
      67 -> 71         0.14264
      68 -> 71         0.61315
      68 -> 72         0.22593
      69 -> 72         0.11335

 Alpha  occ. eigenvalues --  -19.18008 -19.17236 -19.11555 -14.39645 -14.32534
 Alpha  occ. eigenvalues --  -14.32390 -10.30213 -10.27149 -10.26294 -10.25133
 Alpha  occ. eigenvalues --  -10.23796 -10.23317 -10.23144 -10.22101 -10.21369
 Alpha  occ. eigenvalues --  -10.20600 -10.19514 -10.17363 -10.17287  -1.08186
 Alpha  occ. eigenvalues --   -1.06885  -1.03097  -0.99353  -0.93532  -0.89817
 Alpha  occ. eigenvalues --   -0.80523  -0.78589  -0.76348  -0.74563  -0.73320
 Alpha  occ. eigenvalues --   -0.71723  -0.66069  -0.65068  -0.62506  -0.60132
 Alpha  occ. eigenvalues --   -0.57227  -0.55460  -0.53052  -0.52379  -0.50255
 Alpha  occ. eigenvalues --   -0.49140  -0.48630  -0.47030  -0.45972  -0.45256
 Alpha  occ. eigenvalues --   -0.44566  -0.43682  -0.43432  -0.42850  -0.42573
 Alpha  occ. eigenvalues --   -0.41462  -0.41360  -0.40703  -0.39521  -0.39377
 Alpha  occ. eigenvalues --   -0.38394  -0.37487  -0.36464  -0.35971  -0.35083
 Alpha  occ. eigenvalues --   -0.34292  -0.33137  -0.32627  -0.29362  -0.28536
 Alpha  occ. eigenvalues --   -0.28177  -0.26326  -0.24568  -0.23494  -0.22021
 Alpha virt. eigenvalues --   -0.02447  -0.01435   0.03946   0.07716   0.07860
 Alpha virt. eigenvalues --    0.10919   0.11714   0.12182   0.12346   0.12718
 Alpha virt. eigenvalues --    0.13887   0.13928   0.15301   0.15465   0.15744

 Mulliken charges:
               1
     1  C   -0.461227
     2  C   -0.035743
     3  O   -0.486444
     4  C    0.600431
     5  O   -0.484264
     6  C   -0.057823
     7  C    0.004145
     8  N   -0.532474
     9  C    0.508405
    10  C    0.181420
    11  N   -0.568084
    12  C    0.499784
    13  C   -0.534368
    14  N   -0.515397
    15  C   -0.336973
    16  C    0.351167
    17  O   -0.491939
    18  C   -0.041663
    19  C   -0.461500
    20  H    0.176380
    21  H    0.152936
    22  H    0.145667
    23  H    0.146677
    24  H    0.168479
    25  H    0.165332
    26  H    0.170385
    27  H    0.170614
    28  H    0.193465
    29  H    0.213741
    30  H    0.171732
    31  H    0.171869
    32  H    0.180889
    33  H    0.155389
    34  H    0.144973
    35  H    0.170390
    36  H    0.163629
 Sum of Mulliken charges =  -0.00000

 Dipole moment (field-independent basis, Debye):
    X=             -4.0144    Y=             -0.4240    Z=             -0.7436  Tot=              4.1046
 Quadrupole moment (field-independent basis, Debye-Ang):
   XX=            -88.2980   YY=           -107.8961   ZZ=           -109.0912
   XY=             -3.0444   XZ=             -1.2208   YZ=              1.6812

 Normal termination of Gaussian 16 at Sat Nov  5 11:13:02 2022.
