 Gaussian 16, Revision B.01,
 Gaussian 16:  ES64L-G16RevB.01 20-Dec-2017

 -----------------------------
 #p b3lyp/6-31g(d) opt SCF=XQC
 -----------------------------

 ------------------------------
 Gaussian input prepared by ASE
 ------------------------------
 Symbolic Z-matrix:
 Charge =  0 Multiplicity = 1

 SCF Done:  E(RB3LYP) =  -1778.00246713     A.U. after   16 cycles
 SCF Done:  E(RB3LYP) =  -1778.00960371     A.U. after   14 cycles
 SCF Done:  E(RB3LYP) =  -1778.01070989     A.U. after   14 cycles
 SCF Done:  E(RB3LYP) =  -1778.01167204     A.U. after   13 cycles
 SCF Done:  E(RB3LYP) =  -1778.01273668     A.U. after   12 cycles
 SCF Done:  E(RB3LYP) =  -1778.01294870     A.U. after   12 cycles
 SCF Done:  E(RB3LYP) =  -1778.01302886     A.U. after   11 cycles
 SCF Done:  E(RB3LYP) =  -1778.01306624     A.U. after   11 cycles
 SCF Done:  E(RB3LYP) =  -1778.01309762     A.U. after   10 cycles
 SCF Done:  E(RB3LYP) =  -1778.01311080     A.U. after   10 cycles
 SCF Done:  E(RB3LYP) =  -1778.01311365     A.U. after    9 cycles
 SCF Done:  E(RB3LYP) =  -1778.01311720     A.U. after    9 cycles
 SCF Done:  E(RB3LYP) =  -1778.01311996     A.U. after    9 cycles
 SCF Done:  E(RB3LYP) =  -1778.01312142     A.U. after    9 cycles
 SCF Done:  E(RB3LYP) =  -1778.01312283     A.U. after    9 cycles
 SCF Done:  E(RB3LYP) =  -1778.01312434     A.U. after    9 cycles
 SCF Done:  E(RB3LYP) =  -1778.01312482     A.U. after    8 cycles
 SCF Done:  E(RB3LYP) =  -1778.01312496     A.U. after    8 cycles
 SCF Done:  E(RB3LYP) =  -1778.01312505     A.U. after    7 cycles
 Optimization completed.
    -- Stationary point found.

                         Standard orientation:
 ---------------------------------------------------------------------
 Center     Atomic      Atomic             Coordinates (Angstroms)
 Number     Number       Type             X           Y           Z
 ---------------------------------------------------------------------
      1          6           0        3.507445    1.608546    2.399577
      2          8           0        2.909853    1.228050    1.164426
      3          6           0        3.552805    0.330015    0.383960
      4          6           0        4.921728    0.047392    0.484469
      5          6           0        5.538195   -0.826434   -0.410395
      6          6           0        4.781147   -1.414676   -1.414009
      7          9           0        5.372478   -2.259831   -2.285815
      8          6           0        3.423373   -1.161763   -1.533955
      9          6           0        2.786049   -0.306952   -0.619705
     10          6           0        1.333557   -0.080061   -0.780502
     11          8           0        0.924284    0.209681   -2.048465
     12          6           0        0.375407   -0.215148    0.169761
     13          6           0        0.556402   -0.737824    1.524267
     14          8           0        1.568876   -1.067764    2.117193
     15          6           0       -0.854307   -0.854806    2.131217
     16          8           0       -1.138447   -1.270760    3.239914
     17          7           0       -1.726291   -0.395813    1.175988
     18          6           0       -3.168320   -0.414919    1.376925
     19          6           0       -3.897527   -1.287756    0.407373
     20          6           0       -4.886371   -1.048297   -0.503236
     21          6           0       -5.202040   -2.310747   -1.108098
     22          6           0       -4.376511   -3.221265   -0.524808
     23          8           0       -3.576588   -2.618325    0.400404
     24          6           0       -1.106463    0.042731   -0.084212
     25          6           0       -1.458739    1.469443   -0.437527
     26         16           0       -1.157748    2.769589    0.696335
     27          6           0       -1.779417    3.943386   -0.415217
     28          6           0       -2.186837    3.362492   -1.581589
     29          6           0       -2.010180    1.939723   -1.608030
     30          6           0       -2.372329    1.087160   -2.799759
     31          1           0        2.754587    2.203194    2.918452
     32          1           0        4.403924    2.222042    2.241023
     33          1           0        3.753873    0.725877    2.999006
     34          1           0        5.518256    0.516775    1.257389
     35          1           0        6.597489   -1.049222   -0.335624
     36          1           0        2.853594   -1.675472   -2.302204
     37          1           0        1.704270    0.431632   -2.583893
     38          1           0       -3.573081    0.600596    1.297395
     39          1           0       -3.309135   -0.763517    2.405798
     40          1           0       -5.341738   -0.089376   -0.710030
     41          1           0       -5.941338   -2.506506   -1.872227
     42          1           0       -4.232449   -4.284260   -0.644815
     43          1           0       -1.471002   -0.590459   -0.903845
     44          1           0       -1.814696    4.988471   -0.137888
     45          1           0       -2.610639    3.920280   -2.410979
     46          1           0       -2.901771    1.681413   -3.551273
     47          1           0       -1.478040    0.665805   -3.273022
     48          1           0       -3.022614    0.249984   -2.521025
 ---------------------------------------------------------------------

 The electronic state is 1-A.
 Alpha  occ. eigenvalues --  -88.90427 -24.71118 -19.21401 -19.21148 -19.18655
 Alpha  occ. eigenvalues --  -19.13047 -19.10967 -14.36765 -10.28633 -10.27959
 Alpha  occ. eigenvalues --  -10.27412 -10.26954 -10.26514 -10.25001 -10.24290
 Alpha  occ. eigenvalues --  -10.24113 -10.23707 -10.23128 -10.22461 -10.21716
 Alpha  occ. eigenvalues --  -10.21418 -10.21400 -10.21369 -10.21025 -10.19969
 Alpha  occ. eigenvalues --  -10.19849 -10.19063 -10.18980 -10.18910 -10.18628
 Alpha  occ. eigenvalues --   -7.96516  -5.92924  -5.92555  -5.92223  -1.22242
 Alpha  occ. eigenvalues --   -1.10820  -1.09245  -1.07598  -1.03915  -1.01429
 Alpha  occ. eigenvalues --   -0.95162  -0.87775  -0.87755  -0.82272  -0.80011
 Alpha  occ. eigenvalues --   -0.79146  -0.76942  -0.76732  -0.76286  -0.74470
 Alpha  occ. eigenvalues --   -0.71726  -0.70530  -0.69161  -0.66458  -0.66070
 Alpha  occ. eigenvalues --   -0.63817  -0.61604  -0.60194  -0.58414  -0.57165
 Alpha  occ. eigenvalues --   -0.56572  -0.55220  -0.54181  -0.53637  -0.53199
 Alpha  occ. eigenvalues --   -0.52233  -0.51488  -0.49920  -0.49393  -0.48905
 Alpha  occ. eigenvalues --   -0.47796  -0.47472  -0.46478  -0.46350  -0.45309
 Alpha  occ. eigenvalues --   -0.45112  -0.44661  -0.43877  -0.43463  -0.42879
 Alpha  occ. eigenvalues --   -0.42480  -0.42249  -0.41815  -0.41306  -0.40810
 Alpha  occ. eigenvalues --   -0.40648  -0.39940  -0.39533  -0.39476  -0.38719
 Alpha  occ. eigenvalues --   -0.38510  -0.38157  -0.37360  -0.36836  -0.36599
 Alpha  occ. eigenvalues --   -0.36290  -0.35888  -0.35164  -0.34047  -0.33608
 Alpha  occ. eigenvalues --   -0.31890  -0.28372  -0.28008  -0.27741  -0.25307
 Alpha  occ. eigenvalues --   -0.24452  -0.24089  -0.23116  -0.22867  -0.22148
 Alpha  occ. eigenvalues --   -0.21818
 Alpha virt. eigenvalues --   -0.07358  -0.02642  -0.01565  -0.00299   0.00889
 Alpha virt. eigenvalues --    0.02831   0.03917   0.06242   0.06673   0.07001
 Alpha virt. eigenvalues --    0.07803   0.09366   0.10001   0.10483   0.11079

 Mulliken charges:
               1
     1  C   -0.223054
     2  O   -0.509616
     3  C    0.410839
     4  C   -0.194275
     5  C   -0.192861
     6  C    0.383225
     7  F   -0.298574
     8  C   -0.268412
     9  C    0.010541
    10  C    0.280483
    11  O   -0.600132
    12  C    0.022524
    13  C    0.330412
    14  O   -0.489218
    15  C    0.572954
    16  O   -0.506339
    17  N   -0.464095
    18  C   -0.235998
    19  C    0.341653
    20  C   -0.208653
    21  C   -0.183687
    22  C    0.084967
    23  O   -0.428584
    24  C   -0.062985
    25  C   -0.165469
    26  S    0.242002
    27  C   -0.345255
    28  C   -0.131386
    29  C    0.170825
    30  C   -0.543054
    31  H    0.180231
    32  H    0.145424
    33  H    0.179846
    34  H    0.151317
    35  H    0.156699
    36  H    0.160422
    37  H    0.417392
    38  H    0.176026
    39  H    0.206336
    40  H    0.144441
    41  H    0.142478
    42  H    0.158075
    43  H    0.179111
    44  H    0.170935
    45  H    0.133783
    46  H    0.151623
    47  H    0.174612
    48  H    0.172474
 Sum of Mulliken charges =  -0.00000

 Dipole moment (field-independent basis, Debye):
    X=              0.7996    Y=              3.5470    Z=             -5.0781  Tot=              6.2456
 Quadrupole moment (field-independent basis, Debye-Ang):
   XX=           -152.0292   YY=           -170.3301   ZZ=           -182.1905
   XY=              7.2305   XZ=             12.5361   YZ=             10.8048

 Normal termination of Gaussian 16 at Fri Nov  4 18:46:53 2022.
