 Gaussian 16, Revision B.01,
 Gaussian 16:  ES64L-G16RevB.01 20-Dec-2017

 -------------------------------------------------------------------
 #p b3lyp/6-31g(d) 6D 10F nosymm GFInput td=(50-50,nstate=2) SCF=XQC
 -------------------------------------------------------------------

 ------------------------------
 Gaussian input prepared by ASE
 ------------------------------
 Symbolic Z-matrix:
 Charge =  0 Multiplicity = 1

                          Input orientation:
 ---------------------------------------------------------------------
 Center     Atomic      Atomic             Coordinates (Angstroms)
 Number     Number       Type             X           Y           Z
 ---------------------------------------------------------------------
      1          6           0       -3.763386   -0.846439   -2.743571
      2          8           0       -3.116875   -0.176888   -1.665973
      3          6           0       -3.727783   -0.152218   -0.459671
      4          6           0       -5.099483   -0.371777   -0.274851
      5          6           0       -5.679380   -0.245457    0.986952
      6          6           0       -4.882662    0.108458    2.066940
      7          9           0       -5.438375    0.235261    3.291321
      8          6           0       -3.521312    0.323696    1.917602
      9          6           0       -2.921337    0.169667    0.657031
     10          6           0       -1.463704    0.396046    0.551543
     11          8           0       -1.004386    1.533209    1.147419
     12          6           0       -0.544106   -0.440466    0.009430
     13          6           0       -0.778660   -1.801924   -0.472287
     14          8           0       -1.813789   -2.435975   -0.581890
     15          6           0        0.606806   -2.380105   -0.816325
     16          8           0        0.846758   -3.499667   -1.231012
     17          7           0        1.515926   -1.383259   -0.564744
     18          6           0        2.948815   -1.591005   -0.719212
     19          6           0        3.716498   -1.447674    0.555048
     20          6           0        4.740717   -0.631300    0.940887
     21          6           0        5.080854   -1.005956    2.283729
     22          6           0        4.233191   -2.016951    2.615580
     23          8           0        3.396748   -2.300613    1.576673
     24          6           0        0.946579   -0.124178   -0.059601
     25          6           0        1.311948    1.063428   -0.920146
     26         16           0        0.965384    1.061539   -2.636685
     27          6           0        1.630264    2.650471   -2.818485
     28          6           0        2.084113    3.142905   -1.628787
     29          6           0        1.909350    2.240271   -0.528384
     30          6           0        2.319107    2.576081    0.884968
     31          1           0       -3.032091   -0.874122   -3.552319
     32          1           0       -4.653140   -0.299430   -3.081673
     33          1           0       -4.033065   -1.868798   -2.458610
     34          1           0       -5.726561   -0.633268   -1.118633
     35          1           0       -6.740703   -0.415747    1.135027
     36          1           0       -2.921126    0.553538    2.792646
     37          1           0       -1.762531    2.106833    1.348653
     38          1           0        3.355923   -0.880533   -1.447853
     39          1           0        3.048702   -2.601893   -1.129162
     40          1           0        5.203488    0.137147    0.336746
     41          1           0        5.850102   -0.576929    2.910601
     42          1           0        4.094547   -2.615040    3.503377
     43          1           0        1.343793    0.072792    0.944909
     44          1           0        1.653951    3.120965   -3.792361
     45          1           0        2.540344    4.122259   -1.522291
     46          1           0        2.877776    3.517074    0.910289
     47          1           0        1.444590    2.686463    1.536356
     48          1           0        2.958185    1.799512    1.320799
 ---------------------------------------------------------------------

 SCF Done:  E(RB3LYP) =  -1778.01312601     A.U. after   16 cycles

 Excitation energies and oscillator strengths:

 Excited state symmetry could not be determined.
 Excited State   1:      Triplet-?Sym    2.3977 eV  517.10 nm  f=0.0000  <S**2>=2.000
     104 ->112        -0.10552
     108 ->112        -0.28514
     110 ->112        -0.25978
     111 ->112         0.53480
     111 ->113        -0.14110
 This state for optimization and/or second-order correction.
 Total Energy, E(TD-HF/TD-DFT) =  -1777.92501249
 Copying the excited state density for this state as the 1-particle RhoCI density.

 Excited state symmetry could not be determined.
 Excited State   2:      Triplet-?Sym    2.5183 eV  492.34 nm  f=0.0000  <S**2>=2.000
     105 ->112         0.23316
     106 ->112        -0.27463
     107 ->112         0.28131
     108 ->112        -0.19232
     109 ->112        -0.17153
     110 ->112         0.41877
     111 ->112         0.14162

 Excited state symmetry could not be determined.
 Excited State   3:      Singlet-?Sym    2.8008 eV  442.67 nm  f=0.0000  <S**2>=0.000
     108 ->112        -0.27870
     110 ->112        -0.23187
     111 ->112         0.58003
     111 ->113        -0.10656

 Excited state symmetry could not be determined.
 Excited State   4:      Singlet-?Sym    3.4215 eV  362.36 nm  f=0.1008  <S**2>=0.000
     110 ->112         0.65388
     111 ->112         0.22128

 Alpha  occ. eigenvalues --  -88.90427 -24.71118 -19.21401 -19.21148 -19.18655
 Alpha  occ. eigenvalues --  -19.13047 -19.10967 -14.36766 -10.28633 -10.27959
 Alpha  occ. eigenvalues --  -10.27412 -10.26954 -10.26514 -10.25001 -10.24290
 Alpha  occ. eigenvalues --  -10.24113 -10.23707 -10.23128 -10.22461 -10.21716
 Alpha  occ. eigenvalues --  -10.21418 -10.21400 -10.21369 -10.21025 -10.19969
 Alpha  occ. eigenvalues --  -10.19849 -10.19063 -10.18980 -10.18910 -10.18628
 Alpha  occ. eigenvalues --   -7.96516  -5.92924  -5.92555  -5.92222  -1.22243
 Alpha  occ. eigenvalues --   -1.10820  -1.09245  -1.07598  -1.03915  -1.01429
 Alpha  occ. eigenvalues --   -0.95162  -0.87775  -0.87755  -0.82272  -0.80011
 Alpha  occ. eigenvalues --   -0.79146  -0.76942  -0.76732  -0.76286  -0.74470
 Alpha  occ. eigenvalues --   -0.71726  -0.70530  -0.69161  -0.66458  -0.66071
 Alpha  occ. eigenvalues --   -0.63817  -0.61604  -0.60194  -0.58414  -0.57166
 Alpha  occ. eigenvalues --   -0.56572  -0.55220  -0.54181  -0.53637  -0.53199
 Alpha  occ. eigenvalues --   -0.52233  -0.51489  -0.49920  -0.49393  -0.48905
 Alpha  occ. eigenvalues --   -0.47796  -0.47473  -0.46478  -0.46350  -0.45309
 Alpha  occ. eigenvalues --   -0.45112  -0.44661  -0.43877  -0.43463  -0.42879
 Alpha  occ. eigenvalues --   -0.42480  -0.42249  -0.41815  -0.41306  -0.40810
 Alpha  occ. eigenvalues --   -0.40649  -0.39940  -0.39533  -0.39476  -0.38719
 Alpha  occ. eigenvalues --   -0.38510  -0.38157  -0.37360  -0.36836  -0.36599
 Alpha  occ. eigenvalues --   -0.36290  -0.35888  -0.35164  -0.34047  -0.33608
 Alpha  occ. eigenvalues --   -0.31890  -0.28372  -0.28008  -0.27741  -0.25307
 Alpha  occ. eigenvalues --   -0.24452  -0.24089  -0.23116  -0.22867  -0.22148
 Alpha  occ. eigenvalues --   -0.21818
 Alpha virt. eigenvalues --   -0.07358  -0.02642  -0.01565  -0.00299   0.00889
 Alpha virt. eigenvalues --    0.02831   0.03917   0.06242   0.06673   0.07001
 Alpha virt. eigenvalues --    0.07803   0.09366   0.10001   0.10483   0.11079

 Mulliken charges:
               1
     1  C   -0.223051
     2  O   -0.509616
     3  C    0.410828
     4  C   -0.194285
     5  C   -0.192856
     6  C    0.383223
     7  F   -0.298576
     8  C   -0.268417
     9  C    0.010560
    10  C    0.280456
    11  O   -0.600127
    12  C    0.022555
    13  C    0.330418
    14  O   -0.489213
    15  C    0.572939
    16  O   -0.506338
    17  N   -0.464077
    18  C   -0.236011
    19  C    0.341669
    20  C   -0.208648
    21  C   -0.183694
    22  C    0.084974
    23  O   -0.428593
    24  C   -0.063018
    25  C   -0.165441
    26  S    0.241995
    27  C   -0.345258
    28  C   -0.131382
    29  C    0.170812
    30  C   -0.543052
    31  H    0.180229
    32  H    0.145422
    33  H    0.179846
    34  H    0.151319
    35  H    0.156700
    36  H    0.160422
    37  H    0.417392
    38  H    0.176029
    39  H    0.206338
    40  H    0.144437
    41  H    0.142478
    42  H    0.158076
    43  H    0.179110
    44  H    0.170936
    45  H    0.133783
    46  H    0.151624
    47  H    0.174611
    48  H    0.172471
 Sum of Mulliken charges =  -0.00000

 Dipole moment (field-independent basis, Debye):
    X=             -0.5985    Y=              6.1837    Z=              0.6416  Tot=              6.2457
 Quadrupole moment (field-independent basis, Debye-Ang):
   XX=           -150.8773   YY=           -190.3400   ZZ=           -165.4669
   XY=              2.6852   XZ=             13.0939   YZ=             -5.2070

 Normal termination of Gaussian 16 at Sat Nov  5 11:25:55 2022.
