 Gaussian 16, Revision B.01,
 Gaussian 16:  ES64L-G16RevB.01 20-Dec-2017

 -----------------------------
 #p b3lyp/6-31g(d) opt SCF=XQC
 -----------------------------

 ------------------------------
 Gaussian input prepared by ASE
 ------------------------------
 Symbolic Z-matrix:
 Charge =  0 Multiplicity = 1

 SCF Done:  E(RB3LYP) =  -1089.23140378     A.U. after   14 cycles
 SCF Done:  E(RB3LYP) =  -1089.23766560     A.U. after   14 cycles
 SCF Done:  E(RB3LYP) =  -1089.23919052     A.U. after   12 cycles
 SCF Done:  E(RB3LYP) =  -1089.23956120     A.U. after   12 cycles
 SCF Done:  E(RB3LYP) =  -1089.24007614     A.U. after   11 cycles
 SCF Done:  E(RB3LYP) =  -1089.24016402     A.U. after   11 cycles
 SCF Done:  E(RB3LYP) =  -1089.24020771     A.U. after   11 cycles
 SCF Done:  E(RB3LYP) =  -1089.24022756     A.U. after   11 cycles
 SCF Done:  E(RB3LYP) =  -1089.24025046     A.U. after   10 cycles
 SCF Done:  E(RB3LYP) =  -1089.24028964     A.U. after   11 cycles
 SCF Done:  E(RB3LYP) =  -1089.24088716     A.U. after   11 cycles
 SCF Done:  E(RB3LYP) =  -1089.24089607     A.U. after   10 cycles
 SCF Done:  E(RB3LYP) =  -1089.24089638     A.U. after    9 cycles
 SCF Done:  E(RB3LYP) =  -1089.24089541     A.U. after    9 cycles
 SCF Done:  E(RB3LYP) =  -1089.24089719     A.U. after   10 cycles
 SCF Done:  E(RB3LYP) =  -1089.24089734     A.U. after    7 cycles
 SCF Done:  E(RB3LYP) =  -1089.24089737     A.U. after    8 cycles
 SCF Done:  E(RB3LYP) =  -1089.24089740     A.U. after    7 cycles
 SCF Done:  E(RB3LYP) =  -1089.24089743     A.U. after    7 cycles
 SCF Done:  E(RB3LYP) =  -1089.24089745     A.U. after    6 cycles
 Optimization completed.
    -- Stationary point found.

                         Standard orientation:
 ---------------------------------------------------------------------
 Center     Atomic      Atomic             Coordinates (Angstroms)
 Number     Number       Type             X           Y           Z
 ---------------------------------------------------------------------
      1          6           0       -5.765620   -2.136129   -0.728086
      2          6           0       -5.465391   -0.650894   -1.010665
      3          6           0       -6.646990    0.251435   -0.602072
      4          6           0       -6.477652    1.719103   -1.016877
      5          8           0       -5.401617    2.359446   -0.356501
      6          7           0       -4.186190   -0.155326   -0.443441
      7          6           0       -4.014345   -0.316459    1.022421
      8          6           0       -2.940446   -1.345708    1.397533
      9          6           0       -1.549571   -0.966473    0.823739
     10          6           0       -0.705750   -0.189551    1.864640
     11          6           0        0.675832    0.184885    1.386656
     12          6           0        1.763173   -0.690518    1.490150
     13          7           0        2.992464   -0.396767    1.061028
     14          6           0        3.149506    0.797940    0.485293
     15          7           0        4.402361    1.200051    0.033054
     16          6           0        5.501352    0.420812   -0.341661
     17          6           0        6.765644    1.039754   -0.409229
     18          6           0        7.850334    0.279683   -0.822858
     19          6           0        7.658126   -1.068125   -1.139366
     20          6           0        6.366310   -1.578337   -1.032653
     21          7           0        5.301644   -0.860902   -0.657059
     22          6           0        2.065761    1.695339    0.378078
     23          7           0        0.853605    1.398418    0.828746
     24          6           0       -1.721754   -0.172880   -0.495988
     25          6           0       -3.007876   -0.568340   -1.222518
     26          1           0       -5.965693   -2.313300    0.335068
     27          1           0       -4.933897   -2.781957   -1.029958
     28          1           0       -6.652918   -2.457116   -1.285741
     29          1           0       -5.344798   -0.541338   -2.098344
     30          1           0       -7.558593   -0.149410   -1.066960
     31          1           0       -6.804031    0.204550    0.483910
     32          1           0       -7.385873    2.280811   -0.767427
     33          1           0       -6.362711    1.769927   -2.116291
     34          1           0       -4.657260    1.724752   -0.447876
     35          1           0       -3.759928    0.659157    1.459493
     36          1           0       -4.972045   -0.600172    1.467755
     37          1           0       -3.242085   -2.329492    1.018271
     38          1           0       -2.892672   -1.438119    2.490334
     39          1           0       -1.013265   -1.898338    0.596556
     40          1           0       -0.621103   -0.805424    2.769793
     41          1           0       -1.232395    0.730870    2.144113
     42          1           0        1.642063   -1.666664    1.959129
     43          1           0        4.519846    2.196685   -0.080596
     44          1           0        6.885065    2.084285   -0.133054
     45          1           0        8.837096    0.730606   -0.886415
     46          1           0        8.480253   -1.700485   -1.458417
     47          1           0        6.165071   -2.621333   -1.273190
     48          1           0        2.197402    2.675968   -0.080928
     49          1           0       -1.750726    0.903793   -0.287064
     50          1           0       -0.861825   -0.333788   -1.154726
     51          1           0       -3.059928   -0.075075   -2.201160
     52          1           0       -2.993163   -1.656488   -1.419789
 ---------------------------------------------------------------------

 The electronic state is 1-A.
 Alpha  occ. eigenvalues --  -19.10295 -14.37413 -14.34164 -14.33611 -14.32763
 Alpha  occ. eigenvalues --  -14.32353 -10.26913 -10.26769 -10.22762 -10.22460
 Alpha  occ. eigenvalues --  -10.22313 -10.22221 -10.21674 -10.21011 -10.20974
 Alpha  occ. eigenvalues --  -10.20765 -10.20717 -10.20053 -10.19330 -10.19216
 Alpha  occ. eigenvalues --  -10.18721 -10.18359 -10.17824 -10.17683 -10.17471
 Alpha  occ. eigenvalues --   -0.99607  -0.98205  -0.96231  -0.92078  -0.91952
 Alpha  occ. eigenvalues --   -0.89329  -0.81939  -0.80386  -0.78744  -0.76903
 Alpha  occ. eigenvalues --   -0.75094  -0.74516  -0.70976  -0.70027  -0.66536
 Alpha  occ. eigenvalues --   -0.65478  -0.63789  -0.63492  -0.62788  -0.60763
 Alpha  occ. eigenvalues --   -0.59629  -0.56496  -0.55349  -0.54175  -0.52744
 Alpha  occ. eigenvalues --   -0.51181  -0.50789  -0.48947  -0.48851  -0.48121
 Alpha  occ. eigenvalues --   -0.47241  -0.46666  -0.44880  -0.44796  -0.44319
 Alpha  occ. eigenvalues --   -0.43553  -0.43385  -0.42842  -0.41895  -0.40955
 Alpha  occ. eigenvalues --   -0.40307  -0.40225  -0.39899  -0.39309  -0.38660
 Alpha  occ. eigenvalues --   -0.38392  -0.37859  -0.37742  -0.37080  -0.36832
 Alpha  occ. eigenvalues --   -0.35786  -0.34815  -0.33893  -0.32972  -0.32193
 Alpha  occ. eigenvalues --   -0.31440  -0.31327  -0.30769  -0.30042  -0.29750
 Alpha  occ. eigenvalues --   -0.28392  -0.26242  -0.26003  -0.23633  -0.23515
 Alpha  occ. eigenvalues --   -0.20789  -0.20730
 Alpha virt. eigenvalues --   -0.03956  -0.02252  -0.01588   0.01693   0.06850
 Alpha virt. eigenvalues --    0.07156   0.09478   0.09850   0.10006   0.10881
 Alpha virt. eigenvalues --    0.11439   0.12574   0.13458   0.13730   0.14173

 Mulliken charges:
               1
     1  C   -0.457792
     2  C    0.048219
     3  C   -0.286050
     4  C   -0.015877
     5  O   -0.648700
     6  N   -0.445452
     7  C   -0.136383
     8  C   -0.289258
     9  C   -0.070365
    10  C   -0.349004
    11  C    0.284593
    12  C    0.001180
    13  N   -0.428430
    14  C    0.532540
    15  N   -0.751531
    16  C    0.533941
    17  C   -0.194401
    18  C   -0.099181
    19  C   -0.152206
    20  C    0.040356
    21  N   -0.456164
    22  C   -0.021633
    23  N   -0.431738
    24  C   -0.294321
    25  C   -0.121318
    26  H    0.145422
    27  H    0.147519
    28  H    0.145908
    29  H    0.128300
    30  H    0.127004
    31  H    0.139790
    32  H    0.131327
    33  H    0.101898
    34  H    0.414954
    35  H    0.150929
    36  H    0.145768
    37  H    0.141704
    38  H    0.136108
    39  H    0.125240
    40  H    0.140678
    41  H    0.160501
    42  H    0.141193
    43  H    0.332506
    44  H    0.129375
    45  H    0.141952
    46  H    0.134918
    47  H    0.140878
    48  H    0.136766
    49  H    0.164422
    50  H    0.145393
    51  H    0.141954
    52  H    0.116566
 Sum of Mulliken charges =  -0.00000

 Dipole moment (field-independent basis, Debye):
    X=              2.7752    Y=             -1.5290    Z=             -0.6670  Tot=              3.2380
 Quadrupole moment (field-independent basis, Debye-Ang):
   XX=           -127.3369   YY=           -149.8823   ZZ=           -147.7693
   XY=             26.9561   XZ=             -3.5985   YZ=             -0.8033

 Normal termination of Gaussian 16 at Fri Nov  4 18:55:14 2022.
