 Gaussian 16, Revision B.01,
 Gaussian 16:  ES64L-G16RevB.01 20-Dec-2017

 -------------------------------------------------------------------
 #p b3lyp/6-31g(d) 6D 10F nosymm GFInput td=(50-50,nstate=2) SCF=XQC
 -------------------------------------------------------------------

 ------------------------------
 Gaussian input prepared by ASE
 ------------------------------
 Symbolic Z-matrix:
 Charge =  0 Multiplicity = 1

                          Input orientation:
 ---------------------------------------------------------------------
 Center     Atomic      Atomic             Coordinates (Angstroms)
 Number     Number       Type             X           Y           Z
 ---------------------------------------------------------------------
      1          6           0        5.118585   -0.114610    2.001092
      2          6           0        4.754913    0.827102    0.836261
      3          6           0        5.916309    0.955017   -0.169781
      4          6           0        5.679431    2.010670   -1.258024
      5          8           0        4.604278    1.684878   -2.119356
      6          7           0        3.478898    0.504361    0.149740
      7          6           0        3.363810   -0.867345   -0.406520
      8          6           0        2.341690   -1.738531    0.334849
      9          6           0        0.918930   -1.120511    0.297452
     10          6           0        0.083883   -1.704119   -0.869259
     11          6           0       -1.326108   -1.172042   -0.948367
     12          6           0       -2.376643   -1.732114   -0.212126
     13          7           0       -3.629909   -1.274117   -0.246070
     14          6           0       -3.850136   -0.206738   -1.017861
     15          7           0       -5.131680    0.322080   -1.135569
     16          6           0       -6.213881    0.227050   -0.255104
     17          6           0       -7.501440    0.521033   -0.746891
     18          6           0       -8.571401    0.469980    0.135112
     19          6           0       -8.341325    0.114481    1.467174
     20          6           0       -7.028880   -0.160717    1.844331
     21          7           0       -5.978682   -0.097559    1.018261
     22          6           0       -2.804123    0.366914   -1.771587
     23          7           0       -1.567110   -0.112325   -1.744889
     24          6           0        1.016391    0.424431    0.228379
     25          6           0        2.290167    0.935058    0.902989
     26          1           0        5.361607   -1.122716    1.645596
     27          1           0        4.300978   -0.197220    2.725439
     28          1           0        5.997167    0.264239    2.535765
     29          1           0        4.592883    1.828298    1.261634
     30          1           0        6.825279    1.215531    0.390329
     31          1           0        6.112401   -0.013075   -0.649951
     32          1           0        6.574689    2.102847   -1.884622
     33          1           0        5.524778    2.994440   -0.775546
     34          1           0        3.880799    1.426981   -1.506723
     35          1           0        3.089317   -0.798066   -1.468330
     36          1           0        4.346023   -1.347757   -0.384938
     37          1           0        2.665641   -1.860191    1.375480
     38          1           0        2.335117   -2.744091   -0.105426
     39          1           0        0.409360   -1.390927    1.232771
     40          1           0        0.053048   -2.796262   -0.759536
     41          1           0        0.586028   -1.485518   -1.819364
     42          1           0       -2.203947   -2.603313    0.419267
     43          1           0       -5.289217    0.891323   -1.954802
     44          1           0       -7.649177    0.770840   -1.794435
     45          1           0       -9.575527    0.693603   -0.215310
     46          1           0       -9.150433    0.053829    2.187753
     47          1           0       -6.798253   -0.437166    2.872233
     48          1           0       -2.987154    1.230993   -2.411521
     49          1           0        1.013366    0.755677   -0.817556
     50          1           0        0.140629    0.884881    0.697775
     51          1           0        2.290370    2.031703    0.936574
     52          1           0        2.308255    0.588794    1.953214
 ---------------------------------------------------------------------

 SCF Done:  E(RB3LYP) =  -1089.24089236     A.U. after   14 cycles

 Excitation energies and oscillator strengths:

 Excited state symmetry could not be determined.
 Excited State   1:      Triplet-?Sym    3.1272 eV  396.47 nm  f=0.0000  <S**2>=2.000
      87 -> 93         0.12524
      89 -> 93        -0.13729
      91 -> 93         0.65643
 This state for optimization and/or second-order correction.
 Total Energy, E(TD-HF/TD-DFT) =  -1089.12596943
 Copying the excited state density for this state as the 1-particle RhoCI density.

 Excited state symmetry could not be determined.
 Excited State   2:      Triplet-?Sym    3.3852 eV  366.26 nm  f=0.0000  <S**2>=2.000
      87 -> 93         0.12715
      87 -> 94         0.11932
      87 -> 96         0.15569
      91 -> 94         0.51370
      91 -> 95         0.35034

 Excited state symmetry could not be determined.
 Excited State   3:      Singlet-?Sym    3.9189 eV  316.38 nm  f=0.0863  <S**2>=0.000
      89 -> 93        -0.33607
      91 -> 93         0.60526

 Excited state symmetry could not be determined.
 Excited State   4:      Singlet-?Sym    4.1222 eV  300.78 nm  f=0.0002  <S**2>=0.000
      92 -> 93         0.70135

 Alpha  occ. eigenvalues --  -19.10295 -14.37413 -14.34164 -14.33611 -14.32762
 Alpha  occ. eigenvalues --  -14.32353 -10.26913 -10.26769 -10.22762 -10.22460
 Alpha  occ. eigenvalues --  -10.22314 -10.22221 -10.21674 -10.21011 -10.20974
 Alpha  occ. eigenvalues --  -10.20765 -10.20717 -10.20053 -10.19330 -10.19216
 Alpha  occ. eigenvalues --  -10.18721 -10.18359 -10.17824 -10.17683 -10.17471
 Alpha  occ. eigenvalues --   -0.99607  -0.98205  -0.96231  -0.92078  -0.91952
 Alpha  occ. eigenvalues --   -0.89329  -0.81939  -0.80386  -0.78744  -0.76903
 Alpha  occ. eigenvalues --   -0.75094  -0.74516  -0.70976  -0.70027  -0.66537
 Alpha  occ. eigenvalues --   -0.65478  -0.63789  -0.63492  -0.62788  -0.60763
 Alpha  occ. eigenvalues --   -0.59629  -0.56496  -0.55349  -0.54175  -0.52744
 Alpha  occ. eigenvalues --   -0.51181  -0.50789  -0.48948  -0.48851  -0.48121
 Alpha  occ. eigenvalues --   -0.47241  -0.46666  -0.44880  -0.44796  -0.44319
 Alpha  occ. eigenvalues --   -0.43553  -0.43385  -0.42842  -0.41895  -0.40955
 Alpha  occ. eigenvalues --   -0.40307  -0.40225  -0.39899  -0.39309  -0.38660
 Alpha  occ. eigenvalues --   -0.38392  -0.37859  -0.37742  -0.37080  -0.36832
 Alpha  occ. eigenvalues --   -0.35786  -0.34815  -0.33893  -0.32972  -0.32193
 Alpha  occ. eigenvalues --   -0.31440  -0.31327  -0.30769  -0.30042  -0.29750
 Alpha  occ. eigenvalues --   -0.28391  -0.26243  -0.26003  -0.23633  -0.23515
 Alpha  occ. eigenvalues --   -0.20790  -0.20730
 Alpha virt. eigenvalues --   -0.03956  -0.02252  -0.01588   0.01693   0.06850
 Alpha virt. eigenvalues --    0.07156   0.09478   0.09850   0.10006   0.10881
 Alpha virt. eigenvalues --    0.11439   0.12574   0.13458   0.13730   0.14173

 Mulliken charges:
               1
     1  C   -0.457795
     2  C    0.048204
     3  C   -0.286050
     4  C   -0.015871
     5  O   -0.648702
     6  N   -0.445432
     7  C   -0.136350
     8  C   -0.289272
     9  C   -0.070351
    10  C   -0.349019
    11  C    0.284588
    12  C    0.001182
    13  N   -0.428439
    14  C    0.532533
    15  N   -0.751517
    16  C    0.533936
    17  C   -0.194408
    18  C   -0.099183
    19  C   -0.152202
    20  C    0.040354
    21  N   -0.456157
    22  C   -0.021619
    23  N   -0.431737
    24  C   -0.294332
    25  C   -0.121329
    26  H    0.145423
    27  H    0.147521
    28  H    0.145910
    29  H    0.128300
    30  H    0.127004
    31  H    0.139790
    32  H    0.131327
    33  H    0.101897
    34  H    0.414950
    35  H    0.150923
    36  H    0.145762
    37  H    0.141704
    38  H    0.136106
    39  H    0.125239
    40  H    0.140680
    41  H    0.160505
    42  H    0.141194
    43  H    0.332506
    44  H    0.129375
    45  H    0.141953
    46  H    0.134918
    47  H    0.140877
    48  H    0.136766
    49  H    0.164425
    50  H    0.145394
    51  H    0.141954
    52  H    0.116567
 Sum of Mulliken charges =  -0.00000

 Dipole moment (field-independent basis, Debye):
    X=             -2.7391    Y=             -0.2760    Z=              1.7046  Tot=              3.2380
 Quadrupole moment (field-independent basis, Debye-Ang):
   XX=           -121.3892   YY=           -149.0536   ZZ=           -151.2041
   XY=            -14.7432   XZ=             20.7257   YZ=              1.7480

 Normal termination of Gaussian 16 at Sat Nov  5 11:16:50 2022.
