 Gaussian 16, Revision B.01,
 Gaussian 16:  ES64L-G16RevB.01 20-Dec-2017

 -------------------------------------------------------------------
 #p b3lyp/6-31g(d) 6D 10F nosymm GFInput td=(50-50,nstate=2) SCF=XQC
 -------------------------------------------------------------------

 ------------------------------
 Gaussian input prepared by ASE
 ------------------------------
 Symbolic Z-matrix:
 Charge =  0 Multiplicity = 1

                          Input orientation:
 ---------------------------------------------------------------------
 Center     Atomic      Atomic             Coordinates (Angstroms)
 Number     Number       Type             X           Y           Z
 ---------------------------------------------------------------------
      1          6           0        6.335396   -0.570455    1.033241
      2          6           0        4.878213   -0.412211    0.677118
      3          6           0        4.146217    0.713886    1.172317
      4          6           0        2.827905    0.895576    0.868762
      5          7           0        2.181737   -0.023751    0.077270
      6          6           0        0.876011   -0.095767   -0.381561
      7          6           0       -0.172612    0.919784   -0.051314
      8          7           0       -1.504609    0.350237   -0.239233
      9          6           0       -2.579744    1.285049    0.079237
     10          6           0       -3.980772    0.746243   -0.240569
     11          8           0       -4.942455    1.722583    0.145537
     12          6           0       -4.146894    0.135875   -1.666119
     13          6           0       -4.152460   -1.283250   -1.035071
     14          6           0       -4.330222   -0.636981    0.366288
     15          6           0        0.839564   -1.246598   -1.148307
     16          7           0        2.039673   -1.893866   -1.183783
     17          6           0        2.854574   -1.149974   -0.442112
     18          6           0        4.221026   -1.321550   -0.120361
     19          1           0        6.926781    0.286444    0.685642
     20          1           0        6.475938   -0.636306    2.119857
     21          1           0        6.758494   -1.474060    0.584731
     22          1           0        4.641131    1.448925    1.799476
     23          1           0        2.242965    1.738223    1.216978
     24          1           0       -0.013307    1.304295    0.978033
     25          1           0       -0.091514    1.798110   -0.710907
     26          1           0       -1.583624   -0.476999    0.349913
     27          1           0       -2.575875    1.610947    1.136666
     28          1           0       -2.417392    2.188095   -0.529682
     29          1           0       -4.775707    2.524986   -0.376131
     30          1           0       -5.117746    0.414076   -2.087963
     31          1           0       -3.352202    0.350008   -2.386432
     32          1           0       -3.190230   -1.788597   -1.151316
     33          1           0       -4.946394   -1.962027   -1.359142
     34          1           0       -5.370506   -0.636240    0.703068
     35          1           0       -3.701369   -1.003876    1.186414
     36          1           0       -0.023610   -1.627942   -1.677468
     37          1           0        4.723620   -2.192891   -0.527401
 ---------------------------------------------------------------------

 SCF Done:  E(RB3LYP) =  -784.363467853     A.U. after   14 cycles

 Excitation energies and oscillator strengths:

 Excited state symmetry could not be determined.
 Excited State   1:      Triplet-?Sym    2.8883 eV  429.26 nm  f=0.0000  <S**2>=2.000
      60 -> 67         0.10548
      64 -> 67        -0.19076
      66 -> 67         0.65167
      66 -> 68         0.10047
 This state for optimization and/or second-order correction.
 Total Energy, E(TD-HF/TD-DFT) =  -784.257323645
 Copying the excited state density for this state as the 1-particle RhoCI density.

 Excited state symmetry could not be determined.
 Excited State   2:      Triplet-?Sym    3.7658 eV  329.24 nm  f=0.0000  <S**2>=2.000
      66 -> 67        -0.11349
      66 -> 68         0.67814

 Excited state symmetry could not be determined.
 Excited State   3:      Singlet-?Sym    4.1263 eV  300.48 nm  f=0.0512  <S**2>=0.000
      64 -> 68         0.12741
      66 -> 67         0.66863
      66 -> 68        -0.15360

 Excited state symmetry could not be determined.
 Excited State   4:      Singlet-?Sym    4.8383 eV  256.25 nm  f=0.0505  <S**2>=0.000
      64 -> 67        -0.43450
      65 -> 67        -0.10255
      66 -> 67         0.16152
      66 -> 68         0.51748

 Alpha  occ. eigenvalues --  -19.14327 -14.40803 -14.33067 -14.30125 -10.24106
 Alpha  occ. eigenvalues --  -10.24104 -10.23681 -10.23087 -10.21356 -10.21212
 Alpha  occ. eigenvalues --  -10.20807 -10.20007 -10.19805 -10.19459 -10.19067
 Alpha  occ. eigenvalues --  -10.17773 -10.17754 -10.17218  -1.02407  -1.01824
 Alpha  occ. eigenvalues --   -0.91691  -0.89728  -0.83816  -0.82752  -0.76848
 Alpha  occ. eigenvalues --   -0.75337  -0.72394  -0.68708  -0.66367  -0.66017
 Alpha  occ. eigenvalues --   -0.63822  -0.61676  -0.59074  -0.58752  -0.54181
 Alpha  occ. eigenvalues --   -0.52546  -0.50461  -0.49597  -0.49213  -0.47404
 Alpha  occ. eigenvalues --   -0.47003  -0.46352  -0.45378  -0.44485  -0.43065
 Alpha  occ. eigenvalues --   -0.42420  -0.42125  -0.41288  -0.40241  -0.39747
 Alpha  occ. eigenvalues --   -0.39175  -0.38575  -0.37169  -0.36528  -0.35843
 Alpha  occ. eigenvalues --   -0.33500  -0.33250  -0.32998  -0.31937  -0.30419
 Alpha  occ. eigenvalues --   -0.29372  -0.26178  -0.25862  -0.23743  -0.23325
 Alpha  occ. eigenvalues --   -0.19882
 Alpha virt. eigenvalues --   -0.02509   0.00508   0.06508   0.07170   0.07625
 Alpha virt. eigenvalues --    0.08824   0.09602   0.10319   0.11717   0.12821
 Alpha virt. eigenvalues --    0.13242   0.13653   0.14378   0.14706   0.15398

 Mulliken charges:
               1
     1  C   -0.529488
     2  C    0.185349
     3  C   -0.225475
     4  C    0.065431
     5  N   -0.541490
     6  C    0.278624
     7  C   -0.175172
     8  N   -0.572419
     9  C   -0.149824
    10  C    0.325172
    11  O   -0.645849
    12  C   -0.292026
    13  C   -0.282655
    14  C   -0.307338
    15  C   -0.064100
    16  N   -0.518927
    17  C    0.521546
    18  C   -0.241545
    19  H    0.163597
    20  H    0.163422
    21  H    0.163134
    22  H    0.136497
    23  H    0.163195
    24  H    0.120146
    25  H    0.159005
    26  H    0.307990
    27  H    0.127426
    28  H    0.122882
    29  H    0.383063
    30  H    0.137853
    31  H    0.147618
    32  H    0.149664
    33  H    0.138940
    34  H    0.159962
    35  H    0.129439
    36  H    0.147832
    37  H    0.148518
 Sum of Mulliken charges =  -0.00000

 Dipole moment (field-independent basis, Debye):
    X=              1.3897    Y=              3.1250    Z=              1.7275  Tot=              3.8316
 Quadrupole moment (field-independent basis, Debye-Ang):
   XX=           -102.3133   YY=           -105.8422   ZZ=           -109.5052
   XY=              4.6102   XZ=             11.0216   YZ=             -3.9804

 Normal termination of Gaussian 16 at Sat Nov  5 11:10:42 2022.
