 Gaussian 16, Revision B.01,
 Gaussian 16:  ES64L-G16RevB.01 20-Dec-2017

 -----------------------------
 #p b3lyp/6-31g(d) opt SCF=XQC
 -----------------------------

 ------------------------------
 Gaussian input prepared by ASE
 ------------------------------
 Symbolic Z-matrix:
 Charge =  0 Multiplicity = 1

 SCF Done:  E(RB3LYP) =  -784.357854808     A.U. after   14 cycles
 SCF Done:  E(RB3LYP) =  -784.362285522     A.U. after   11 cycles
 SCF Done:  E(RB3LYP) =  -784.362872165     A.U. after   11 cycles
 SCF Done:  E(RB3LYP) =  -784.363251397     A.U. after   11 cycles
 SCF Done:  E(RB3LYP) =  -784.363419892     A.U. after   11 cycles
 SCF Done:  E(RB3LYP) =  -784.363460922     A.U. after   10 cycles
 SCF Done:  E(RB3LYP) =  -784.363467806     A.U. after    9 cycles
 SCF Done:  E(RB3LYP) =  -784.363470188     A.U. after    9 cycles
 SCF Done:  E(RB3LYP) =  -784.363470726     A.U. after    8 cycles
 SCF Done:  E(RB3LYP) =  -784.363470883     A.U. after    7 cycles
 SCF Done:  E(RB3LYP) =  -784.363470918     A.U. after    7 cycles
 SCF Done:  E(RB3LYP) =  -784.363470914     A.U. after    6 cycles
 Optimization completed.
    -- Stationary point found.

                         Standard orientation:
 ---------------------------------------------------------------------
 Center     Atomic      Atomic             Coordinates (Angstroms)
 Number     Number       Type             X           Y           Z
 ---------------------------------------------------------------------
      1          6           0       -6.290229   -0.335611    0.369916
      2          6           0       -4.795639   -0.242714    0.188760
      3          6           0       -4.012314   -1.439833    0.139312
      4          6           0       -2.658324   -1.398381   -0.028307
      5          7           0       -2.026717   -0.183199   -0.144745
      6          6           0       -0.693911    0.155175   -0.317270
      7          6           0        0.409068   -0.852504   -0.406925
      8          7           0        1.691420   -0.227361   -0.092789
      9          6           0        2.813984   -1.159046   -0.147775
     10          6           0        4.181268   -0.490019    0.048186
     11          8           0        5.188602   -1.495630    0.013886
     12          6           0        4.433213    0.773417   -0.830786
     13          6           0        4.235251    1.662409    0.427259
     14          6           0        4.329704    0.391232    1.315097
     15          6           0       -0.690978    1.537111   -0.379608
     16          7           0       -1.938397    2.072778   -0.247386
     17          6           0       -2.749000    1.028318   -0.107593
     18          6           0       -4.151532    0.967346    0.063687
     19          1           0       -6.756215   -0.907619   -0.442798
     20          1           0       -6.547839   -0.844521    1.307717
     21          1           0       -6.750903    0.656405    0.388876
     22          1           0       -4.495223   -2.407829    0.230599
     23          1           0       -2.033048   -2.281505   -0.079143
     24          1           0        0.182708   -1.717879    0.250851
     25          1           0        0.482470   -1.266202   -1.425042
     26          1           0        1.628204    0.178916    0.839198
     27          1           0        2.732874   -1.984008    0.585191
     28          1           0        2.804139   -1.622544   -1.146628
     29          1           0        5.155592   -1.918167   -0.860280
     30          1           0        5.464872    0.782729   -1.196154
     31          1           0        3.741739    0.937757   -1.662107
     32          1           0        3.245473    2.125568    0.451705
     33          1           0        4.988379    2.434906    0.606530
     34          1           0        5.324794    0.248487    1.745251
     35          1           0        3.586855    0.262654    2.111538
     36          1           0        0.180845    2.163034   -0.516169
     37          1           0       -4.692027    1.907913    0.090499
 ---------------------------------------------------------------------

 The electronic state is 1-A.
 Alpha  occ. eigenvalues --  -19.14327 -14.40803 -14.33067 -14.30125 -10.24106
 Alpha  occ. eigenvalues --  -10.24104 -10.23681 -10.23087 -10.21357 -10.21212
 Alpha  occ. eigenvalues --  -10.20807 -10.20007 -10.19805 -10.19459 -10.19067
 Alpha  occ. eigenvalues --  -10.17773 -10.17754 -10.17218  -1.02408  -1.01824
 Alpha  occ. eigenvalues --   -0.91691  -0.89728  -0.83816  -0.82752  -0.76848
 Alpha  occ. eigenvalues --   -0.75337  -0.72394  -0.68708  -0.66367  -0.66017
 Alpha  occ. eigenvalues --   -0.63822  -0.61676  -0.59074  -0.58752  -0.54181
 Alpha  occ. eigenvalues --   -0.52546  -0.50461  -0.49597  -0.49213  -0.47404
 Alpha  occ. eigenvalues --   -0.47003  -0.46352  -0.45378  -0.44485  -0.43065
 Alpha  occ. eigenvalues --   -0.42420  -0.42125  -0.41288  -0.40241  -0.39747
 Alpha  occ. eigenvalues --   -0.39175  -0.38575  -0.37169  -0.36528  -0.35843
 Alpha  occ. eigenvalues --   -0.33500  -0.33250  -0.32998  -0.31937  -0.30419
 Alpha  occ. eigenvalues --   -0.29372  -0.26178  -0.25862  -0.23743  -0.23325
 Alpha  occ. eigenvalues --   -0.19882
 Alpha virt. eigenvalues --   -0.02509   0.00508   0.06508   0.07170   0.07625
 Alpha virt. eigenvalues --    0.08824   0.09602   0.10319   0.11717   0.12821
 Alpha virt. eigenvalues --    0.13242   0.13653   0.14378   0.14706   0.15398

 Mulliken charges:
               1
     1  C   -0.529490
     2  C    0.185345
     3  C   -0.225472
     4  C    0.065433
     5  N   -0.541492
     6  C    0.278619
     7  C   -0.175166
     8  N   -0.572420
     9  C   -0.149821
    10  C    0.325166
    11  O   -0.645848
    12  C   -0.292023
    13  C   -0.282660
    14  C   -0.307333
    15  C   -0.064094
    16  N   -0.518929
    17  C    0.521558
    18  C   -0.241553
    19  H    0.163597
    20  H    0.163423
    21  H    0.163135
    22  H    0.136496
    23  H    0.163195
    24  H    0.120145
    25  H    0.159004
    26  H    0.307991
    27  H    0.127425
    28  H    0.122882
    29  H    0.383063
    30  H    0.137854
    31  H    0.147619
    32  H    0.149664
    33  H    0.138941
    34  H    0.159961
    35  H    0.129439
    36  H    0.147826
    37  H    0.148519
 Sum of Mulliken charges =  -0.00000

 Dipole moment (field-independent basis, Debye):
    X=             -1.2491    Y=             -3.6089    Z=             -0.3110  Tot=              3.8316
 Quadrupole moment (field-independent basis, Debye-Ang):
   XX=           -101.3406   YY=           -109.0441   ZZ=           -106.9831
   XY=              8.9241   XZ=             -6.7402   YZ=              4.3383

 Normal termination of Gaussian 16 at Fri Nov  4 18:19:03 2022.
