 Gaussian 16, Revision B.01,
 Gaussian 16:  ES64L-G16RevB.01 20-Dec-2017

 -------------------------------------------------------------------
 #p b3lyp/6-31g(d) 6D 10F nosymm GFInput td=(50-50,nstate=2) SCF=XQC
 -------------------------------------------------------------------

 ------------------------------
 Gaussian input prepared by ASE
 ------------------------------
 Symbolic Z-matrix:
 Charge =  0 Multiplicity = 1

                          Input orientation:
 ---------------------------------------------------------------------
 Center     Atomic      Atomic             Coordinates (Angstroms)
 Number     Number       Type             X           Y           Z
 ---------------------------------------------------------------------
      1          6           0       -0.306466   -5.991748   -1.813623
      2          6           0       -0.567627   -4.891835   -0.787927
      3          7           0       -0.433843   -3.567723   -1.416079
      4          6           0       -0.702158   -2.396634   -0.686736
      5          7           0        0.101694   -1.397167   -0.545735
      6          6           0        1.475720   -1.494556   -1.002015
      7          6           0        2.340142   -0.349728   -0.398323
      8          7           0        1.688551    0.875859   -0.917544
      9          6           0        1.821517    2.238952   -0.359357
     10          6           0        1.105169    2.502044    0.983812
     11          6           0        3.250563    2.776311   -0.427529
     12          6           0        3.994685    3.133520    0.701566
     13          6           0        5.291903    3.642298    0.576633
     14          6           0        5.862434    3.809801   -0.683251
     15          6           0        5.125894    3.465873   -1.821321
     16          6           0        3.836656    2.956829   -1.690938
     17          6           0        3.786960   -0.469460   -0.938900
     18          6           0        4.552492   -1.664800   -0.356482
     19          8           0        4.563842   -1.654034    1.065467
     20          6           0        3.246760   -1.688397    1.598836
     21          6           0        2.412876   -0.483656    1.146102
     22          7           0       -1.959463   -2.346282   -0.111254
     23          6           0       -3.150226   -2.949415   -0.742244
     24          6           0       -4.274215   -1.939963   -0.470769
     25          6           0       -3.842663   -1.284197    0.853169
     26          6           0       -4.542175    0.030750    1.182707
     27          8           0       -4.344362    0.949632    0.118924
     28          6           0       -4.950919    2.220038    0.307344
     29          6           0       -4.035958    3.180235    1.081301
     30          8           0       -4.605182    4.473962    1.196822
     31          6           0       -5.488925    4.625636    2.290346
     32          6           0       -2.321187   -1.159702    0.675814
     33          1           0       -0.407978   -6.979445   -1.351345
     34          1           0        0.709389   -5.921570   -2.222732
     35          1           0       -1.012555   -5.921604   -2.647577
     36          1           0       -1.579396   -4.991927   -0.389713
     37          1           0        0.120478   -5.002292    0.065803
     38          1           0        0.452046   -3.487805   -1.902806
     39          1           0        1.535594   -1.381039   -2.097793
     40          1           0        1.929304   -2.466324   -0.755463
     41          1           0        0.690832    0.669048   -0.948218
     42          1           0        1.262207    2.844377   -1.089098
     43          1           0        1.066670    3.578979    1.189738
     44          1           0        1.572821    2.011156    1.840084
     45          1           0        0.074334    2.135360    0.919578
     46          1           0        3.567730    3.020029    1.693323
     47          1           0        5.852296    3.908649    1.469296
     48          1           0        6.869050    4.207971   -0.781193
     49          1           0        5.557979    3.598012   -2.810279
     50          1           0        3.268415    2.676228   -2.574132
     51          1           0        4.337670    0.437679   -0.680066
     52          1           0        3.769299   -0.531283   -2.034943
     53          1           0        5.602381   -1.630142   -0.665472
     54          1           0        4.136918   -2.622374   -0.716711
     55          1           0        2.754016   -2.637892    1.325060
     56          1           0        3.364446   -1.685082    2.687788
     57          1           0        1.402013   -0.547741    1.564605
     58          1           0        2.896972    0.409488    1.553086
     59          1           0       -3.390324   -3.917585   -0.277957
     60          1           0       -2.974780   -3.129211   -1.807064
     61          1           0       -5.259261   -2.415845   -0.415184
     62          1           0       -4.305813   -1.177070   -1.255088
     63          1           0       -4.054031   -1.976478    1.681156
     64          1           0       -4.148413    0.431709    2.130729
     65          1           0       -5.621524   -0.146411    1.327697
     66          1           0       -5.133463    2.634151   -0.689475
     67          1           0       -5.925132    2.112579    0.808807
     68          1           0       -3.788895    2.772379    2.074457
     69          1           0       -3.098837    3.295821    0.526948
     70          1           0       -6.375950    3.978272    2.216026
     71          1           0       -5.819487    5.667691    2.287556
     72          1           0       -4.985757    4.414985    3.247655
     73          1           0       -1.775774   -1.146616    1.626111
     74          1           0       -2.067972   -0.241266    0.134532
 ---------------------------------------------------------------------

 SCF Done:  E(RB3LYP) =  -1422.56062723     A.U. after   14 cycles

 Excitation energies and oscillator strengths:

 Excited state symmetry could not be determined.
 Excited State   1:      Triplet-?Sym    3.7009 eV  335.01 nm  f=0.0000  <S**2>=2.000
     117 ->124         0.29824
     118 ->123         0.27190
     118 ->124        -0.25739
     119 ->123        -0.35462
     119 ->124        -0.13121
     120 ->123        -0.27934
     122 ->123         0.20059
 This state for optimization and/or second-order correction.
 Total Energy, E(TD-HF/TD-DFT) =  -1422.42462214
 Copying the excited state density for this state as the 1-particle RhoCI density.

 Excited state symmetry could not be determined.
 Excited State   2:      Triplet-?Sym    4.4024 eV  281.63 nm  f=0.0000  <S**2>=2.000
     121 ->125        -0.63971
     122 ->125        -0.19938

 Excited state symmetry could not be determined.
 Excited State   3:      Singlet-?Sym    4.7094 eV  263.27 nm  f=0.0013  <S**2>=0.000
     122 ->123         0.68284
     122 ->124         0.14154

 Excited state symmetry could not be determined.
 Excited State   4:      Singlet-?Sym    4.8776 eV  254.19 nm  f=0.0149  <S**2>=0.000
     122 ->123        -0.14436
     122 ->124         0.67978

 Alpha  occ. eigenvalues --  -19.15478 -19.15094 -19.12751 -14.34268 -14.34183
 Alpha  occ. eigenvalues --  -14.29081 -14.28485 -10.26948 -10.23946 -10.23339
 Alpha  occ. eigenvalues --  -10.23128 -10.23098 -10.22365 -10.21712 -10.21351
 Alpha  occ. eigenvalues --  -10.21282 -10.20558 -10.20436 -10.20394 -10.19705
 Alpha  occ. eigenvalues --  -10.19463 -10.18753 -10.18627 -10.18033 -10.17750
 Alpha  occ. eigenvalues --  -10.17704 -10.17652 -10.17492 -10.17199 -10.16209
 Alpha  occ. eigenvalues --  -10.15942 -10.15738  -1.03967  -1.02956  -1.01254
 Alpha  occ. eigenvalues --   -0.97786  -0.91011  -0.89043  -0.86072  -0.83648
 Alpha  occ. eigenvalues --   -0.80292  -0.77981  -0.75601  -0.74925  -0.74325
 Alpha  occ. eigenvalues --   -0.74011  -0.73599  -0.72953  -0.70316  -0.69737
 Alpha  occ. eigenvalues --   -0.67887  -0.66243  -0.62884  -0.62595  -0.62068
 Alpha  occ. eigenvalues --   -0.61174  -0.60622  -0.59723  -0.58739  -0.57363
 Alpha  occ. eigenvalues --   -0.55669  -0.55309  -0.52142  -0.51310  -0.50822
 Alpha  occ. eigenvalues --   -0.50262  -0.49396  -0.49309  -0.48816  -0.47463
 Alpha  occ. eigenvalues --   -0.47395  -0.46726  -0.46169  -0.46000  -0.45481
 Alpha  occ. eigenvalues --   -0.45022  -0.44253  -0.44053  -0.43702  -0.43635
 Alpha  occ. eigenvalues --   -0.43387  -0.42922  -0.42088  -0.41235  -0.40844
 Alpha  occ. eigenvalues --   -0.40386  -0.39956  -0.39899  -0.39746  -0.39049
 Alpha  occ. eigenvalues --   -0.38659  -0.38278  -0.37962  -0.37783  -0.37604
 Alpha  occ. eigenvalues --   -0.37233  -0.36521  -0.36329  -0.36234  -0.35400
 Alpha  occ. eigenvalues --   -0.34831  -0.34402  -0.33585  -0.33464  -0.33259
 Alpha  occ. eigenvalues --   -0.32430  -0.31946  -0.31799  -0.31334  -0.31067
 Alpha  occ. eigenvalues --   -0.30823  -0.30358  -0.28133  -0.27990  -0.25066
 Alpha  occ. eigenvalues --   -0.24337  -0.23700  -0.23629  -0.22995  -0.22290
 Alpha  occ. eigenvalues --   -0.20358  -0.19296
 Alpha virt. eigenvalues --    0.00932   0.01335   0.04148   0.07162   0.07340
 Alpha virt. eigenvalues --    0.08166   0.08829   0.09182   0.10228   0.10877
 Alpha virt. eigenvalues --    0.11173   0.11791   0.11899   0.12460   0.12648

 Mulliken charges:
               1
     1  C   -0.456735
     2  C   -0.124962
     3  N   -0.627517
     4  C    0.653604
     5  N   -0.519516
     6  C   -0.178423
     7  C    0.223959
     8  N   -0.612314
     9  C   -0.031613
    10  C   -0.462116
    11  C    0.152463
    12  C   -0.181820
    13  C   -0.131829
    14  C   -0.130421
    15  C   -0.130212
    16  C   -0.167206
    17  C   -0.283971
    18  C   -0.037370
    19  O   -0.467633
    20  C   -0.038446
    21  C   -0.291942
    22  N   -0.476427
    23  C   -0.122742
    24  C   -0.300188
    25  C   -0.142326
    26  C   -0.022795
    27  O   -0.474311
    28  C   -0.037808
    29  C   -0.044210
    30  O   -0.457015
    31  C   -0.199900
    32  C   -0.093145
    33  H    0.152838
    34  H    0.146287
    35  H    0.160821
    36  H    0.161060
    37  H    0.140997
    38  H    0.324448
    39  H    0.136111
    40  H    0.115617
    41  H    0.316968
    42  H    0.136473
    43  H    0.140181
    44  H    0.147945
    45  H    0.142015
    46  H    0.123915
    47  H    0.124933
    48  H    0.123955
    49  H    0.124245
    50  H    0.134561
    51  H    0.167300
    52  H    0.123934
    53  H    0.140236
    54  H    0.108055
    55  H    0.112927
    56  H    0.136709
    57  H    0.142636
    58  H    0.142029
    59  H    0.134948
    60  H    0.163908
    61  H    0.136788
    62  H    0.171824
    63  H    0.132635
    64  H    0.123816
    65  H    0.122552
    66  H    0.157230
    67  H    0.121995
    68  H    0.121495
    69  H    0.158930
    70  H    0.130616
    71  H    0.162606
    72  H    0.132791
    73  H    0.143726
    74  H    0.171832
 Sum of Mulliken charges =  -0.00000

 Dipole moment (field-independent basis, Debye):
    X=             -4.5719    Y=             -2.8187    Z=              1.0641  Tot=              5.4753
 Quadrupole moment (field-independent basis, Debye-Ang):
   XX=           -187.4065   YY=           -187.7382   ZZ=           -188.0260
   XY=              4.3935   XZ=            -14.3719   YZ=              9.1980

 Normal termination of Gaussian 16 at Sat Nov  5 11:20:37 2022.
