 Gaussian 16, Revision B.01,
 Gaussian 16:  ES64L-G16RevB.01 20-Dec-2017

 -----------------------------
 #p b3lyp/6-31g(d) opt SCF=XQC
 -----------------------------

 ------------------------------
 Gaussian input prepared by ASE
 ------------------------------
 Symbolic Z-matrix:
 Charge =  0 Multiplicity = 1

 SCF Done:  E(RB3LYP) =  -1422.54803029     A.U. after   14 cycles
 SCF Done:  E(RB3LYP) =  -1422.55427654     A.U. after   14 cycles
 SCF Done:  E(RB3LYP) =  -1422.55678752     A.U. after   12 cycles
 SCF Done:  E(RB3LYP) =  -1422.55780303     A.U. after   12 cycles
 SCF Done:  E(RB3LYP) =  -1422.55874064     A.U. after   12 cycles
 SCF Done:  E(RB3LYP) =  -1422.55921977     A.U. after   11 cycles
 SCF Done:  E(RB3LYP) =  -1422.55966275     A.U. after   12 cycles
 SCF Done:  E(RB3LYP) =  -1422.56013269     A.U. after   13 cycles
 SCF Done:  E(RB3LYP) =  -1422.56035463     A.U. after   11 cycles
 SCF Done:  E(RB3LYP) =  -1422.56042638     A.U. after   10 cycles
 SCF Done:  E(RB3LYP) =  -1422.56060425     A.U. after    9 cycles
 SCF Done:  E(RB3LYP) =  -1422.56061365     A.U. after    9 cycles
 SCF Done:  E(RB3LYP) =  -1422.56061534     A.U. after    8 cycles
 SCF Done:  E(RB3LYP) =  -1422.56061836     A.U. after    9 cycles
 SCF Done:  E(RB3LYP) =  -1422.56061919     A.U. after    9 cycles
 SCF Done:  E(RB3LYP) =  -1422.56061952     A.U. after    8 cycles
 SCF Done:  E(RB3LYP) =  -1422.56061971     A.U. after    7 cycles
 SCF Done:  E(RB3LYP) =  -1422.56061972     A.U. after    6 cycles
 SCF Done:  E(RB3LYP) =  -1422.56061969     A.U. after    6 cycles
 SCF Done:  E(RB3LYP) =  -1422.56061968     A.U. after    5 cycles
 Optimization completed.
    -- Stationary point found.

                         Standard orientation:
 ---------------------------------------------------------------------
 Center     Atomic      Atomic             Coordinates (Angstroms)
 Number     Number       Type             X           Y           Z
 ---------------------------------------------------------------------
      1          6           0       -0.929192   -6.266401   -0.748201
      2          6           0       -1.170362   -4.976139    0.030983
      3          7           0       -0.831412   -3.809164   -0.799093
      4          6           0       -1.042332   -2.503741   -0.322889
      5          7           0       -0.152735   -1.570848   -0.265285
      6          6           0        1.241219   -1.872963   -0.532201
      7          6           0        2.160322   -0.717142   -0.040644
      8          7           0        1.700914    0.443388   -0.839604
      9          6           0        1.924837    1.869243   -0.517000
     10          6           0        1.110815    2.440097    0.665356
     11          6           0        3.403445    2.255555   -0.509214
     12          6           0        4.065502    2.749067    0.619633
     13          6           0        5.416284    3.108555    0.561398
     14          6           0        6.124571    2.987485   -0.632144
     15          6           0        5.472353    2.504626   -1.771196
     16          6           0        4.128889    2.145184   -1.706645
     17          6           0        3.632259   -1.063261   -0.377461
     18          6           0        4.201337   -2.192551    0.491411
     19          8           0        4.071753   -1.918538    1.880768
     20          6           0        2.712103   -1.736061    2.252820
     21          6           0        2.063494   -0.567384    1.501002
     22          7           0       -2.337857   -2.235841    0.082542
     23          6           0       -3.518127   -2.837709   -0.569033
     24          6           0       -4.547202   -1.699677   -0.612977
     25          6           0       -4.181298   -0.850034    0.617186
     26          6           0       -4.763137    0.560063    0.626557
     27          8           0       -4.361404    1.243796   -0.550825
     28          6           0       -4.842057    2.575810   -0.660630
     29          6           0       -3.910036    3.578147    0.035645
     30          8           0       -4.343951    4.916108   -0.145098
     31          6           0       -5.310719    5.346359    0.793009
     32          6           0       -2.645244   -0.896234    0.601443
     33          1           0       -1.183099   -7.137900   -0.135363
     34          1           0        0.124015   -6.363983   -1.040588
     35          1           0       -1.536654   -6.290213   -1.658906
     36          1           0       -2.221692   -4.910217    0.318439
     37          1           0       -0.587043   -4.986500    0.965956
     38          1           0        0.102061   -3.900118   -1.184379
     39          1           0        1.422187   -1.971014   -1.616099
     40          1           0        1.559600   -2.818267   -0.067558
     41          1           0        0.694707    0.323861   -0.951027
     42          1           0        1.510318    2.375577   -1.402262
     43          1           0        1.169223    3.535632    0.673526
     44          1           0        1.434495    2.077510    1.643432
     45          1           0        0.057829    2.160825    0.545219
     46          1           0        3.531861    2.860375    1.558564
     47          1           0        5.910357    3.485489    1.453385
     48          1           0        7.173218    3.269551   -0.678898
     49          1           0        6.012814    2.411631   -2.710052
     50          1           0        3.624560    1.756763   -2.587808
     51          1           0        4.249686   -0.176328   -0.218363
     52          1           0        3.717511   -1.326056   -1.440060
     53          1           0        5.274348   -2.309290    0.307122
     54          1           0        3.722208   -3.159689    0.257970
     55          1           0        2.148895   -2.672364    2.093369
     56          1           0        2.720129   -1.540715    3.330527
     57          1           0        1.014949   -0.462535    1.802092
     58          1           0        2.598723    0.339322    1.799507
     59          1           0       -3.907182   -3.677429    0.026008
     60          1           0       -3.257823   -3.227276   -1.557682
     61          1           0       -5.578732   -2.067579   -0.591474
     62          1           0       -4.417225   -1.096241   -1.516931
     63          1           0       -4.548266   -1.354687    1.522808
     64          1           0       -4.424769    1.093802    1.529437
     65          1           0       -5.864399    0.509468    0.672022
     66          1           0       -4.878062    2.811824   -1.729021
     67          1           0       -5.867352    2.650394   -0.266533
     68          1           0       -3.809173    3.341849    1.106968
     69          1           0       -2.915263    3.504970   -0.415948
     70          1           0       -6.250969    4.777793    0.729121
     71          1           0       -5.524126    6.394863    0.568835
     72          1           0       -4.931543    5.273634    1.824964
     73          1           0       -2.199268   -0.755078    1.592347
     74          1           0       -2.240935   -0.120667   -0.058602
 ---------------------------------------------------------------------

 The electronic state is 1-A.
 Alpha  occ. eigenvalues --  -19.15478 -19.15094 -19.12751 -14.34268 -14.34183
 Alpha  occ. eigenvalues --  -14.29080 -14.28485 -10.26948 -10.23946 -10.23339
 Alpha  occ. eigenvalues --  -10.23128 -10.23098 -10.22365 -10.21712 -10.21351
 Alpha  occ. eigenvalues --  -10.21282 -10.20558 -10.20436 -10.20394 -10.19705
 Alpha  occ. eigenvalues --  -10.19463 -10.18753 -10.18627 -10.18033 -10.17750
 Alpha  occ. eigenvalues --  -10.17704 -10.17652 -10.17492 -10.17199 -10.16209
 Alpha  occ. eigenvalues --  -10.15942 -10.15738  -1.03967  -1.02956  -1.01254
 Alpha  occ. eigenvalues --   -0.97786  -0.91011  -0.89043  -0.86072  -0.83648
 Alpha  occ. eigenvalues --   -0.80292  -0.77981  -0.75601  -0.74925  -0.74325
 Alpha  occ. eigenvalues --   -0.74011  -0.73599  -0.72953  -0.70315  -0.69737
 Alpha  occ. eigenvalues --   -0.67887  -0.66243  -0.62884  -0.62595  -0.62068
 Alpha  occ. eigenvalues --   -0.61174  -0.60622  -0.59723  -0.58739  -0.57363
 Alpha  occ. eigenvalues --   -0.55669  -0.55309  -0.52142  -0.51310  -0.50822
 Alpha  occ. eigenvalues --   -0.50262  -0.49396  -0.49309  -0.48816  -0.47463
 Alpha  occ. eigenvalues --   -0.47395  -0.46726  -0.46169  -0.46000  -0.45481
 Alpha  occ. eigenvalues --   -0.45022  -0.44253  -0.44053  -0.43702  -0.43635
 Alpha  occ. eigenvalues --   -0.43387  -0.42922  -0.42088  -0.41235  -0.40844
 Alpha  occ. eigenvalues --   -0.40386  -0.39956  -0.39899  -0.39746  -0.39049
 Alpha  occ. eigenvalues --   -0.38659  -0.38278  -0.37962  -0.37783  -0.37604
 Alpha  occ. eigenvalues --   -0.37233  -0.36521  -0.36329  -0.36234  -0.35400
 Alpha  occ. eigenvalues --   -0.34831  -0.34402  -0.33585  -0.33464  -0.33259
 Alpha  occ. eigenvalues --   -0.32430  -0.31946  -0.31799  -0.31334  -0.31067
 Alpha  occ. eigenvalues --   -0.30823  -0.30358  -0.28133  -0.27990  -0.25066
 Alpha  occ. eigenvalues --   -0.24337  -0.23700  -0.23630  -0.22995  -0.22290
 Alpha  occ. eigenvalues --   -0.20358  -0.19296
 Alpha virt. eigenvalues --    0.00933   0.01335   0.04148   0.07162   0.07341
 Alpha virt. eigenvalues --    0.08166   0.08829   0.09182   0.10228   0.10877
 Alpha virt. eigenvalues --    0.11173   0.11791   0.11899   0.12460   0.12648

 Mulliken charges:
               1
     1  C   -0.456738
     2  C   -0.124963
     3  N   -0.627516
     4  C    0.653597
     5  N   -0.519508
     6  C   -0.178421
     7  C    0.223961
     8  N   -0.612304
     9  C   -0.031606
    10  C   -0.462112
    11  C    0.152449
    12  C   -0.181839
    13  C   -0.131811
    14  C   -0.130433
    15  C   -0.130209
    16  C   -0.167195
    17  C   -0.283986
    18  C   -0.037376
    19  O   -0.467634
    20  C   -0.038448
    21  C   -0.291935
    22  N   -0.476420
    23  C   -0.122756
    24  C   -0.300182
    25  C   -0.142326
    26  C   -0.022788
    27  O   -0.474318
    28  C   -0.037793
    29  C   -0.044223
    30  O   -0.457012
    31  C   -0.199898
    32  C   -0.093143
    33  H    0.152838
    34  H    0.146287
    35  H    0.160824
    36  H    0.161060
    37  H    0.140999
    38  H    0.324449
    39  H    0.136111
    40  H    0.115614
    41  H    0.316961
    42  H    0.136472
    43  H    0.140178
    44  H    0.147940
    45  H    0.142023
    46  H    0.123915
    47  H    0.124933
    48  H    0.123955
    49  H    0.124245
    50  H    0.134563
    51  H    0.167303
    52  H    0.123936
    53  H    0.140237
    54  H    0.108060
    55  H    0.112929
    56  H    0.136709
    57  H    0.142637
    58  H    0.142028
    59  H    0.134951
    60  H    0.163907
    61  H    0.136789
    62  H    0.171825
    63  H    0.132635
    64  H    0.123816
    65  H    0.122550
    66  H    0.157230
    67  H    0.121991
    68  H    0.121497
    69  H    0.158931
    70  H    0.130614
    71  H    0.162606
    72  H    0.132792
    73  H    0.143723
    74  H    0.171826
 Sum of Mulliken charges =  -0.00000

 Dipole moment (field-independent basis, Debye):
    X=             -4.9344    Y=             -2.1544    Z=              0.9946  Tot=              5.4753
 Quadrupole moment (field-independent basis, Debye-Ang):
   XX=           -182.2937   YY=           -184.2846   ZZ=           -194.6289
   XY=              1.4976   XZ=            -13.4368   YZ=              9.8317

 Normal termination of Gaussian 16 at Fri Nov  4 19:19:29 2022.
