 Gaussian 16, Revision B.01,
 Gaussian 16:  ES64L-G16RevB.01 20-Dec-2017

 -----------------------------
 #p b3lyp/6-31g(d) opt SCF=XQC
 -----------------------------

 ------------------------------
 Gaussian input prepared by ASE
 ------------------------------
 Symbolic Z-matrix:
 Charge =  0 Multiplicity = 1

 SCF Done:  E(RB3LYP) =  -602.282219440     A.U. after   13 cycles
 SCF Done:  E(RB3LYP) =  -602.285939637     A.U. after   10 cycles
 SCF Done:  E(RB3LYP) =  -602.286376963     A.U. after   10 cycles
 SCF Done:  E(RB3LYP) =  -602.286484691     A.U. after   11 cycles
 SCF Done:  E(RB3LYP) =  -602.286598094     A.U. after    9 cycles
 SCF Done:  E(RB3LYP) =  -602.286631685     A.U. after   10 cycles
 SCF Done:  E(RB3LYP) =  -602.286643231     A.U. after   10 cycles
 SCF Done:  E(RB3LYP) =  -602.286648798     A.U. after    7 cycles
 SCF Done:  E(RB3LYP) =  -602.286649323     A.U. after    7 cycles
 SCF Done:  E(RB3LYP) =  -602.286649411     A.U. after    6 cycles
 Optimization completed.
    -- Stationary point found.

                         Standard orientation:
 ---------------------------------------------------------------------
 Center     Atomic      Atomic             Coordinates (Angstroms)
 Number     Number       Type             X           Y           Z
 ---------------------------------------------------------------------
      1          6           0        4.108899    1.004383    0.225811
      2          6           0        2.925653    0.050633    0.406861
      3          8           0        3.162429   -1.181501   -0.283580
      4          6           0        1.618343    0.649067   -0.120547
      5          6           0        0.360629   -0.231479    0.112763
      6          6           0        0.138921   -1.233436   -1.047354
      7          6           0       -0.765942   -2.424800   -0.695025
      8          6           0       -2.129179   -2.105718   -0.053717
      9          6           0       -2.030829   -1.470801    1.344399
     10          6           0       -1.790723    0.056409    1.370303
     11          7           0       -0.822513    0.576899    0.417280
     12          6           0       -1.220955    1.661835   -0.482376
     13          6           0       -2.431499    1.366205   -1.396417
     14          6           0       -1.452887    2.973311    0.294091
     15          1           0        4.255587    1.232225   -0.835912
     16          1           0        5.035148    0.555008    0.607709
     17          1           0        3.949850    1.944315    0.766832
     18          1           0        2.796757   -0.153491    1.484436
     19          1           0        3.975540   -1.568424    0.076466
     20          1           0        1.473411    1.604796    0.395613
     21          1           0        1.748523    0.871283   -1.188749
     22          1           0        0.562943   -0.814697    1.022034
     23          1           0        1.109892   -1.622770   -1.370539
     24          1           0       -0.277848   -0.680307   -1.900795
     25          1           0       -0.216204   -3.085475   -0.007137
     26          1           0       -0.933441   -3.016168   -1.605882
     27          1           0       -2.685855   -3.048850    0.032326
     28          1           0       -2.722695   -1.462809   -0.716936
     29          1           0       -2.954570   -1.660223    1.909045
     30          1           0       -1.236655   -1.982407    1.905589
     31          1           0       -1.521675    0.331159    2.407319
     32          1           0       -2.748877    0.551050    1.175588
     33          1           0       -0.365130    1.830809   -1.145190
     34          1           0       -3.347649    1.197471   -0.818098
     35          1           0       -2.258095    0.483081   -2.018248
     36          1           0       -2.621413    2.217481   -2.061843
     37          1           0       -2.300793    2.880498    0.983734
     38          1           0       -1.672536    3.803846   -0.388178
     39          1           0       -0.568636    3.232668    0.885740
 ---------------------------------------------------------------------

 The electronic state is 1-A.
 Alpha  occ. eigenvalues --  -19.14094 -14.29701 -10.23408 -10.20612 -10.20092
 Alpha  occ. eigenvalues --  -10.19521 -10.17687 -10.17187 -10.16951 -10.16807
 Alpha  occ. eigenvalues --  -10.16599 -10.16383 -10.16310 -10.15600  -1.01335
 Alpha  occ. eigenvalues --   -0.90188  -0.78964  -0.78019  -0.75157  -0.74688
 Alpha  occ. eigenvalues --   -0.69165  -0.67347  -0.65629  -0.63177  -0.59106
 Alpha  occ. eigenvalues --   -0.57948  -0.55260  -0.51617  -0.50928  -0.47826
 Alpha  occ. eigenvalues --   -0.46572  -0.44644  -0.43737  -0.42695  -0.42326
 Alpha  occ. eigenvalues --   -0.41685  -0.41467  -0.40218  -0.38695  -0.38372
 Alpha  occ. eigenvalues --   -0.37551  -0.37324  -0.36730  -0.36533  -0.35653
 Alpha  occ. eigenvalues --   -0.34362  -0.33724  -0.32913  -0.32322  -0.31140
 Alpha  occ. eigenvalues --   -0.30819  -0.30505  -0.30243  -0.29049  -0.26427
 Alpha  occ. eigenvalues --   -0.17334
 Alpha virt. eigenvalues --    0.06715   0.08747   0.09931   0.11191   0.11788
 Alpha virt. eigenvalues --    0.12517   0.12545   0.13131   0.14172   0.14761
 Alpha virt. eigenvalues --    0.15360   0.15836   0.16270   0.17067   0.17827

 Mulliken charges:
               1
     1  C   -0.458817
     2  C    0.133302
     3  O   -0.620850
     4  C   -0.280817
     5  C    0.043525
     6  C   -0.261727
     7  C   -0.268109
     8  C   -0.250639
     9  C   -0.278058
    10  C   -0.117904
    11  N   -0.398453
    12  C    0.044188
    13  C   -0.449914
    14  C   -0.435006
    15  H    0.155481
    16  H    0.130647
    17  H    0.144350
    18  H    0.111248
    19  H    0.387722
    20  H    0.142544
    21  H    0.137826
    22  H    0.123742
    23  H    0.161954
    24  H    0.120296
    25  H    0.126068
    26  H    0.124092
    27  H    0.124518
    28  H    0.133724
    29  H    0.126385
    30  H    0.130901
    31  H    0.115588
    32  H    0.132059
    33  H    0.131327
    34  H    0.138989
    35  H    0.151180
    36  H    0.134371
    37  H    0.139561
    38  H    0.131904
    39  H    0.142802
 Sum of Mulliken charges =  -0.00000

 Dipole moment (field-independent basis, Debye):
    X=              1.2350    Y=              0.2565    Z=              0.7843  Tot=              1.4853
 Quadrupole moment (field-independent basis, Debye-Ang):
   XX=            -81.7907   YY=            -90.6838   ZZ=            -90.8377
   XY=             -1.0471   XZ=              3.2647   YZ=             -2.4115

 Normal termination of Gaussian 16 at Fri Nov  4 18:18:55 2022.
