 Gaussian 16, Revision B.01,
 Gaussian 16:  ES64L-G16RevB.01 20-Dec-2017

 -------------------------------------------------------------------
 #p b3lyp/6-31g(d) 6D 10F nosymm GFInput td=(50-50,nstate=2) SCF=XQC
 -------------------------------------------------------------------

 ------------------------------
 Gaussian input prepared by ASE
 ------------------------------
 Symbolic Z-matrix:
 Charge =  0 Multiplicity = 1

                          Input orientation:
 ---------------------------------------------------------------------
 Center     Atomic      Atomic             Coordinates (Angstroms)
 Number     Number       Type             X           Y           Z
 ---------------------------------------------------------------------
      1          6           0        4.185758    1.034635    0.077623
      2          6           0        3.035752    0.046026    0.284086
      3          8           0        3.285057   -1.171461   -0.427602
      4          6           0        1.696457    0.613004   -0.195668
      5          6           0        0.471643   -0.305095    0.066178
      6          6           0        0.241789   -1.300387   -1.098083
      7          6           0       -0.618113   -2.520496   -0.731801
      8          6           0       -1.969011   -2.246868   -0.044990
      9          6           0       -1.844757   -1.624481    1.356693
     10          6           0       -1.646566   -0.091476    1.392889
     11          7           0       -0.723456    0.466299    0.416493
     12          6           0       -1.179848    1.549172   -0.457758
     13          6           0       -2.409649    1.229373   -1.337305
     14          6           0       -1.423836    2.845177    0.340681
     15          1           0        4.292817    1.277909   -0.985411
     16          1           0        5.135633    0.607470    0.425459
     17          1           0        4.017579    1.963848    0.634178
     18          1           0        2.946305   -0.173210    1.362689
     19          1           0        4.119472   -1.539156   -0.097384
     20          1           0        1.541167    1.558671    0.335786
     21          1           0        1.786976    0.850259   -1.264732
     22          1           0        0.718412   -0.892108    0.961927
     23          1           0        1.212655   -1.658707   -1.455632
     24          1           0       -0.216666   -0.750092   -1.931752
     25          1           0       -0.028982   -3.172762   -0.068953
     26          1           0       -0.797451   -3.106534   -1.643846
     27          1           0       -2.496258   -3.206185    0.047269
     28          1           0       -2.600617   -1.613858   -0.682033
     29          1           0       -2.744782   -1.845915    1.947392
     30          1           0       -1.019510   -2.119496    1.887084
     31          1           0       -1.353015    0.179596    2.424210
     32          1           0       -2.623731    0.378025    1.233646
     33          1           0       -0.350177    1.749307   -1.144709
     34          1           0       -3.302238    1.028684   -0.732936
     35          1           0       -2.231233    0.358215   -1.974411
     36          1           0       -2.643876    2.082054   -1.986614
     37          1           0       -2.246878    2.721103    1.055085
     38          1           0       -1.687720    3.676469   -0.324784
     39          1           0       -0.529101    3.122986    0.907679
 ---------------------------------------------------------------------

 SCF Done:  E(RB3LYP) =  -602.286654700     A.U. after   13 cycles

 Excitation energies and oscillator strengths:

 Excited state symmetry could not be determined.
 Excited State   1:      Triplet-?Sym    5.7991 eV  213.80 nm  f=0.0000  <S**2>=2.000
      56 -> 57         0.65343
      56 -> 58        -0.23873
 This state for optimization and/or second-order correction.
 Total Energy, E(TD-HF/TD-DFT) =  -602.073541859
 Copying the excited state density for this state as the 1-particle RhoCI density.

 Excited state symmetry could not be determined.
 Excited State   2:      Singlet-?Sym    5.8590 eV  211.61 nm  f=0.0029  <S**2>=0.000
      56 -> 57         0.67584
      56 -> 58        -0.19003

 Excited state symmetry could not be determined.
 Excited State   3:      Triplet-?Sym    6.1319 eV  202.20 nm  f=0.0000  <S**2>=2.000
      56 -> 57         0.22969
      56 -> 58         0.65954

 Excited state symmetry could not be determined.
 Excited State   4:      Singlet-?Sym    6.1862 eV  200.42 nm  f=0.0011  <S**2>=0.000
      56 -> 57         0.18363
      56 -> 58         0.67460

 Alpha  occ. eigenvalues --  -19.14094 -14.29701 -10.23408 -10.20612 -10.20092
 Alpha  occ. eigenvalues --  -10.19521 -10.17687 -10.17187 -10.16951 -10.16807
 Alpha  occ. eigenvalues --  -10.16599 -10.16383 -10.16310 -10.15600  -1.01335
 Alpha  occ. eigenvalues --   -0.90188  -0.78964  -0.78019  -0.75157  -0.74688
 Alpha  occ. eigenvalues --   -0.69165  -0.67347  -0.65629  -0.63177  -0.59106
 Alpha  occ. eigenvalues --   -0.57948  -0.55260  -0.51617  -0.50928  -0.47826
 Alpha  occ. eigenvalues --   -0.46572  -0.44644  -0.43737  -0.42695  -0.42326
 Alpha  occ. eigenvalues --   -0.41685  -0.41467  -0.40218  -0.38695  -0.38372
 Alpha  occ. eigenvalues --   -0.37551  -0.37324  -0.36730  -0.36533  -0.35653
 Alpha  occ. eigenvalues --   -0.34362  -0.33724  -0.32913  -0.32322  -0.31140
 Alpha  occ. eigenvalues --   -0.30819  -0.30505  -0.30243  -0.29049  -0.26427
 Alpha  occ. eigenvalues --   -0.17334
 Alpha virt. eigenvalues --    0.06715   0.08747   0.09931   0.11191   0.11788
 Alpha virt. eigenvalues --    0.12517   0.12545   0.13131   0.14172   0.14761
 Alpha virt. eigenvalues --    0.15359   0.15836   0.16270   0.17067   0.17827

 Mulliken charges:
               1
     1  C   -0.458820
     2  C    0.133305
     3  O   -0.620848
     4  C   -0.280818
     5  C    0.043515
     6  C   -0.261714
     7  C   -0.268114
     8  C   -0.250631
     9  C   -0.278071
    10  C   -0.117892
    11  N   -0.398456
    12  C    0.044174
    13  C   -0.449914
    14  C   -0.435001
    15  H    0.155482
    16  H    0.130648
    17  H    0.144350
    18  H    0.111248
    19  H    0.387722
    20  H    0.142547
    21  H    0.137827
    22  H    0.123743
    23  H    0.161952
    24  H    0.120294
    25  H    0.126067
    26  H    0.124092
    27  H    0.124518
    28  H    0.133723
    29  H    0.126386
    30  H    0.130903
    31  H    0.115587
    32  H    0.132059
    33  H    0.131329
    34  H    0.138991
    35  H    0.151180
    36  H    0.134372
    37  H    0.139560
    38  H    0.131904
    39  H    0.142801
 Sum of Mulliken charges =  -0.00000

 Dipole moment (field-independent basis, Debye):
    X=              1.2512    Y=              0.2828    Z=              0.7487  Tot=              1.4853
 Quadrupole moment (field-independent basis, Debye-Ang):
   XX=            -81.2865   YY=            -90.7328   ZZ=            -91.1349
   XY=             -0.9773   XZ=              3.0656   YZ=             -2.3610

 Normal termination of Gaussian 16 at Sat Nov  5 11:10:45 2022.
