 Gaussian 16, Revision B.01,
 Gaussian 16:  ES64L-G16RevB.01 20-Dec-2017

 -----------------------------
 #p b3lyp/6-31g(d) opt SCF=XQC
 -----------------------------

 ------------------------------
 Gaussian input prepared by ASE
 ------------------------------
 Symbolic Z-matrix:
 Charge =  0 Multiplicity = 1

 SCF Done:  E(RB3LYP) =  -1289.79190892     A.U. after   15 cycles
 SCF Done:  E(RB3LYP) =  -1289.80520458     A.U. after   15 cycles
 SCF Done:  E(RB3LYP) =  -1289.80767469     A.U. after   12 cycles
 SCF Done:  E(RB3LYP) =  -1289.80890364     A.U. after   14 cycles
 SCF Done:  E(RB3LYP) =  -1289.80963539     A.U. after   15 cycles
 SCF Done:  E(RB3LYP) =  -1289.80996314     A.U. after   12 cycles
 SCF Done:  E(RB3LYP) =  -1289.81011258     A.U. after   11 cycles
 SCF Done:  E(RB3LYP) =  -1289.81014800     A.U. after   10 cycles
 SCF Done:  E(RB3LYP) =  -1289.81017643     A.U. after   10 cycles
 SCF Done:  E(RB3LYP) =  -1289.81021458     A.U. after   11 cycles
 SCF Done:  E(RB3LYP) =  -1289.81052612     A.U. after   11 cycles
 SCF Done:  E(RB3LYP) =  -1289.81056244     A.U. after   11 cycles
 SCF Done:  E(RB3LYP) =  -1289.81058323     A.U. after   11 cycles
 SCF Done:  E(RB3LYP) =  -1289.81058978     A.U. after   10 cycles
 SCF Done:  E(RB3LYP) =  -1289.81059042     A.U. after   10 cycles
 SCF Done:  E(RB3LYP) =  -1289.81059509     A.U. after    9 cycles
 SCF Done:  E(RB3LYP) =  -1289.81059584     A.U. after    9 cycles
 SCF Done:  E(RB3LYP) =  -1289.81059591     A.U. after    7 cycles
 SCF Done:  E(RB3LYP) =  -1289.81059598     A.U. after    7 cycles
 SCF Done:  E(RB3LYP) =  -1289.81059602     A.U. after    7 cycles
 Optimization completed.
    -- Stationary point found.

                         Standard orientation:
 ---------------------------------------------------------------------
 Center     Atomic      Atomic             Coordinates (Angstroms)
 Number     Number       Type             X           Y           Z
 ---------------------------------------------------------------------
      1          6           0        3.527818    2.822568    0.697035
      2          6           0        3.720433    1.862114   -0.481144
      3          6           0        5.197492    1.570480   -0.767046
      4          7           0        2.988819    0.608739   -0.242042
      5          6           0        1.985195    0.077670   -0.984830
      6          6           0        1.652404   -1.132415   -0.389374
      7          7           0        0.694211   -2.081482   -0.812607
      8         16           0       -0.711213   -2.367841    0.094470
      9          8           0       -1.483865   -3.307477   -0.718180
     10          8           0       -0.275751   -2.661612    1.457959
     11          6           0       -1.618817   -0.822387    0.157689
     12          6           0       -1.339435    0.124648    1.144710
     13          6           0       -2.061824    1.313686    1.128773
     14          6           0       -3.031243    1.516802    0.137336
     15          6           0       -3.836163    2.808555    0.052578
     16          7           0       -5.229298    2.667410   -0.361458
     17          7           0       -3.301177    0.592977   -0.801305
     18          6           0       -2.609865   -0.548982   -0.789412
     19          6           0        2.514389   -1.230486    0.727376
     20          7           0        3.312974   -0.168846    0.814772
     21          1           0        4.045591    3.767279    0.499840
     22          1           0        2.466157    3.036722    0.858264
     23          1           0        3.934481    2.384156    1.612724
     24          1           0        3.257395    2.292443   -1.376657
     25          1           0        5.305480    0.903398   -1.628494
     26          1           0        5.730176    2.503031   -0.982086
     27          1           0        5.662993    1.092371    0.099536
     28          1           0        1.601887    0.570289   -1.867575
     29          1           0        0.489564   -2.115740   -1.806821
     30          1           0       -0.598030   -0.082435    1.909208
     31          1           0       -1.886382    2.074999    1.883760
     32          1           0       -3.337214    3.471914   -0.668706
     33          1           0       -3.800759    3.326597    1.017843
     34          1           0       -5.728396    2.112848    0.333997
     35          1           0       -5.246933    2.105245   -1.212207
     36          1           0       -2.860575   -1.287296   -1.547245
     37          1           0        2.559907   -2.022743    1.461208
 ---------------------------------------------------------------------

 The electronic state is 1-A.
 Alpha  occ. eigenvalues --  -89.11966 -19.14942 -19.14923 -14.42079 -14.38321
 Alpha  occ. eigenvalues --  -14.35521 -14.35154 -14.31704 -10.25236 -10.25062
 Alpha  occ. eigenvalues --  -10.24909 -10.23828 -10.23547 -10.23456 -10.23203
 Alpha  occ. eigenvalues --  -10.22379 -10.21973 -10.21079 -10.19282 -10.19181
 Alpha  occ. eigenvalues --   -8.14453  -6.10948  -6.10863  -6.10779  -1.11773
 Alpha  occ. eigenvalues --   -1.05792  -1.00956  -0.96683  -0.93895  -0.88633
 Alpha  occ. eigenvalues --   -0.86020  -0.83246  -0.79935  -0.79425  -0.75858
 Alpha  occ. eigenvalues --   -0.70788  -0.70465  -0.66825  -0.64902  -0.64125
 Alpha  occ. eigenvalues --   -0.62165  -0.60565  -0.57532  -0.54873  -0.54273
 Alpha  occ. eigenvalues --   -0.52255  -0.51513  -0.50689  -0.49202  -0.48800
 Alpha  occ. eigenvalues --   -0.46948  -0.46342  -0.46034  -0.45322  -0.44451
 Alpha  occ. eigenvalues --   -0.43389  -0.42677  -0.41998  -0.41345  -0.41020
 Alpha  occ. eigenvalues --   -0.39830  -0.39563  -0.39311  -0.37956  -0.36624
 Alpha  occ. eigenvalues --   -0.36303  -0.34735  -0.33033  -0.32589  -0.32221
 Alpha  occ. eigenvalues --   -0.31139  -0.30512  -0.29268  -0.28048  -0.27272
 Alpha  occ. eigenvalues --   -0.26189  -0.24445  -0.23468
 Alpha virt. eigenvalues --   -0.05364  -0.04112   0.00589   0.03513   0.06169
 Alpha virt. eigenvalues --    0.07158   0.07459   0.08572   0.10070   0.10299
 Alpha virt. eigenvalues --    0.10592   0.11662   0.12061   0.12715   0.13450

 Mulliken charges:
               1
     1  C   -0.441262
     2  C    0.022087
     3  C   -0.440806
     4  N   -0.237127
     5  C    0.060186
     6  C    0.129156
     7  N   -0.770255
     8  S    1.208958
     9  O   -0.530672
    10  O   -0.533421
    11  C   -0.166500
    12  C   -0.107789
    13  C   -0.171411
    14  C    0.292532
    15  C   -0.213564
    16  N   -0.692289
    17  N   -0.469734
    18  C    0.026677
    19  C    0.073482
    20  N   -0.300996
    21  H    0.150196
    22  H    0.150464
    23  H    0.182460
    24  H    0.142750
    25  H    0.154722
    26  H    0.149574
    27  H    0.181910
    28  H    0.161879
    29  H    0.356446
    30  H    0.193697
    31  H    0.148156
    32  H    0.168010
    33  H    0.152729
    34  H    0.296527
    35  H    0.316202
    36  H    0.184841
    37  H    0.172188
 Sum of Mulliken charges =  -0.00000

 Dipole moment (field-independent basis, Debye):
    X=              2.3762    Y=              5.1221    Z=             -1.8592  Tot=              5.9446
 Quadrupole moment (field-independent basis, Debye-Ang):
   XX=           -128.9202   YY=           -139.6044   ZZ=           -119.4559
   XY=              8.7820   XZ=            -10.3015   YZ=              5.3846

 Normal termination of Gaussian 16 at Fri Nov  4 18:33:15 2022.
