 Gaussian 16, Revision B.01,
 Gaussian 16:  ES64L-G16RevB.01 20-Dec-2017

 -------------------------------------------------------------------
 #p b3lyp/6-31g(d) 6D 10F nosymm GFInput td=(50-50,nstate=2) SCF=XQC
 -------------------------------------------------------------------

 ------------------------------
 Gaussian input prepared by ASE
 ------------------------------
 Symbolic Z-matrix:
 Charge =  0 Multiplicity = 1

                          Input orientation:
 ---------------------------------------------------------------------
 Center     Atomic      Atomic             Coordinates (Angstroms)
 Number     Number       Type             X           Y           Z
 ---------------------------------------------------------------------
      1          6           0       -2.874828   -0.732959    2.477668
      2          6           0       -3.369410   -0.744296    1.027518
      3          6           0       -4.882430   -0.525783    0.920208
      4          7           0       -2.649697    0.264695    0.235476
      5          6           0       -1.864741    0.062094   -0.852562
      6          6           0       -1.449121    1.317573   -1.277599
      7          7           0       -0.650322    1.641925   -2.397734
      8         16           0        0.914579    2.268766   -2.202380
      9          8           0        1.443597    2.357896   -3.563447
     10          8           0        0.794309    3.423394   -1.315026
     11          6           0        1.869366    1.031436   -1.322854
     12          6           0        1.860445    0.988082    0.072561
     13          6           0        2.603593   -0.008512    0.697414
     14          6           0        3.325406   -0.920986   -0.083837
     15          6           0        4.136784   -2.049648    0.541857
     16          7           0        5.390788   -2.382623   -0.128049
     17          7           0        3.337153   -0.862774   -1.426907
     18          6           0        2.625050    0.091854   -2.029998
     19          6           0       -2.033676    2.218307   -0.357415
     20          7           0       -2.750446    1.572746    0.560162
     21          1           0       -3.388472   -1.508583    3.055623
     22          1           0       -1.797348   -0.921984    2.525508
     23          1           0       -3.075661    0.238480    2.938142
     24          1           0       -3.109412   -1.703610    0.565297
     25          1           0       -5.210801   -0.564668   -0.123541
     26          1           0       -5.415138   -1.301894    1.480136
     27          1           0       -5.153271    0.451222    1.330512
     28          1           0       -1.677004   -0.926102   -1.248873
     29          1           0       -0.681659    1.001398   -3.185298
     30          1           0        1.307916    1.728995    0.640699
     31          1           0        2.635351   -0.074255    1.781413
     32          1           0        3.510200   -2.953294    0.549692
     33          1           0        4.344078   -1.813653    1.591949
     34          1           0        6.015628   -1.577713   -0.083423
     35          1           0        5.190952   -2.509302   -1.120083
     36          1           0        2.666684    0.129093   -3.115886
     37          1           0       -1.938443    3.294681   -0.332873
 ---------------------------------------------------------------------

 SCF Done:  E(RB3LYP) =  -1289.81059730     A.U. after   15 cycles

 Excitation energies and oscillator strengths:

 Excited state symmetry could not be determined.
 Excited State   1:      Triplet-?Sym    3.7009 eV  335.01 nm  f=0.0000  <S**2>=2.000
      70 -> 79        -0.10761
      72 -> 79        -0.16674
      72 -> 80         0.18936
      73 -> 80         0.12338
      74 -> 79         0.25968
      74 -> 80         0.23811
      75 -> 79         0.24712
      75 -> 80         0.19046
      77 -> 79        -0.18793
      78 -> 79         0.31987
      78 -> 80         0.15141
 This state for optimization and/or second-order correction.
 Total Energy, E(TD-HF/TD-DFT) =  -1289.67459127
 Copying the excited state density for this state as the 1-particle RhoCI density.

 Excited state symmetry could not be determined.
 Excited State   2:      Triplet-?Sym    4.0545 eV  305.79 nm  f=0.0000  <S**2>=2.000
      74 -> 79         0.14304
      74 -> 80        -0.24714
      75 -> 79        -0.34484
      78 -> 79         0.47875
      78 -> 80        -0.10539
      78 -> 81         0.11560

 Excited state symmetry could not be determined.
 Excited State   3:      Singlet-?Sym    4.2738 eV  290.11 nm  f=0.0888  <S**2>=0.000
      75 -> 79        -0.10113
      77 -> 79        -0.22001
      78 -> 79         0.66046

 Excited state symmetry could not be determined.
 Excited State   4:      Singlet-?Sym    4.4010 eV  281.72 nm  f=0.0052  <S**2>=0.000
      77 -> 79         0.66751
      78 -> 79         0.22492

 Alpha  occ. eigenvalues --  -89.11966 -19.14943 -19.14923 -14.42079 -14.38321
 Alpha  occ. eigenvalues --  -14.35521 -14.35154 -14.31704 -10.25236 -10.25062
 Alpha  occ. eigenvalues --  -10.24908 -10.23828 -10.23548 -10.23455 -10.23204
 Alpha  occ. eigenvalues --  -10.22379 -10.21973 -10.21079 -10.19282 -10.19181
 Alpha  occ. eigenvalues --   -8.14453  -6.10948  -6.10863  -6.10779  -1.11773
 Alpha  occ. eigenvalues --   -1.05792  -1.00956  -0.96683  -0.93895  -0.88633
 Alpha  occ. eigenvalues --   -0.86020  -0.83245  -0.79935  -0.79425  -0.75858
 Alpha  occ. eigenvalues --   -0.70788  -0.70465  -0.66825  -0.64902  -0.64125
 Alpha  occ. eigenvalues --   -0.62165  -0.60565  -0.57532  -0.54873  -0.54273
 Alpha  occ. eigenvalues --   -0.52255  -0.51513  -0.50689  -0.49202  -0.48800
 Alpha  occ. eigenvalues --   -0.46948  -0.46342  -0.46034  -0.45322  -0.44451
 Alpha  occ. eigenvalues --   -0.43389  -0.42677  -0.41998  -0.41345  -0.41020
 Alpha  occ. eigenvalues --   -0.39830  -0.39563  -0.39311  -0.37956  -0.36624
 Alpha  occ. eigenvalues --   -0.36303  -0.34735  -0.33033  -0.32589  -0.32221
 Alpha  occ. eigenvalues --   -0.31139  -0.30512  -0.29268  -0.28048  -0.27272
 Alpha  occ. eigenvalues --   -0.26189  -0.24445  -0.23468
 Alpha virt. eigenvalues --   -0.05363  -0.04112   0.00589   0.03513   0.06169
 Alpha virt. eigenvalues --    0.07158   0.07459   0.08572   0.10070   0.10299
 Alpha virt. eigenvalues --    0.10591   0.11662   0.12061   0.12715   0.13450

 Mulliken charges:
               1
     1  C   -0.441255
     2  C    0.022073
     3  C   -0.440803
     4  N   -0.237130
     5  C    0.060204
     6  C    0.129112
     7  N   -0.770223
     8  S    1.208897
     9  O   -0.530660
    10  O   -0.533413
    11  C   -0.166497
    12  C   -0.107772
    13  C   -0.171421
    14  C    0.292540
    15  C   -0.213562
    16  N   -0.692291
    17  N   -0.469747
    18  C    0.026692
    19  C    0.073497
    20  N   -0.300993
    21  H    0.150198
    22  H    0.150458
    23  H    0.182461
    24  H    0.142753
    25  H    0.154723
    26  H    0.149574
    27  H    0.181911
    28  H    0.161880
    29  H    0.356445
    30  H    0.193696
    31  H    0.148156
    32  H    0.168009
    33  H    0.152729
    34  H    0.296527
    35  H    0.316202
    36  H    0.184842
    37  H    0.172189
 Sum of Mulliken charges =  -0.00000

 Dipole moment (field-independent basis, Debye):
    X=             -2.5478    Y=             -4.7681    Z=              2.4725  Tot=              5.9447
 Quadrupole moment (field-independent basis, Debye-Ang):
   XX=           -125.8377   YY=           -144.4491   ZZ=           -126.8920
   XY=             10.8672   XZ=              5.7757   YZ=             10.2227

 Normal termination of Gaussian 16 at Sat Nov  5 11:12:21 2022.
