 Gaussian 16, Revision B.01,
 Gaussian 16:  ES64L-G16RevB.01 20-Dec-2017

 -------------------------------------------------------------------
 #p b3lyp/6-31g(d) 6D 10F nosymm GFInput td=(50-50,nstate=2) SCF=XQC
 -------------------------------------------------------------------

 ------------------------------
 Gaussian input prepared by ASE
 ------------------------------
 Symbolic Z-matrix:
 Charge =  0 Multiplicity = 1

                          Input orientation:
 ---------------------------------------------------------------------
 Center     Atomic      Atomic             Coordinates (Angstroms)
 Number     Number       Type             X           Y           Z
 ---------------------------------------------------------------------
      1          6           0       -4.420304   -1.080011   -1.487568
      2          6           0       -4.466144    0.423817   -1.186995
      3          6           0       -5.847648    1.007898   -1.514474
      4          6           0       -4.081087    0.735143    0.281523
      5          6           0       -2.662969    0.366181    0.660745
      6          6           0       -2.367521   -0.765427    1.427212
      7          6           0       -1.060737   -1.113174    1.765228
      8          6           0        0.033493   -0.329238    1.341352
      9          7           0        1.342852   -0.675734    1.676045
     10          6           0        1.574898   -1.828978    2.527452
     11          6           0        2.443840    0.243570    1.432966
     12          6           0        3.069883    0.126796    0.032806
     13          6           0        3.862350   -1.161186   -0.174100
     14          7           0        4.377209   -1.211348   -1.551510
     15          6           0        4.739302    0.113820   -2.084525
     16          6           0        5.027171    1.127772   -0.979091
     17          8           0        3.905225    1.284692   -0.109112
     18          6           0       -0.261058    0.814886    0.564717
     19          6           0       -1.573820    1.144213    0.244804
     20          1           0       -4.654830   -1.277728   -2.540399
     21          1           0       -5.155115   -1.622268   -0.876919
     22          1           0       -3.432495   -1.501654   -1.275481
     23          1           0       -3.725706    0.920000   -1.832379
     24          1           0       -5.876345    2.091167   -1.344819
     25          1           0       -6.624855    0.552273   -0.886596
     26          1           0       -6.118619    0.824333   -2.561074
     27          1           0       -4.235529    1.809803    0.453923
     28          1           0       -4.786139    0.214470    0.945143
     29          1           0       -3.180652   -1.396085    1.781619
     30          1           0       -0.901302   -1.997548    2.370667
     31          1           0        2.649247   -1.956797    2.672067
     32          1           0        1.188752   -2.750203    2.071959
     33          1           0        1.106557   -1.721802    3.519046
     34          1           0        2.117908    1.281296    1.568305
     35          1           0        3.225096    0.070377    2.181231
     36          1           0        2.268085    0.158209   -0.720492
     37          1           0        3.205933   -2.022733   -0.001510
     38          1           0        4.659537   -1.195935    0.591984
     39          1           0        5.178228   -1.834291   -1.590225
     40          1           0        5.609722    0.017959   -2.743434
     41          1           0        3.915268    0.496667   -2.702550
     42          1           0        5.912473    0.814645   -0.401675
     43          1           0        5.237598    2.118758   -1.397901
     44          1           0        0.534885    1.454342    0.201037
     45          1           0       -1.752639    2.038993   -0.348996
 ---------------------------------------------------------------------

 SCF Done:  E(RB3LYP) =  -810.058219056     A.U. after   14 cycles

 Excitation energies and oscillator strengths:

 Excited state symmetry could not be determined.
 Excited State   1:      Triplet-?Sym    3.5576 eV  348.50 nm  f=0.0000  <S**2>=2.000
      68 -> 74        -0.11816
      70 -> 73         0.33274
      72 -> 74         0.60553
 This state for optimization and/or second-order correction.
 Total Energy, E(TD-HF/TD-DFT) =  -809.927479117
 Copying the excited state density for this state as the 1-particle RhoCI density.

 Excited state symmetry could not be determined.
 Excited State   2:      Triplet-?Sym    3.7004 eV  335.05 nm  f=0.0000  <S**2>=2.000
      72 -> 73         0.69715

 Excited state symmetry could not be determined.
 Excited State   3:      Singlet-?Sym    4.5489 eV  272.56 nm  f=0.0326  <S**2>=0.000
      70 -> 74        -0.19564
      72 -> 73         0.67803

 Excited state symmetry could not be determined.
 Excited State   4:      Singlet-?Sym    5.2711 eV  235.22 nm  f=0.4559  <S**2>=0.000
      70 -> 73         0.16711
      72 -> 74         0.68124

 Alpha  occ. eigenvalues --  -19.14286 -14.34697 -14.31963 -10.23279 -10.23055
 Alpha  occ. eigenvalues --  -10.21754 -10.21533 -10.21531 -10.21135 -10.20995
 Alpha  occ. eigenvalues --  -10.17960 -10.17362 -10.17353 -10.17243 -10.17136
 Alpha  occ. eigenvalues --  -10.17078 -10.17062 -10.16514 -10.16066  -1.02795
 Alpha  occ. eigenvalues --   -0.94056  -0.89829  -0.83565  -0.79472  -0.78301
 Alpha  occ. eigenvalues --   -0.74118  -0.73423  -0.71568  -0.68702  -0.67378
 Alpha  occ. eigenvalues --   -0.67107  -0.65255  -0.62252  -0.59240  -0.56505
 Alpha  occ. eigenvalues --   -0.54695  -0.54584  -0.52037  -0.50863  -0.50341
 Alpha  occ. eigenvalues --   -0.47581  -0.46924  -0.45767  -0.44391  -0.44110
 Alpha  occ. eigenvalues --   -0.43606  -0.42876  -0.42448  -0.42019  -0.41162
 Alpha  occ. eigenvalues --   -0.40642  -0.39765  -0.39044  -0.38689  -0.38339
 Alpha  occ. eigenvalues --   -0.37870  -0.37269  -0.37067  -0.36067  -0.35872
 Alpha  occ. eigenvalues --   -0.35140  -0.34190  -0.32337  -0.32052  -0.31232
 Alpha  occ. eigenvalues --   -0.30934  -0.30246  -0.26751  -0.24891  -0.23472
 Alpha  occ. eigenvalues --   -0.21762  -0.17947
 Alpha virt. eigenvalues --    0.01212   0.02712   0.07308   0.08580   0.09540
 Alpha virt. eigenvalues --    0.10182   0.11200   0.11992   0.12549   0.13391
 Alpha virt. eigenvalues --    0.13718   0.14427   0.14680   0.15231   0.15507

 Mulliken charges:
               1
     1  C   -0.444878
     2  C   -0.060968
     3  C   -0.440351
     4  C   -0.344140
     5  C    0.179281
     6  C   -0.198679
     7  C   -0.194673
     8  C    0.359226
     9  N   -0.485748
    10  C   -0.313644
    11  C   -0.179549
    12  C    0.153073
    13  C   -0.146389
    14  N   -0.561300
    15  C   -0.162777
    16  C   -0.015314
    17  O   -0.511212
    18  C   -0.191259
    19  C   -0.197120
    20  H    0.136145
    21  H    0.131324
    22  H    0.156383
    23  H    0.124321
    24  H    0.137089
    25  H    0.137054
    26  H    0.139065
    27  H    0.134230
    28  H    0.129282
    29  H    0.116274
    30  H    0.119401
    31  H    0.155191
    32  H    0.159459
    33  H    0.151940
    34  H    0.167782
    35  H    0.143428
    36  H    0.144210
    37  H    0.154018
    38  H    0.115006
    39  H    0.298003
    40  H    0.138083
    41  H    0.154986
    42  H    0.120252
    43  H    0.141910
    44  H    0.134341
    45  H    0.117246
 Sum of Mulliken charges =  -0.00000

 Dipole moment (field-independent basis, Debye):
    X=              2.8087    Y=             -1.0945    Z=              0.3120  Tot=              3.0305
 Quadrupole moment (field-independent basis, Debye-Ang):
   XX=            -99.9900   YY=           -115.8509   ZZ=           -115.8508
   XY=             -4.6632   XZ=             -1.2173   YZ=             -6.9804

 Normal termination of Gaussian 16 at Sat Nov  5 11:11:33 2022.
