 Gaussian 16, Revision B.01,
 Gaussian 16:  ES64L-G16RevB.01 20-Dec-2017

 -----------------------------
 #p b3lyp/6-31g(d) opt SCF=XQC
 -----------------------------

 ------------------------------
 Gaussian input prepared by ASE
 ------------------------------
 Symbolic Z-matrix:
 Charge =  0 Multiplicity = 1

 SCF Done:  E(RB3LYP) =  -810.053328415     A.U. after   14 cycles
 SCF Done:  E(RB3LYP) =  -810.057449991     A.U. after   11 cycles
 SCF Done:  E(RB3LYP) =  -810.057848567     A.U. after   11 cycles
 SCF Done:  E(RB3LYP) =  -810.057975525     A.U. after   11 cycles
 SCF Done:  E(RB3LYP) =  -810.058025486     A.U. after   11 cycles
 SCF Done:  E(RB3LYP) =  -810.058058091     A.U. after   10 cycles
 SCF Done:  E(RB3LYP) =  -810.058099339     A.U. after   10 cycles
 SCF Done:  E(RB3LYP) =  -810.058118949     A.U. after   10 cycles
 SCF Done:  E(RB3LYP) =  -810.058129574     A.U. after   10 cycles
 SCF Done:  E(RB3LYP) =  -810.058145301     A.U. after   10 cycles
 SCF Done:  E(RB3LYP) =  -810.058210674     A.U. after   10 cycles
 SCF Done:  E(RB3LYP) =  -810.058214991     A.U. after   10 cycles
 SCF Done:  E(RB3LYP) =  -810.058216428     A.U. after    9 cycles
 SCF Done:  E(RB3LYP) =  -810.058214940     A.U. after   10 cycles
 SCF Done:  E(RB3LYP) =  -810.058216960     A.U. after    9 cycles
 SCF Done:  E(RB3LYP) =  -810.058217138     A.U. after    7 cycles
 SCF Done:  E(RB3LYP) =  -810.058217223     A.U. after    7 cycles
 SCF Done:  E(RB3LYP) =  -810.058217285     A.U. after    7 cycles
 SCF Done:  E(RB3LYP) =  -810.058217344     A.U. after    7 cycles
 SCF Done:  E(RB3LYP) =  -810.058217380     A.U. after    6 cycles
 Optimization completed.
    -- Stationary point found.

                         Standard orientation:
 ---------------------------------------------------------------------
 Center     Atomic      Atomic             Coordinates (Angstroms)
 Number     Number       Type             X           Y           Z
 ---------------------------------------------------------------------
      1          6           0       -4.614604   -0.928655    1.714053
      2          6           0       -4.711908   -1.263753    0.220003
      3          6           0       -6.116417   -1.768650   -0.139690
      4          6           0       -4.325254   -0.057410   -0.672732
      5          6           0       -2.891445    0.406560   -0.531580
      6          6           0       -2.548611    1.559589    0.181362
      7          6           0       -1.227191    1.979836    0.323161
      8          6           0       -0.165729    1.249315   -0.252341
      9          7           0        1.158191    1.665960   -0.110409
     10          6           0        1.439201    2.906816    0.589605
     11          6           0        2.223140    1.045476   -0.883238
     12          6           0        2.840491   -0.200462   -0.225566
     13          6           0        3.676966    0.115537    1.011433
     14          7           0        4.181012   -1.134137    1.602286
     15          6           0        4.490373   -2.167484    0.598406
     16          6           0        4.751362   -1.575966   -0.785409
     17          8           0        3.632283   -0.819377   -1.249612
     18          6           0       -0.508207    0.081894   -0.972604
     19          6           0       -1.834777   -0.314199   -1.104769
     20          1           0       -4.851221   -1.804819    2.329600
     21          1           0       -5.323937   -0.133847    1.982395
     22          1           0       -3.610398   -0.586172    1.983880
     23          1           0       -3.995601   -2.071709    0.007692
     24          1           0       -6.182605   -2.052941   -1.196987
     25          1           0       -6.871085   -0.992319    0.043783
     26          1           0       -6.389908   -2.644038    0.461467
     27          1           0       -4.516767   -0.332833   -1.719600
     28          1           0       -5.005155    0.776346   -0.446511
     29          1           0       -3.335309    2.157996    0.636921
     30          1           0       -1.030617    2.888453    0.879819
     31          1           0        2.518703    3.066363    0.616041
     32          1           0        1.082450    2.873624    1.627326
     33          1           0        0.976152    3.779818    0.102223
     34          1           0        1.861256    0.755102   -1.876287
     35          1           0        3.016760    1.781583   -1.052263
     36          1           0        2.031405   -0.883121    0.075569
     37          1           0        3.053574    0.638045    1.747165
     38          1           0        4.481678    0.811336    0.708279
     39          1           0        5.003575   -0.934765    2.163383
     40          1           0        5.357779   -2.750320    0.928390
     41          1           0        3.647613   -2.868782    0.524284
     42          1           0        5.652476   -0.941476   -0.760230
     43          1           0        4.922217   -2.365812   -1.526142
     44          1           0        0.260914   -0.528165   -1.431921
     45          1           0       -2.050992   -1.215967   -1.675093
 ---------------------------------------------------------------------

 The electronic state is 1-A.
 Alpha  occ. eigenvalues --  -19.14286 -14.34697 -14.31963 -10.23279 -10.23055
 Alpha  occ. eigenvalues --  -10.21754 -10.21532 -10.21531 -10.21135 -10.20995
 Alpha  occ. eigenvalues --  -10.17960 -10.17362 -10.17353 -10.17243 -10.17136
 Alpha  occ. eigenvalues --  -10.17078 -10.17062 -10.16514 -10.16066  -1.02795
 Alpha  occ. eigenvalues --   -0.94056  -0.89830  -0.83565  -0.79472  -0.78301
 Alpha  occ. eigenvalues --   -0.74118  -0.73423  -0.71568  -0.68702  -0.67378
 Alpha  occ. eigenvalues --   -0.67107  -0.65255  -0.62252  -0.59240  -0.56505
 Alpha  occ. eigenvalues --   -0.54695  -0.54584  -0.52037  -0.50863  -0.50341
 Alpha  occ. eigenvalues --   -0.47581  -0.46924  -0.45767  -0.44391  -0.44110
 Alpha  occ. eigenvalues --   -0.43606  -0.42876  -0.42448  -0.42019  -0.41162
 Alpha  occ. eigenvalues --   -0.40642  -0.39765  -0.39044  -0.38689  -0.38339
 Alpha  occ. eigenvalues --   -0.37870  -0.37269  -0.37067  -0.36067  -0.35872
 Alpha  occ. eigenvalues --   -0.35140  -0.34190  -0.32337  -0.32052  -0.31232
 Alpha  occ. eigenvalues --   -0.30934  -0.30246  -0.26751  -0.24891  -0.23472
 Alpha  occ. eigenvalues --   -0.21762  -0.17947
 Alpha virt. eigenvalues --    0.01212   0.02712   0.07308   0.08580   0.09540
 Alpha virt. eigenvalues --    0.10182   0.11200   0.11992   0.12549   0.13391
 Alpha virt. eigenvalues --    0.13718   0.14427   0.14680   0.15231   0.15507

 Mulliken charges:
               1
     1  C   -0.444877
     2  C   -0.060983
     3  C   -0.440344
     4  C   -0.344133
     5  C    0.179294
     6  C   -0.198689
     7  C   -0.194682
     8  C    0.359234
     9  N   -0.485764
    10  C   -0.313639
    11  C   -0.179527
    12  C    0.153077
    13  C   -0.146393
    14  N   -0.561305
    15  C   -0.162782
    16  C   -0.015310
    17  O   -0.511208
    18  C   -0.191259
    19  C   -0.197128
    20  H    0.136145
    21  H    0.131323
    22  H    0.156384
    23  H    0.124321
    24  H    0.137089
    25  H    0.137053
    26  H    0.139064
    27  H    0.134231
    28  H    0.129282
    29  H    0.116274
    30  H    0.119402
    31  H    0.155191
    32  H    0.159458
    33  H    0.151940
    34  H    0.167777
    35  H    0.143424
    36  H    0.144209
    37  H    0.154019
    38  H    0.115007
    39  H    0.298004
    40  H    0.138085
    41  H    0.154987
    42  H    0.120250
    43  H    0.141909
    44  H    0.134342
    45  H    0.117246
 Sum of Mulliken charges =  -0.00000

 Dipole moment (field-independent basis, Debye):
    X=              2.8489    Y=              0.6655    Z=              0.7903  Tot=              3.0305
 Quadrupole moment (field-independent basis, Debye-Ang):
   XX=           -100.9640   YY=           -110.8438   ZZ=           -121.3100
   XY=              0.2126   XZ=              4.0406   YZ=              4.4588

 Normal termination of Gaussian 16 at Fri Nov  4 18:31:16 2022.
