 Gaussian 16, Revision B.01,
 Gaussian 16:  ES64L-G16RevB.01 20-Dec-2017

 -----------------------------
 #p b3lyp/6-31g(d) opt SCF=XQC
 -----------------------------

 ------------------------------
 Gaussian input prepared by ASE
 ------------------------------
 Symbolic Z-matrix:
 Charge =  0 Multiplicity = 1

 SCF Done:  E(RB3LYP) =  -774.596334315     A.U. after   14 cycles
 SCF Done:  E(RB3LYP) =  -774.600615533     A.U. after   12 cycles
 SCF Done:  E(RB3LYP) =  -774.601079456     A.U. after   11 cycles
 SCF Done:  E(RB3LYP) =  -774.601204750     A.U. after   10 cycles
 SCF Done:  E(RB3LYP) =  -774.601231132     A.U. after   10 cycles
 SCF Done:  E(RB3LYP) =  -774.601244836     A.U. after    9 cycles
 SCF Done:  E(RB3LYP) =  -774.601248086     A.U. after    9 cycles
 SCF Done:  E(RB3LYP) =  -774.601248587     A.U. after    8 cycles
 SCF Done:  E(RB3LYP) =  -774.601248793     A.U. after    8 cycles
 SCF Done:  E(RB3LYP) =  -774.601248804     A.U. after    7 cycles
 Optimization completed.
    -- Stationary point found.

                         Standard orientation:
 ---------------------------------------------------------------------
 Center     Atomic      Atomic             Coordinates (Angstroms)
 Number     Number       Type             X           Y           Z
 ---------------------------------------------------------------------
      1          6           0       -5.643274   -1.038873    1.155271
      2          6           0       -4.855665   -1.817528    0.097741
      3          6           0       -4.301247   -0.939523   -1.046556
      4          6           0       -3.254125    0.063609   -0.606011
      5          6           0       -3.563895    1.419449   -0.441751
      6          6           0       -2.593633    2.325891   -0.008718
      7          6           0       -1.296487    1.893560    0.260822
      8          6           0       -0.960503    0.542610    0.099579
      9          6           0        0.463455    0.067805    0.357538
     10          8           0        1.063766    0.758585    1.452042
     11          6           0        1.348786    0.279604   -0.880676
     12          6           0        2.823827   -0.141789   -0.778009
     13          6           0        3.085884   -1.440912   -0.001769
     14          6           0        4.592663   -1.739684    0.051956
     15          6           0        5.353487   -0.514664    0.579438
     16          6           0        4.956428    0.729392   -0.218498
     17          8           0        3.552645    0.943694   -0.203950
     18          6           0       -1.944718   -0.353289   -0.327384
     19          1           0       -6.017029   -1.707529    1.939038
     20          1           0       -5.021865   -0.274250    1.633970
     21          1           0       -6.508901   -0.532544    0.709653
     22          1           0       -4.021751   -2.348236    0.576886
     23          1           0       -5.500173   -2.590229   -0.342499
     24          1           0       -5.135509   -0.410368   -1.525755
     25          1           0       -3.870877   -1.598543   -1.812322
     26          1           0       -4.572460    1.766933   -0.654212
     27          1           0       -2.851594    3.374754    0.115099
     28          1           0       -0.536711    2.590946    0.601282
     29          1           0        0.425027   -1.012765    0.574276
     30          1           0        0.455926    0.681475    2.205150
     31          1           0        1.327636    1.339769   -1.157637
     32          1           0        0.884382   -0.276438   -1.704776
     33          1           0        3.191601   -0.284810   -1.812851
     34          1           0        2.701000   -1.317894    1.017208
     35          1           0        2.542174   -2.273144   -0.469377
     36          1           0        4.953315   -1.984355   -0.958332
     37          1           0        4.788998   -2.619423    0.677147
     38          1           0        6.439033   -0.666951    0.517090
     39          1           0        5.104185   -0.349594    1.635715
     40          1           0        5.403017    1.635538    0.203253
     41          1           0        5.310270    0.630801   -1.261822
     42          1           0       -1.686872   -1.405318   -0.448747
 ---------------------------------------------------------------------

 The electronic state is 1-A.
 Alpha  occ. eigenvalues --  -19.13971 -19.12900 -10.23521 -10.22551 -10.21770
 Alpha  occ. eigenvalues --  -10.19208 -10.18863 -10.18587 -10.18560 -10.18391
 Alpha  occ. eigenvalues --  -10.18388 -10.18335 -10.18107 -10.17851 -10.17681
 Alpha  occ. eigenvalues --  -10.17432 -10.17299 -10.17162  -1.01817  -1.01172
 Alpha  occ. eigenvalues --   -0.85357  -0.79679  -0.78956  -0.78076  -0.75276
 Alpha  occ. eigenvalues --   -0.73908  -0.70836  -0.67620  -0.64548  -0.62997
 Alpha  occ. eigenvalues --   -0.60653  -0.59358  -0.58041  -0.56304  -0.54304
 Alpha  occ. eigenvalues --   -0.51012  -0.49786  -0.47645  -0.46701  -0.46537
 Alpha  occ. eigenvalues --   -0.45092  -0.44770  -0.43839  -0.43174  -0.42942
 Alpha  occ. eigenvalues --   -0.42106  -0.40494  -0.39953  -0.39322  -0.38476
 Alpha  occ. eigenvalues --   -0.37204  -0.36773  -0.36395  -0.35989  -0.35412
 Alpha  occ. eigenvalues --   -0.34740  -0.34025  -0.33513  -0.33116  -0.32598
 Alpha  occ. eigenvalues --   -0.32288  -0.31691  -0.30586  -0.28484  -0.26770
 Alpha  occ. eigenvalues --   -0.24136  -0.23464  -0.23362
 Alpha virt. eigenvalues --   -0.00092   0.00172   0.08153   0.09357   0.09838
 Alpha virt. eigenvalues --    0.11377   0.11493   0.11626   0.13317   0.13392
 Alpha virt. eigenvalues --    0.14072   0.14584   0.14725   0.15906   0.16193

 Mulliken charges:
               1
     1  C   -0.443907
     2  C   -0.243941
     3  C   -0.344154
     4  C    0.179683
     5  C   -0.185463
     6  C   -0.128828
     7  C   -0.182573
     8  C    0.111517
     9  C    0.072432
    10  O   -0.615914
    11  C   -0.281150
    12  C    0.164202
    13  C   -0.277709
    14  C   -0.274688
    15  C   -0.269871
    16  C   -0.021246
    17  O   -0.472840
    18  C   -0.241865
    19  H    0.142358
    20  H    0.155485
    21  H    0.138578
    22  H    0.135493
    23  H    0.133203
    24  H    0.138118
    25  H    0.141851
    26  H    0.122021
    27  H    0.128776
    28  H    0.144861
    29  H    0.114967
    30  H    0.386965
    31  H    0.160869
    32  H    0.134245
    33  H    0.098982
    34  H    0.158188
    35  H    0.122333
    36  H    0.127201
    37  H    0.133938
    38  H    0.127754
    39  H    0.144907
    40  H    0.141260
    41  H    0.109185
    42  H    0.114775
 Sum of Mulliken charges =  -0.00000

 Dipole moment (field-independent basis, Debye):
    X=             -0.9443    Y=             -1.7160    Z=             -0.0510  Tot=              1.9593
 Quadrupole moment (field-independent basis, Debye-Ang):
   XX=           -102.5809   YY=           -108.2572   ZZ=           -108.4197
   XY=             -3.6695   XZ=             -0.7467   YZ=              0.7677

 1\1\GINC-NODE69\FOpt\RB3LYP\6-31G(d)\C16H24O2\WYKGROUP\04-Nov-2022\0\\
 #p b3lyp/6-31g(d) opt SCF=XQC\\Gaussian input prepared by ASE\\0,1\C,-
 5.6818067842,-0.7895562498,-0.1835905024\C,-4.7590852376,-0.704846981,
 -1.4027746974\C,-4.0347986061,0.6521096566,-1.5503075471\C,-3.05037707
 58,0.952988976,-0.4380110755\C,-3.3644223627,1.8451054876,0.5948224224
 \C,-2.4561174576,2.0902754349,1.6270235171\C,-1.2167427179,1.453157883
 3,1.6404699836\C,-0.87713738,0.5596031781,0.6156883588\C,0.4888770535,
 -0.1138139135,0.603363083\O,0.9330402887,-0.4385137671,1.9197134861\C,

 Normal termination of Gaussian 16 at Fri Nov  4 18:19:40 2022.
