 Gaussian 16, Revision B.01,
 Gaussian 16:  ES64L-G16RevB.01 20-Dec-2017

 -------------------------------------------------------------------
 #p b3lyp/6-31g(d) 6D 10F nosymm GFInput td=(50-50,nstate=2) SCF=XQC
 -------------------------------------------------------------------

 ------------------------------
 Gaussian input prepared by ASE
 ------------------------------
 Symbolic Z-matrix:
 Charge =  0 Multiplicity = 1

                          Input orientation:
 ---------------------------------------------------------------------
 Center     Atomic      Atomic             Coordinates (Angstroms)
 Number     Number       Type             X           Y           Z
 ---------------------------------------------------------------------
      1          6           0       -5.681807   -0.789556   -0.183591
      2          6           0       -4.759085   -0.704847   -1.402775
      3          6           0       -4.034799    0.652110   -1.550308
      4          6           0       -3.050377    0.952989   -0.438011
      5          6           0       -3.364422    1.845105    0.594822
      6          6           0       -2.456117    2.090275    1.627024
      7          6           0       -1.216743    1.453158    1.640470
      8          6           0       -0.877137    0.559603    0.615688
      9          6           0        0.488877   -0.113814    0.603363
     10          8           0        0.933040   -0.438514    1.919713
     11          6           0        1.546198    0.794377   -0.044021
     12          6           0        2.985819    0.260645   -0.124521
     13          6           0        3.117516   -1.233614   -0.454354
     14          6           0        4.597070   -1.649233   -0.481066
     15          6           0        5.288309   -1.218006    0.820470
     16          6           0        5.025510    0.266486    1.083627
     17          8           0        3.636997    0.563296    1.109724
     18          6           0       -1.799998    0.319330   -0.406178
     19          1           0       -6.172776   -1.767842   -0.128899
     20          1           0       -5.126961   -0.639372    0.748901
     21          1           0       -6.467907   -0.025224   -0.229383
     22          1           0       -4.009495   -1.506284   -1.353195
     23          1           0       -5.342436   -0.884795   -2.315785
     24          1           0       -4.784744    1.452509   -1.601042
     25          1           0       -3.506252    0.660526   -2.512850
     26          1           0       -4.327516    2.350592    0.590223
     27          1           0       -2.716723    2.784649    2.421956
     28          1           0       -0.505829    1.635303    2.441061
     29          1           0        0.406664   -1.033180   -0.000037
     30          1           0        0.221942   -0.946271    2.342926
     31          1           0        1.577915    1.747120    0.496701
     32          1           0        1.199066    1.014473   -1.061396
     33          1           0        3.497443    0.831000   -0.924237
     34          1           0        2.591015   -1.805503    0.318513
     35          1           0        2.637141   -1.448367   -1.418724
     36          1           0        5.096890   -1.167850   -1.334920
     37          1           0        4.690556   -2.731755   -0.631929
     38          1           0        6.369585   -1.402699    0.773367
     39          1           0        4.891073   -1.800269    1.662073
     40          1           0        5.417293    0.576399    2.057730
     41          1           0        5.525104    0.876041    0.307549
     42          1           0       -1.539900   -0.378991   -1.201585
 ---------------------------------------------------------------------

 SCF Done:  E(RB3LYP) =  -774.601243179     A.U. after   14 cycles

 Excitation energies and oscillator strengths:

 Excited state symmetry could not be determined.
 Excited State   1:      Triplet-?Sym    3.7032 eV  334.80 nm  f=0.0000  <S**2>=2.000
      66 -> 69         0.46190
      66 -> 70        -0.13896
      67 -> 70         0.24687
      68 -> 69        -0.10147
      68 -> 70        -0.42304
 This state for optimization and/or second-order correction.
 Total Energy, E(TD-HF/TD-DFT) =  -774.465152452
 Copying the excited state density for this state as the 1-particle RhoCI density.

 Excited state symmetry could not be determined.
 Excited State   2:      Triplet-?Sym    4.5857 eV  270.37 nm  f=0.0000  <S**2>=2.000
      66 -> 70        -0.33484
      67 -> 69        -0.30601
      68 -> 69         0.52987

 Excited state symmetry could not be determined.
 Excited State   3:      Singlet-?Sym    5.2846 eV  234.61 nm  f=0.0056  <S**2>=0.000
      66 -> 69         0.11856
      66 -> 70         0.43796
      67 -> 69        -0.25543
      68 -> 69         0.45545
      68 -> 70        -0.11493

 Excited state symmetry could not be determined.
 Excited State   4:      Singlet-?Sym    5.8418 eV  212.24 nm  f=0.0006  <S**2>=0.000
      67 -> 69         0.57706
      67 -> 70         0.13829
      68 -> 69         0.35592
      68 -> 70         0.13108

 Alpha  occ. eigenvalues --  -19.13971 -19.12900 -10.23521 -10.22551 -10.21770
 Alpha  occ. eigenvalues --  -10.19207 -10.18863 -10.18587 -10.18560 -10.18391
 Alpha  occ. eigenvalues --  -10.18388 -10.18334 -10.18107 -10.17851 -10.17681
 Alpha  occ. eigenvalues --  -10.17432 -10.17299 -10.17162  -1.01817  -1.01172
 Alpha  occ. eigenvalues --   -0.85357  -0.79679  -0.78956  -0.78076  -0.75276
 Alpha  occ. eigenvalues --   -0.73908  -0.70836  -0.67620  -0.64548  -0.62997
 Alpha  occ. eigenvalues --   -0.60653  -0.59358  -0.58041  -0.56304  -0.54304
 Alpha  occ. eigenvalues --   -0.51012  -0.49786  -0.47645  -0.46701  -0.46537
 Alpha  occ. eigenvalues --   -0.45092  -0.44770  -0.43839  -0.43174  -0.42942
 Alpha  occ. eigenvalues --   -0.42106  -0.40494  -0.39954  -0.39322  -0.38476
 Alpha  occ. eigenvalues --   -0.37204  -0.36773  -0.36395  -0.35989  -0.35412
 Alpha  occ. eigenvalues --   -0.34740  -0.34025  -0.33513  -0.33116  -0.32598
 Alpha  occ. eigenvalues --   -0.32288  -0.31691  -0.30586  -0.28484  -0.26770
 Alpha  occ. eigenvalues --   -0.24136  -0.23464  -0.23362
 Alpha virt. eigenvalues --   -0.00093   0.00172   0.08153   0.09357   0.09838
 Alpha virt. eigenvalues --    0.11378   0.11493   0.11626   0.13317   0.13392
 Alpha virt. eigenvalues --    0.14072   0.14584   0.14725   0.15906   0.16193

 Mulliken charges:
               1
     1  C   -0.443914
     2  C   -0.243927
     3  C   -0.344156
     4  C    0.179681
     5  C   -0.185452
     6  C   -0.128834
     7  C   -0.182583
     8  C    0.111538
     9  C    0.072431
    10  O   -0.615917
    11  C   -0.281154
    12  C    0.164246
    13  C   -0.277735
    14  C   -0.274687
    15  C   -0.269864
    16  C   -0.021250
    17  O   -0.472851
    18  C   -0.241877
    19  H    0.142359
    20  H    0.155484
    21  H    0.138578
    22  H    0.135490
    23  H    0.133200
    24  H    0.138118
    25  H    0.141851
    26  H    0.122018
    27  H    0.128777
    28  H    0.144863
    29  H    0.114969
    30  H    0.386966
    31  H    0.160869
    32  H    0.134245
    33  H    0.098977
    34  H    0.158189
    35  H    0.122334
    36  H    0.127200
    37  H    0.133939
    38  H    0.127754
    39  H    0.144905
    40  H    0.141260
    41  H    0.109184
    42  H    0.114776
 Sum of Mulliken charges =  -0.00000

 Dipole moment (field-independent basis, Debye):
    X=             -0.9475    Y=             -1.0913    Z=             -1.3230  Tot=              1.9593
 Quadrupole moment (field-independent basis, Debye-Ang):
   XX=           -102.7334   YY=           -108.8565   ZZ=           -108.7983
   XY=             -3.0306   XZ=             -2.9221   YZ=             -0.2814

 Normal termination of Gaussian 16 at Sat Nov  5 11:18:23 2022.
