 Gaussian 16, Revision B.01,
 Gaussian 16:  ES64L-G16RevB.01 20-Dec-2017

 -----------------------------
 #p b3lyp/6-31g(d) opt SCF=XQC
 -----------------------------

 ------------------------------
 Gaussian input prepared by ASE
 ------------------------------
 Symbolic Z-matrix:
 Charge =  0 Multiplicity = 1

 SCF Done:  E(RB3LYP) =  -1091.39808318     A.U. after   15 cycles
 SCF Done:  E(RB3LYP) =  -1091.40070726     A.U. after   13 cycles
 SCF Done:  E(RB3LYP) =  -1091.40196374     A.U. after   14 cycles
 SCF Done:  E(RB3LYP) =  -1091.40153024     A.U. after   13 cycles
 SCF Done:  E(RB3LYP) =  -1091.40300539     A.U. after   13 cycles
 SCF Done:  E(RB3LYP) =  -1091.40486140     A.U. after   12 cycles
 SCF Done:  E(RB3LYP) =  -1091.40535477     A.U. after   12 cycles
 SCF Done:  E(RB3LYP) =  -1091.40559373     A.U. after   12 cycles
 SCF Done:  E(RB3LYP) =  -1091.40568820     A.U. after   12 cycles
 SCF Done:  E(RB3LYP) =  -1091.40571793     A.U. after   11 cycles
 SCF Done:  E(RB3LYP) =  -1091.40573809     A.U. after   10 cycles
 SCF Done:  E(RB3LYP) =  -1091.40574829     A.U. after   10 cycles
 SCF Done:  E(RB3LYP) =  -1091.40575057     A.U. after    8 cycles
 SCF Done:  E(RB3LYP) =  -1091.40575112     A.U. after    8 cycles
 SCF Done:  E(RB3LYP) =  -1091.40575122     A.U. after    7 cycles
 Optimization completed.
    -- Stationary point found.

                         Standard orientation:
 ---------------------------------------------------------------------
 Center     Atomic      Atomic             Coordinates (Angstroms)
 Number     Number       Type             X           Y           Z
 ---------------------------------------------------------------------
      1          6           0        2.239517   -0.668260    1.548228
      2         16           0        2.044253   -0.057519   -0.137713
      3          8           0        3.052669    0.994756   -0.354650
      4          8           0        2.002550   -1.209971   -1.051323
      5          6           0        0.418641    0.787183   -0.105117
      6          6           0        0.508906    2.178558   -0.180867
      7          6           0       -0.642561    2.964059   -0.123598
      8          6           0       -1.881783    2.356016    0.033901
      9          6           0       -1.940654    0.968548    0.108482
     10          9           0       -3.163440    0.419713    0.295131
     11          6           0       -0.826993    0.124001    0.008155
     12          6           0       -1.043320   -1.370272    0.074642
     13          7           0       -0.778284   -1.899710    1.410323
     14          6           0       -2.137635   -1.991580   -0.781233
     15          6           0       -0.688450   -2.249535   -1.096222
     16          1           0        3.161897   -1.255195    1.548764
     17          1           0        2.335119    0.191392    2.214834
     18          1           0        1.365803   -1.277980    1.799344
     19          1           0        1.488375    2.630478   -0.284131
     20          1           0       -0.568702    4.045365   -0.189188
     21          1           0       -2.802654    2.925221    0.106919
     22          1           0       -1.535557   -1.630987    2.040078
     23          1           0       -0.772849   -2.918083    1.380515
     24          1           0       -2.724775   -2.782539   -0.320074
     25          1           0       -2.704949   -1.356750   -1.454979
     26          1           0       -0.250795   -1.779653   -1.968444
     27          1           0       -0.255776   -3.220994   -0.869104
 ---------------------------------------------------------------------

 The electronic state is 1-A.
 Alpha  occ. eigenvalues --  -89.08754 -24.71899 -19.12973 -19.12940 -14.33807
 Alpha  occ. eigenvalues --  -10.28883 -10.24042 -10.23490 -10.22928 -10.21571
 Alpha  occ. eigenvalues --  -10.21497 -10.20989 -10.20857 -10.18903 -10.18871
 Alpha  occ. eigenvalues --   -8.11623  -6.08047  -6.08005  -6.07939  -1.23009
 Alpha  occ. eigenvalues --   -1.08802  -0.98416  -0.92470  -0.87862  -0.82458
 Alpha  occ. eigenvalues --   -0.78903  -0.76867  -0.75471  -0.66808  -0.63947
 Alpha  occ. eigenvalues --   -0.61146  -0.59982  -0.57761  -0.53876  -0.51817
 Alpha  occ. eigenvalues --   -0.50735  -0.49456  -0.49106  -0.48518  -0.47428
 Alpha  occ. eigenvalues --   -0.46672  -0.46087  -0.45417  -0.42992  -0.42302
 Alpha  occ. eigenvalues --   -0.41230  -0.40574  -0.39304  -0.37766  -0.37230
 Alpha  occ. eigenvalues --   -0.36646  -0.33271  -0.32387  -0.30810  -0.30032
 Alpha  occ. eigenvalues --   -0.28532  -0.28022  -0.27386  -0.25915  -0.24115
 Alpha virt. eigenvalues --   -0.04500  -0.01684   0.05527   0.07178   0.09022
 Alpha virt. eigenvalues --    0.09348   0.10295   0.11000   0.11232   0.12187
 Alpha virt. eigenvalues --    0.12569   0.13495   0.14241   0.15395   0.15695

 Mulliken charges:
               1
     1  C   -0.654716
     2  S    1.134346
     3  O   -0.543178
     4  O   -0.540863
     5  C   -0.230419
     6  C   -0.158872
     7  C   -0.122483
     8  C   -0.184685
     9  C    0.343627
    10  F   -0.289997
    11  C    0.056754
    12  C    0.134330
    13  N   -0.732234
    14  C   -0.330600
    15  C   -0.299085
    16  H    0.207457
    17  H    0.194086
    18  H    0.251387
    19  H    0.197027
    20  H    0.151875
    21  H    0.156504
    22  H    0.309343
    23  H    0.306203
    24  H    0.142332
    25  H    0.159656
    26  H    0.188705
    27  H    0.153500
 Sum of Mulliken charges =  -0.00000

 Dipole moment (field-independent basis, Debye):
    X=             -3.7688    Y=              0.0207    Z=              3.0434  Tot=              4.8442
 Quadrupole moment (field-independent basis, Debye-Ang):
   XX=           -102.6565   YY=            -81.6835   ZZ=            -92.8694
   XY=             -1.5798   XZ=              6.0886   YZ=             -4.4812

 Normal termination of Gaussian 16 at Fri Nov  4 18:20:57 2022.
