 Gaussian 16, Revision B.01,
 Gaussian 16:  ES64L-G16RevB.01 20-Dec-2017

 -------------------------------------------------------------------
 #p b3lyp/6-31g(d) 6D 10F nosymm GFInput td=(50-50,nstate=2) SCF=XQC
 -------------------------------------------------------------------

 ------------------------------
 Gaussian input prepared by ASE
 ------------------------------
 Symbolic Z-matrix:
 Charge =  0 Multiplicity = 1

                          Input orientation:
 ---------------------------------------------------------------------
 Center     Atomic      Atomic             Coordinates (Angstroms)
 Number     Number       Type             X           Y           Z
 ---------------------------------------------------------------------
      1          6           0        1.821869   -2.152411    0.594456
      2         16           0        1.584974   -1.323990   -0.990198
      3          8           0        2.910513   -1.151274   -1.610167
      4          8           0        0.531537   -2.030906   -1.735255
      5          6           0        1.015104    0.352636   -0.519693
      6          6           0        1.965002    1.350879   -0.745555
      7          6           0        1.693844    2.674170   -0.396928
      8          6           0        0.480378    2.992432    0.200069
      9          6           0       -0.445457    1.977080    0.414509
     10          9           0       -1.600127    2.325028    1.028456
     11          6           0       -0.251990    0.639993    0.042573
     12          6           0       -1.359661   -0.353056    0.309007
     13          7           0       -1.124962   -1.114660    1.533534
     14          6           0       -2.781569    0.008492   -0.095385
     15          6           0       -2.034754   -1.072848   -0.829461
     16          1           0        2.080495   -3.187368    0.355179
     17          1           0        2.648145   -1.664472    1.115693
     18          1           0        0.889542   -2.084285    1.163946
     19          1           0        2.911667    1.074717   -1.194793
     20          1           0        2.432644    3.448537   -0.579979
     21          1           0        0.233036    4.002459    0.509902
     22          1           0       -1.289658   -0.516249    2.344118
     23          1           0       -1.795725   -1.879002    1.595676
     24          1           0       -3.570548   -0.274448    0.597779
     25          1           0       -2.961428    0.948180   -0.608635
     26          1           0       -1.681685   -0.875454   -1.834190
     27          1           0       -2.301188   -2.114181   -0.664656
 ---------------------------------------------------------------------

 SCF Done:  E(RB3LYP) =  -1091.40574919     A.U. after   15 cycles

 Excitation energies and oscillator strengths:

 Excited state symmetry could not be determined.
 Excited State   1:      Triplet-?Sym    3.6468 eV  339.98 nm  f=0.0000  <S**2>=2.000
      57 -> 61         0.17878
      58 -> 61         0.50342
      59 -> 62         0.40796
      60 -> 61        -0.12588
 This state for optimization and/or second-order correction.
 Total Energy, E(TD-HF/TD-DFT) =  -1091.27173301
 Copying the excited state density for this state as the 1-particle RhoCI density.

 Excited state symmetry could not be determined.
 Excited State   2:      Triplet-?Sym    4.1260 eV  300.50 nm  f=0.0000  <S**2>=2.000
      57 -> 61        -0.12669
      59 -> 61         0.65561
      60 -> 61        -0.18755

 Excited state symmetry could not be determined.
 Excited State   3:      Singlet-?Sym    4.4851 eV  276.43 nm  f=0.0022  <S**2>=0.000
      60 -> 61         0.70342

 Excited state symmetry could not be determined.
 Excited State   4:      Singlet-?Sym    5.0659 eV  244.74 nm  f=0.0440  <S**2>=0.000
      57 -> 62        -0.10537
      58 -> 62        -0.26304
      59 -> 61         0.61869
      60 -> 62         0.17447

 Alpha  occ. eigenvalues --  -89.08754 -24.71899 -19.12973 -19.12940 -14.33807
 Alpha  occ. eigenvalues --  -10.28883 -10.24042 -10.23490 -10.22928 -10.21571
 Alpha  occ. eigenvalues --  -10.21497 -10.20989 -10.20857 -10.18903 -10.18870
 Alpha  occ. eigenvalues --   -8.11623  -6.08047  -6.08005  -6.07939  -1.23009
 Alpha  occ. eigenvalues --   -1.08802  -0.98416  -0.92470  -0.87862  -0.82458
 Alpha  occ. eigenvalues --   -0.78903  -0.76867  -0.75471  -0.66808  -0.63947
 Alpha  occ. eigenvalues --   -0.61146  -0.59982  -0.57761  -0.53876  -0.51817
 Alpha  occ. eigenvalues --   -0.50735  -0.49456  -0.49106  -0.48518  -0.47428
 Alpha  occ. eigenvalues --   -0.46672  -0.46087  -0.45417  -0.42992  -0.42302
 Alpha  occ. eigenvalues --   -0.41230  -0.40574  -0.39304  -0.37766  -0.37230
 Alpha  occ. eigenvalues --   -0.36646  -0.33271  -0.32387  -0.30810  -0.30032
 Alpha  occ. eigenvalues --   -0.28533  -0.28022  -0.27386  -0.25915  -0.24115
 Alpha virt. eigenvalues --   -0.04500  -0.01684   0.05527   0.07178   0.09022
 Alpha virt. eigenvalues --    0.09348   0.10295   0.11000   0.11232   0.12187
 Alpha virt. eigenvalues --    0.12569   0.13495   0.14241   0.15395   0.15695

 Mulliken charges:
               1
     1  C   -0.654723
     2  S    1.134360
     3  O   -0.543182
     4  O   -0.540861
     5  C   -0.230434
     6  C   -0.158873
     7  C   -0.122481
     8  C   -0.184692
     9  C    0.343625
    10  F   -0.289997
    11  C    0.056765
    12  C    0.134357
    13  N   -0.732248
    14  C   -0.330593
    15  C   -0.299101
    16  H    0.207458
    17  H    0.194086
    18  H    0.251391
    19  H    0.197027
    20  H    0.151875
    21  H    0.156506
    22  H    0.309341
    23  H    0.306203
    24  H    0.142329
    25  H    0.159655
    26  H    0.188704
    27  H    0.153502
 Sum of Mulliken charges =  -0.00000

 Dipole moment (field-independent basis, Debye):
    X=             -1.7072    Y=              2.0020    Z=              4.0674  Tot=              4.8442
 Quadrupole moment (field-independent basis, Debye-Ang):
   XX=            -94.3143   YY=            -86.9137   ZZ=            -98.5004
   XY=              7.8226   XZ=              4.0590   YZ=             -9.5028

 Normal termination of Gaussian 16 at Sat Nov  5 11:12:15 2022.
