 Gaussian 16, Revision B.01,
 Gaussian 16:  ES64L-G16RevB.01 20-Dec-2017

 -----------------------------
 #p b3lyp/6-31g(d) opt SCF=XQC
 -----------------------------

 ------------------------------
 Gaussian input prepared by ASE
 ------------------------------
 Symbolic Z-matrix:
 Charge =  0 Multiplicity = 1

 SCF Done:  E(RB3LYP) =  -1297.95695261     A.U. after   15 cycles
 SCF Done:  E(RB3LYP) =  -1297.96201630     A.U. after   12 cycles
 SCF Done:  E(RB3LYP) =  -1297.96270754     A.U. after   11 cycles
 SCF Done:  E(RB3LYP) =  -1297.96290483     A.U. after   11 cycles
 SCF Done:  E(RB3LYP) =  -1297.96304645     A.U. after   10 cycles
 SCF Done:  E(RB3LYP) =  -1297.96307587     A.U. after   10 cycles
 SCF Done:  E(RB3LYP) =  -1297.96308367     A.U. after    9 cycles
 SCF Done:  E(RB3LYP) =  -1297.96308958     A.U. after    9 cycles
 SCF Done:  E(RB3LYP) =  -1297.96309178     A.U. after    9 cycles
 SCF Done:  E(RB3LYP) =  -1297.96309230     A.U. after    8 cycles
 SCF Done:  E(RB3LYP) =  -1297.96317706     A.U. after   12 cycles
 SCF Done:  E(RB3LYP) =  -1297.96319471     A.U. after   11 cycles
 SCF Done:  E(RB3LYP) =  -1297.96167918     A.U. after   12 cycles
 SCF Done:  E(RB3LYP) =  -1297.96322129     A.U. after   11 cycles
 SCF Done:  E(RB3LYP) =  -1297.96322380     A.U. after   10 cycles
 SCF Done:  E(RB3LYP) =  -1297.96322541     A.U. after   10 cycles
 SCF Done:  E(RB3LYP) =  -1297.96322576     A.U. after    8 cycles
 SCF Done:  E(RB3LYP) =  -1297.96322594     A.U. after    7 cycles
 SCF Done:  E(RB3LYP) =  -1297.96322603     A.U. after    7 cycles
 SCF Done:  E(RB3LYP) =  -1297.96322605     A.U. after    6 cycles
 Optimization completed.
    -- Stationary point found.

                         Standard orientation:
 ---------------------------------------------------------------------
 Center     Atomic      Atomic             Coordinates (Angstroms)
 Number     Number       Type             X           Y           Z
 ---------------------------------------------------------------------
      1          6           0        6.747076   -1.431026    1.284054
      2          6           0        6.687087   -0.402021    0.150018
      3          6           0        7.461870   -0.858171   -1.090918
      4          6           0        7.188536    0.962928    0.629613
      5          8           0        5.286128   -0.121702   -0.203545
      6          6           0        4.487624   -1.099569   -0.706110
      7          8           0        4.795320   -2.268706   -0.862697
      8          7           0        3.259778   -0.593133   -1.053231
      9          6           0        2.757842    0.723736   -0.702076
     10          6           0        2.155501    0.778734    0.711706
     11          6           0        1.678176    2.174806    1.120521
     12          7           0        0.565785    2.553901    0.257302
     13          6           0       -0.441488    1.592328    0.128568
     14          6           0       -1.736516    1.894710   -0.283850
     15          6           0       -2.686873    0.874628   -0.437659
     16          7           0       -3.969812    1.231882   -0.906663
     17          6           0       -5.220546    0.684036   -0.691014
     18          8           0       -6.225287    1.222913   -1.124877
     19          8           0       -5.159220   -0.455816    0.018671
     20          6           0       -6.389726   -1.187820    0.384968
     21          6           0       -7.276719   -0.305369    1.268726
     22          6           0       -5.842464   -2.376186    1.179169
     23          6           0       -7.110745   -1.661784   -0.880503
     24          6           0       -2.281253   -0.436905   -0.163771
     25          7           0       -1.040613   -0.733164    0.243398
     26          6           0       -0.153297    0.230883    0.385757
     27          8           0        1.083860   -0.172039    0.827157
     28          1           0        7.784209   -1.551530    1.617182
     29          1           0        6.366416   -2.398346    0.953948
     30          1           0        6.153638   -1.089590    2.139780
     31          1           0        8.525694   -0.953445   -0.845495
     32          1           0        7.363212   -0.119248   -1.893964
     33          1           0        7.094844   -1.820969   -1.449066
     34          1           0        6.605557    1.309765    1.489477
     35          1           0        7.106251    1.708514   -0.168211
     36          1           0        8.238976    0.893401    0.930945
     37          1           0        2.577123   -1.316529   -1.236155
     38          1           0        3.580371    1.438240   -0.774948
     39          1           0        2.000297    1.011600   -1.437259
     40          1           0        2.909268    0.432575    1.424801
     41          1           0        2.490564    2.898460    0.996778
     42          1           0        1.399645    2.152445    2.186617
     43          1           0        0.225542    3.498498    0.395838
     44          1           0       -2.009616    2.930306   -0.479744
     45          1           0       -4.045019    2.122843   -1.378881
     46          1           0       -7.653165    0.555474    0.714250
     47          1           0       -6.713809    0.049106    2.139226
     48          1           0       -8.128493   -0.891671    1.631312
     49          1           0       -6.669103   -3.002340    1.530808
     50          1           0       -5.272627   -2.032409    2.048149
     51          1           0       -5.184830   -2.991621    0.556657
     52          1           0       -7.954266   -2.303145   -0.601253
     53          1           0       -7.486793   -0.816939   -1.459198
     54          1           0       -6.431617   -2.249223   -1.508140
     55          1           0       -2.969159   -1.265460   -0.269947
 ---------------------------------------------------------------------

 The electronic state is 1-A.
 Alpha  occ. eigenvalues --  -19.18399 -19.17750 -19.17660 -19.11853 -19.10779
 Alpha  occ. eigenvalues --  -14.37420 -14.36382 -14.35326 -14.32502 -10.33754
 Alpha  occ. eigenvalues --  -10.32483 -10.27095 -10.25870 -10.25653 -10.25530
 Alpha  occ. eigenvalues --  -10.24126 -10.23946 -10.23934 -10.22773 -10.21107
 Alpha  occ. eigenvalues --  -10.20654 -10.18105 -10.17920 -10.17439 -10.17381
 Alpha  occ. eigenvalues --  -10.17130 -10.17117  -1.09934  -1.08837  -1.07331
 Alpha  occ. eigenvalues --   -1.00997  -0.99893  -0.95434  -0.94443  -0.92711
 Alpha  occ. eigenvalues --   -0.91833  -0.81168  -0.80599  -0.79935  -0.78384
 Alpha  occ. eigenvalues --   -0.73219  -0.69828  -0.69384  -0.69320  -0.69217
 Alpha  occ. eigenvalues --   -0.68923  -0.67082  -0.65259  -0.63724  -0.63182
 Alpha  occ. eigenvalues --   -0.59366  -0.56297  -0.54901  -0.53737  -0.52809
 Alpha  occ. eigenvalues --   -0.51751  -0.50498  -0.50181  -0.49555  -0.48298
 Alpha  occ. eigenvalues --   -0.47540  -0.47050  -0.46161  -0.46011  -0.45571
 Alpha  occ. eigenvalues --   -0.45483  -0.44516  -0.44203  -0.44005  -0.43625
 Alpha  occ. eigenvalues --   -0.43080  -0.42579  -0.42023  -0.41134  -0.40919
 Alpha  occ. eigenvalues --   -0.40343  -0.40012  -0.39134  -0.39008  -0.38726
 Alpha  occ. eigenvalues --   -0.38150  -0.38037  -0.36824  -0.36688  -0.35544
 Alpha  occ. eigenvalues --   -0.35390  -0.35238  -0.34826  -0.34018  -0.33511
 Alpha  occ. eigenvalues --   -0.33333  -0.32986  -0.32408  -0.29826  -0.29075
 Alpha  occ. eigenvalues --   -0.28690  -0.27076  -0.25927  -0.25844  -0.24930
 Alpha  occ. eigenvalues --   -0.23633  -0.19833
 Alpha virt. eigenvalues --   -0.01746   0.00432   0.05572   0.06056   0.06210
 Alpha virt. eigenvalues --    0.07558   0.08042   0.08635   0.09299   0.10225
 Alpha virt. eigenvalues --    0.10640   0.11676   0.12015   0.12342   0.13078

 Mulliken charges:
               1
     1  C   -0.464840
     2  C    0.320631
     3  C   -0.466993
     4  C   -0.451140
     5  O   -0.526948
     6  C    0.793604
     7  O   -0.524113
     8  N   -0.609297
     9  C   -0.137428
    10  C    0.107842
    11  C   -0.158400
    12  N   -0.666233
    13  C    0.318252
    14  C   -0.233483
    15  C    0.342756
    16  N   -0.747249
    17  C    0.799185
    18  O   -0.522711
    19  O   -0.508115
    20  C    0.314438
    21  C   -0.468362
    22  C   -0.454633
    23  C   -0.466411
    24  C   -0.003439
    25  N   -0.488555
    26  C    0.467801
    27  O   -0.500476
    28  H    0.140163
    29  H    0.193699
    30  H    0.141432
    31  H    0.140606
    32  H    0.145019
    33  H    0.192037
    34  H    0.145760
    35  H    0.149964
    36  H    0.147236
    37  H    0.349548
    38  H    0.170444
    39  H    0.171414
    40  H    0.159610
    41  H    0.155972
    42  H    0.156105
    43  H    0.319141
    44  H    0.126564
    45  H    0.341231
    46  H    0.188509
    47  H    0.148587
    48  H    0.143713
    49  H    0.146985
    50  H    0.159438
    51  H    0.157550
    52  H    0.143452
    53  H    0.189453
    54  H    0.148691
    55  H    0.161996
 Sum of Mulliken charges =  -0.00000

 Dipole moment (field-independent basis, Debye):
    X=              0.9750    Y=              4.9008    Z=              1.8621  Tot=              5.3326
 Quadrupole moment (field-independent basis, Debye-Ang):
   XX=           -155.4748   YY=           -153.9146   ZZ=           -160.0620
   XY=             22.5365   XZ=             -0.2362   YZ=              1.3815

 Normal termination of Gaussian 16 at Fri Nov  4 19:19:34 2022.
