 Gaussian 16, Revision B.01,
 Gaussian 16:  ES64L-G16RevB.01 20-Dec-2017

 -------------------------------------------------------------------
 #p b3lyp/6-31g(d) 6D 10F nosymm GFInput td=(50-50,nstate=2) SCF=XQC
 -------------------------------------------------------------------

 ------------------------------
 Gaussian input prepared by ASE
 ------------------------------
 Symbolic Z-matrix:
 Charge =  0 Multiplicity = 1

                          Input orientation:
 ---------------------------------------------------------------------
 Center     Atomic      Atomic             Coordinates (Angstroms)
 Number     Number       Type             X           Y           Z
 ---------------------------------------------------------------------
      1          6           0       -6.495108    0.091785    2.302402
      2          6           0       -6.367925    1.119595    1.172835
      3          6           0       -6.873912    2.505319    1.587597
      4          6           0       -7.091584    0.633727   -0.086052
      5          8           0       -4.968828    1.205821    0.724098
      6          6           0       -3.993959    1.634700    1.567957
      7          8           0       -4.138087    1.927646    2.742473
      8          7           0       -2.791122    1.727612    0.912880
      9          6           0       -2.504945    1.199283   -0.409377
     10          6           0       -2.150823   -0.297036   -0.393744
     11          6           0       -1.907095   -0.883634   -1.786756
     12          7           0       -0.719060   -0.254494   -2.351584
     13          6           0        0.397765   -0.229895   -1.510221
     14          6           0        1.700117   -0.069299   -1.975744
     15          6           0        2.771839   -0.005979   -1.073078
     16          7           0        4.065355    0.208230   -1.596967
     17          6           0        5.318066   -0.177815   -1.158033
     18          8           0        6.312671    0.036205   -1.831148
     19          8           0        5.271145   -0.780331    0.042571
     20          6           0        6.500301   -1.297304    0.679798
     21          6           0        7.126275   -2.382868   -0.201231
     22          6           0        5.968794   -1.895876    1.984282
     23          6           0        7.466487   -0.142855    0.962036
     24          6           0        2.477748   -0.108612    0.291707
     25          7           0        1.228871   -0.273837    0.745301
     26          6           0        0.227129   -0.332590   -0.109125
     27          8           0       -1.011864   -0.524166    0.452953
     28          1           0       -7.552303   -0.048600    2.554930
     29          1           0       -5.959062    0.422168    3.192953
     30          1           0       -6.091233   -0.875922    1.983901
     31          1           0       -7.945845    2.453812    1.809720
     32          1           0       -6.729942    3.222746    0.772002
     33          1           0       -6.347177    2.865257    2.472443
     34          1           0       -6.699245   -0.336649   -0.408490
     35          1           0       -6.965265    1.348340   -0.906151
     36          1           0       -8.162404    0.523098    0.114364
     37          1           0       -2.010554    1.843572    1.545374
     38          1           0       -3.379983    1.359277   -1.042693
     39          1           0       -1.675262    1.770271   -0.836969
     40          1           0       -2.966627   -0.842668    0.089212
     41          1           0       -2.764948   -0.676080   -2.434809
     42          1           0       -1.805053   -1.977108   -1.694344
     43          1           0       -0.514743   -0.518716   -3.308487
     44          1           0        1.882773   -0.000175   -3.046852
     45          1           0        4.115336    0.593451   -2.530541
     46          1           0        7.488314   -1.966307   -1.142301
     47          1           0        6.392834   -3.167612   -0.416941
     48          1           0        7.968358   -2.841958    0.328740
     49          1           0        6.792521   -2.336957    2.555222
     50          1           0        5.230018   -2.677148    1.779717
     51          1           0        5.494976   -1.126032    2.602020
     52          1           0        8.320259   -0.514595    1.539734
     53          1           0        7.833883    0.298747    0.034636
     54          1           0        6.969273    0.633646    1.553690
     55          1           0        3.262845   -0.061187    1.034920
 ---------------------------------------------------------------------

 SCF Done:  E(RB3LYP) =  -1297.96322189     A.U. after   15 cycles

 Excitation energies and oscillator strengths:

 Excited state symmetry could not be determined.
 Excited State   1:      Triplet-?Sym    3.3010 eV  375.60 nm  f=0.0000  <S**2>=2.000
     101 ->103        -0.12548
     102 ->103         0.65078
     102 ->104        -0.22758
 This state for optimization and/or second-order correction.
 Total Energy, E(TD-HF/TD-DFT) =  -1297.84191404
 Copying the excited state density for this state as the 1-particle RhoCI density.

 Excited state symmetry could not be determined.
 Excited State   2:      Triplet-?Sym    3.4822 eV  356.05 nm  f=0.0000  <S**2>=2.000
     101 ->103         0.26306
     102 ->103         0.26440
     102 ->104         0.55882

 Excited state symmetry could not be determined.
 Excited State   3:      Singlet-?Sym    4.3613 eV  284.28 nm  f=0.1963  <S**2>=0.000
     101 ->104        -0.16663
     102 ->103         0.67613

 Excited state symmetry could not be determined.
 Excited State   4:      Singlet-?Sym    5.1267 eV  241.84 nm  f=0.1187  <S**2>=0.000
     101 ->103         0.25103
     102 ->104         0.64977

 Alpha  occ. eigenvalues --  -19.18399 -19.17750 -19.17660 -19.11853 -19.10779
 Alpha  occ. eigenvalues --  -14.37419 -14.36382 -14.35326 -14.32502 -10.33754
 Alpha  occ. eigenvalues --  -10.32483 -10.27095 -10.25870 -10.25653 -10.25530
 Alpha  occ. eigenvalues --  -10.24126 -10.23946 -10.23934 -10.22773 -10.21107
 Alpha  occ. eigenvalues --  -10.20654 -10.18105 -10.17920 -10.17439 -10.17381
 Alpha  occ. eigenvalues --  -10.17130 -10.17117  -1.09934  -1.08837  -1.07331
 Alpha  occ. eigenvalues --   -1.00997  -0.99893  -0.95434  -0.94443  -0.92711
 Alpha  occ. eigenvalues --   -0.91833  -0.81168  -0.80599  -0.79935  -0.78384
 Alpha  occ. eigenvalues --   -0.73219  -0.69828  -0.69384  -0.69320  -0.69217
 Alpha  occ. eigenvalues --   -0.68923  -0.67082  -0.65259  -0.63724  -0.63182
 Alpha  occ. eigenvalues --   -0.59366  -0.56297  -0.54901  -0.53737  -0.52809
 Alpha  occ. eigenvalues --   -0.51751  -0.50498  -0.50181  -0.49555  -0.48298
 Alpha  occ. eigenvalues --   -0.47540  -0.47050  -0.46161  -0.46011  -0.45571
 Alpha  occ. eigenvalues --   -0.45483  -0.44516  -0.44203  -0.44005  -0.43625
 Alpha  occ. eigenvalues --   -0.43080  -0.42579  -0.42023  -0.41134  -0.40919
 Alpha  occ. eigenvalues --   -0.40343  -0.40012  -0.39134  -0.39008  -0.38726
 Alpha  occ. eigenvalues --   -0.38150  -0.38037  -0.36824  -0.36688  -0.35544
 Alpha  occ. eigenvalues --   -0.35390  -0.35238  -0.34826  -0.34017  -0.33511
 Alpha  occ. eigenvalues --   -0.33333  -0.32986  -0.32408  -0.29826  -0.29075
 Alpha  occ. eigenvalues --   -0.28690  -0.27076  -0.25927  -0.25844  -0.24930
 Alpha  occ. eigenvalues --   -0.23633  -0.19833
 Alpha virt. eigenvalues --   -0.01746   0.00432   0.05572   0.06056   0.06210
 Alpha virt. eigenvalues --    0.07558   0.08042   0.08635   0.09299   0.10225
 Alpha virt. eigenvalues --    0.10640   0.11676   0.12015   0.12342   0.13078

 Mulliken charges:
               1
     1  C   -0.464840
     2  C    0.320637
     3  C   -0.466972
     4  C   -0.451156
     5  O   -0.526951
     6  C    0.793598
     7  O   -0.524105
     8  N   -0.609301
     9  C   -0.137432
    10  C    0.107846
    11  C   -0.158392
    12  N   -0.666225
    13  C    0.318218
    14  C   -0.233466
    15  C    0.342756
    16  N   -0.747264
    17  C    0.799207
    18  O   -0.522713
    19  O   -0.508118
    20  C    0.314411
    21  C   -0.468361
    22  C   -0.454621
    23  C   -0.466395
    24  C   -0.003438
    25  N   -0.488561
    26  C    0.467816
    27  O   -0.500476
    28  H    0.140163
    29  H    0.193698
    30  H    0.141428
    31  H    0.140602
    32  H    0.145015
    33  H    0.192033
    34  H    0.145764
    35  H    0.149967
    36  H    0.147238
    37  H    0.349550
    38  H    0.170445
    39  H    0.171416
    40  H    0.159611
    41  H    0.155967
    42  H    0.156102
    43  H    0.319141
    44  H    0.126564
    45  H    0.341231
    46  H    0.188510
    47  H    0.148589
    48  H    0.143715
    49  H    0.146983
    50  H    0.159438
    51  H    0.157550
    52  H    0.143450
    53  H    0.189450
    54  H    0.148689
    55  H    0.161988
 Sum of Mulliken charges =  -0.00000

 Dipole moment (field-independent basis, Debye):
    X=             -1.8119    Y=             -2.0238    Z=             -4.5888  Tot=              5.3325
 Quadrupole moment (field-independent basis, Debye-Ang):
   XX=           -151.2137   YY=           -160.5477   ZZ=           -159.5662
   XY=             -0.0751   XZ=             21.1724   YZ=             -2.7274

 Normal termination of Gaussian 16 at Sat Nov  5 11:21:34 2022.
