 Gaussian 16, Revision B.01,
 Gaussian 16:  ES64L-G16RevB.01 20-Dec-2017

 -------------------------------------------------------------------
 #p b3lyp/6-31g(d) 6D 10F nosymm GFInput td=(50-50,nstate=2) SCF=XQC
 -------------------------------------------------------------------

 ------------------------------
 Gaussian input prepared by ASE
 ------------------------------
 Symbolic Z-matrix:
 Charge =  0 Multiplicity = 1

                          Input orientation:
 ---------------------------------------------------------------------
 Center     Atomic      Atomic             Coordinates (Angstroms)
 Number     Number       Type             X           Y           Z
 ---------------------------------------------------------------------
      1          6           0       -4.831237    1.017657    1.467791
      2          6           0       -4.299571   -0.270994    0.830287
      3          6           0       -5.447122   -1.177437    0.374336
      4          8           0       -6.624476   -0.921715    0.475438
      5          8           0       -4.985871   -2.351503   -0.118374
      6          7           0       -3.330295   -0.057013   -0.256785
      7          6           0       -1.961185   -0.181844   -0.073130
      8          8           0       -1.196752   -0.154309   -1.030111
      9          6           0       -1.433799   -0.323221    1.359871
     10          6           0        0.096388   -0.237947    1.443170
     11          6           0        0.808941   -1.498914    0.910180
     12          6           0        2.288505   -1.443334    1.078985
     13          7           0        3.045905   -2.154419    1.862343
     14          6           0        4.327823   -1.680000    1.636912
     15          6           0        4.299484   -0.676625    0.710334
     16          6           0        5.293582    0.181218    0.081808
     17          6           0        4.923458    1.120402   -0.896517
     18          6           0        5.884556    1.935080   -1.491587
     19          6           0        7.227311    1.829465   -1.124882
     20          6           0        7.603691    0.898271   -0.153038
     21          6           0        6.648969    0.082212    0.445899
     22          8           0        2.977926   -0.521022    0.347406
     23          6           0       -3.780693   -0.010732   -1.634324
     24          6           0       -3.532363    1.212249   -2.468816
     25          6           0       -4.939239    0.867391   -2.052986
     26          1           0       -3.994729    1.645900    1.787984
     27          1           0       -5.451057    1.588348    0.774114
     28          1           0       -5.446077    0.779941    2.341118
     29          1           0       -3.793264   -0.851796    1.607128
     30          1           0       -5.773800   -2.870093   -0.368917
     31          1           0       -1.879381    0.455385    1.991793
     32          1           0       -1.768790   -1.282521    1.780737
     33          1           0        0.443689    0.635367    0.882424
     34          1           0        0.376879   -0.087852    2.492823
     35          1           0        0.463910   -2.387029    1.450061
     36          1           0        0.559504   -1.620572   -0.148492
     37          1           0        5.179372   -2.097209    2.155373
     38          1           0        3.881290    1.204157   -1.186168
     39          1           0        5.581209    2.655370   -2.246757
     40          1           0        7.974507    2.465814   -1.590932
     41          1           0        8.646123    0.807833    0.140566
     42          1           0        6.953551   -0.636160    1.201897
     43          1           0       -3.691183   -0.965829   -2.147792
     44          1           0       -3.058639    2.055708   -1.976781
     45          1           0       -3.225280    1.062067   -3.499204
     46          1           0       -5.417228    1.503310   -1.317080
     47          1           0       -5.624544    0.456942   -2.789167
 ---------------------------------------------------------------------

 SCF Done:  E(RB3LYP) =  -1147.65606983     A.U. after   15 cycles

 Excitation energies and oscillator strengths:

 Excited state symmetry could not be determined.
 Excited State   1:      Triplet-?Sym    2.8493 eV  435.14 nm  f=0.0000  <S**2>=2.000
      89 -> 94        -0.15975
      91 -> 92         0.67800
 This state for optimization and/or second-order correction.
 Total Energy, E(TD-HF/TD-DFT) =  -1147.55135934
 Copying the excited state density for this state as the 1-particle RhoCI density.

 Excited state symmetry could not be determined.
 Excited State   2:      Triplet-?Sym    4.1036 eV  302.13 nm  f=0.0000  <S**2>=2.000
      86 -> 92        -0.31377
      89 -> 94         0.46007
      91 -> 92         0.10165
      91 -> 94         0.24626
      91 -> 96        -0.28878

 Excited state symmetry could not be determined.
 Excited State   3:      Singlet-?Sym    4.5679 eV  271.43 nm  f=0.6610  <S**2>=0.000
      91 -> 92         0.70057

 Excited state symmetry could not be determined.
 Excited State   4:      Singlet-?Sym    4.7726 eV  259.78 nm  f=0.0069  <S**2>=0.000
      89 -> 92         0.38603
      91 -> 94         0.58516

 Alpha  occ. eigenvalues --  -19.21429 -19.21178 -19.15647 -19.11673 -14.37298
 Alpha  occ. eigenvalues --  -14.31959 -10.33646 -10.29017 -10.26656 -10.25712
 Alpha  occ. eigenvalues --  -10.24128 -10.22896 -10.20558 -10.20553 -10.20515
 Alpha  occ. eigenvalues --  -10.19684 -10.19435 -10.19277 -10.19219 -10.19219
 Alpha  occ. eigenvalues --  -10.19076 -10.18991 -10.18976 -10.18899 -10.18843
 Alpha  occ. eigenvalues --   -1.12126  -1.11969  -1.03758  -1.03149  -0.94563
 Alpha  occ. eigenvalues --   -0.90904  -0.85726  -0.85385  -0.81286  -0.78497
 Alpha  occ. eigenvalues --   -0.78099  -0.74531  -0.74445  -0.70191  -0.69072
 Alpha  occ. eigenvalues --   -0.64707  -0.63140  -0.61622  -0.61079  -0.60421
 Alpha  occ. eigenvalues --   -0.59296  -0.58525  -0.55717  -0.55238  -0.53066
 Alpha  occ. eigenvalues --   -0.52689  -0.51131  -0.50228  -0.49489  -0.49090
 Alpha  occ. eigenvalues --   -0.47421  -0.47010  -0.46469  -0.45616  -0.44553
 Alpha  occ. eigenvalues --   -0.44449  -0.44028  -0.42774  -0.42294  -0.42253
 Alpha  occ. eigenvalues --   -0.42006  -0.41643  -0.40799  -0.40343  -0.38822
 Alpha  occ. eigenvalues --   -0.38728  -0.37732  -0.37161  -0.36879  -0.36511
 Alpha  occ. eigenvalues --   -0.36060  -0.35281  -0.34856  -0.34558  -0.34085
 Alpha  occ. eigenvalues --   -0.33540  -0.31124  -0.30880  -0.30129  -0.29436
 Alpha  occ. eigenvalues --   -0.27945  -0.27675  -0.25310  -0.25035  -0.24402
 Alpha  occ. eigenvalues --   -0.20633
 Alpha virt. eigenvalues --   -0.03019  -0.01149   0.00051   0.01897   0.03536
 Alpha virt. eigenvalues --    0.06091   0.07062   0.08430   0.09198   0.09351
 Alpha virt. eigenvalues --    0.10240   0.10728   0.11948   0.12615   0.12824

 Mulliken charges:
               1
     1  C   -0.441424
     2  C   -0.038784
     3  C    0.586833
     4  O   -0.459435
     5  O   -0.564407
     6  N   -0.457240
     7  C    0.608516
     8  O   -0.502902
     9  C   -0.395180
    10  C   -0.256517
    11  C   -0.347451
    12  C    0.508375
    13  N   -0.459894
    14  C   -0.076238
    15  C    0.291672
    16  C    0.083320
    17  C   -0.175950
    18  C   -0.131254
    19  C   -0.126382
    20  C   -0.137747
    21  C   -0.170814
    22  O   -0.474922
    23  C    0.034291
    24  C   -0.292126
    25  C   -0.339195
    26  H    0.152505
    27  H    0.173422
    28  H    0.163543
    29  H    0.177934
    30  H    0.414710
    31  H    0.164785
    32  H    0.168424
    33  H    0.169109
    34  H    0.143151
    35  H    0.162249
    36  H    0.197445
    37  H    0.147461
    38  H    0.153268
    39  H    0.132796
    40  H    0.130289
    41  H    0.131705
    42  H    0.132333
    43  H    0.165897
    44  H    0.163393
    45  H    0.161698
    46  H    0.167792
    47  H    0.160949
 Sum of Mulliken charges =  -0.00000

 Dipole moment (field-independent basis, Debye):
    X=             -1.8031    Y=              0.6928    Z=              0.3510  Tot=              1.9633
 Quadrupole moment (field-independent basis, Debye-Ang):
   XX=           -134.2193   YY=           -141.9328   ZZ=           -143.1488
   XY=             11.0131   XZ=              0.2955   YZ=              1.1933

 Normal termination of Gaussian 16 at Sat Nov  5 11:19:56 2022.
