 Gaussian 16, Revision B.01,
 Gaussian 16:  ES64L-G16RevB.01 20-Dec-2017

 -----------------------------
 #p b3lyp/6-31g(d) opt SCF=XQC
 -----------------------------

 ------------------------------
 Gaussian input prepared by ASE
 ------------------------------
 Symbolic Z-matrix:
 Charge =  0 Multiplicity = 1

 SCF Done:  E(RB3LYP) =  -1147.64807803     A.U. after   15 cycles
 SCF Done:  E(RB3LYP) =  -1147.65430744     A.U. after   13 cycles
 SCF Done:  E(RB3LYP) =  -1147.65413341     A.U. after   13 cycles
 SCF Done:  E(RB3LYP) =  -1147.65511970     A.U. after   12 cycles
 SCF Done:  E(RB3LYP) =  -1147.65563236     A.U. after   11 cycles
 SCF Done:  E(RB3LYP) =  -1147.65573068     A.U. after   11 cycles
 SCF Done:  E(RB3LYP) =  -1147.65582878     A.U. after   11 cycles
 SCF Done:  E(RB3LYP) =  -1147.65588491     A.U. after   11 cycles
 SCF Done:  E(RB3LYP) =  -1147.65593707     A.U. after   11 cycles
 SCF Done:  E(RB3LYP) =  -1147.65603032     A.U. after   11 cycles
 SCF Done:  E(RB3LYP) =  -1147.65606835     A.U. after    8 cycles
 SCF Done:  E(RB3LYP) =  -1147.65605733     A.U. after   11 cycles
 SCF Done:  E(RB3LYP) =  -1147.65607410     A.U. after   10 cycles
 SCF Done:  E(RB3LYP) =  -1147.65607459     A.U. after    9 cycles
 SCF Done:  E(RB3LYP) =  -1147.65607466     A.U. after    7 cycles
 SCF Done:  E(RB3LYP) =  -1147.65607468     A.U. after    6 cycles
 SCF Done:  E(RB3LYP) =  -1147.65607471     A.U. after    6 cycles
 SCF Done:  E(RB3LYP) =  -1147.65607473     A.U. after    6 cycles
 SCF Done:  E(RB3LYP) =  -1147.65607474     A.U. after    6 cycles
 SCF Done:  E(RB3LYP) =  -1147.65607475     A.U. after    6 cycles
 Optimization completed.
    -- Stationary point found.

                         Standard orientation:
 ---------------------------------------------------------------------
 Center     Atomic      Atomic             Coordinates (Angstroms)
 Number     Number       Type             X           Y           Z
 ---------------------------------------------------------------------
      1          6           0       -4.859319   -0.109755    2.114592
      2          6           0       -4.420514   -0.509254    0.701243
      3          6           0       -5.630357   -0.744197   -0.208419
      4          8           0       -6.787543   -0.617505    0.118151
      5          8           0       -5.251942   -1.173142   -1.435919
      6          7           0       -3.461309    0.416904    0.077410
      7          6           0       -2.099154    0.160496    0.026795
      8          8           0       -1.353300    0.870859   -0.636540
      9          6           0       -1.553600   -1.014506    0.847379
     10          6           0       -0.019731   -1.060301    0.876252
     11          6           0        0.603327   -1.523932   -0.457425
     12          6           0        2.086519   -1.651841   -0.390537
     13          7           0        2.813866   -2.729554   -0.440009
     14          6           0        4.117907   -2.279281   -0.313762
     15          6           0        4.133293   -0.919316   -0.185828
     16          6           0        5.165844    0.094498   -0.027118
     17          6           0        4.835199    1.459238    0.038736
     18          6           0        5.832815    2.420224    0.189682
     19          6           0        7.173426    2.041088    0.277069
     20          6           0        7.510680    0.686338    0.212452
     21          6           0        6.519417   -0.278618    0.062687
     22          8           0        2.816986   -0.510199   -0.234837
     23          6           0       -3.934807    1.485120   -0.781267
     24          6           0       -3.628016    2.915722   -0.445135
     25          6           0       -5.045063    2.413503   -0.340767
     26          1           0       -3.979642    0.048876    2.745435
     27          1           0       -5.456262    0.803866    2.111622
     28          1           0       -5.470460   -0.902076    2.557276
     29          1           0       -3.935846   -1.488505    0.758900
     30          1           0       -6.075033   -1.311739   -1.941736
     31          1           0       -1.937999   -0.953478    1.873346
     32          1           0       -1.938717   -1.958978    0.435965
     33          1           0        0.369647   -0.069414    1.129744
     34          1           0        0.289900   -1.748905    1.671820
     35          1           0        0.214895   -2.509226   -0.735965
     36          1           0        0.326259   -0.810467   -1.239732
     37          1           0        4.952122   -2.966231   -0.327462
     38          1           0        3.794706    1.758439   -0.031127
     39          1           0        5.559691    3.471024    0.238088
     40          1           0        7.949130    2.792735    0.394354
     41          1           0        8.551101    0.379728    0.279978
     42          1           0        6.793908   -1.328787    0.016185
     43          1           0       -3.914286    1.227625   -1.838218
     44          1           0       -3.093767    3.099699    0.481508
     45          1           0       -3.350927    3.574302   -1.262478
     46          1           0       -5.468555    2.302782    0.650606
     47          1           0       -5.768569    2.705816   -1.096524
 ---------------------------------------------------------------------

 The electronic state is 1-A.
 Alpha  occ. eigenvalues --  -19.21429 -19.21178 -19.15647 -19.11673 -14.37298
 Alpha  occ. eigenvalues --  -14.31959 -10.33646 -10.29017 -10.26656 -10.25712
 Alpha  occ. eigenvalues --  -10.24128 -10.22896 -10.20558 -10.20554 -10.20515
 Alpha  occ. eigenvalues --  -10.19684 -10.19435 -10.19277 -10.19219 -10.19219
 Alpha  occ. eigenvalues --  -10.19076 -10.18991 -10.18976 -10.18899 -10.18843
 Alpha  occ. eigenvalues --   -1.12126  -1.11969  -1.03758  -1.03149  -0.94563
 Alpha  occ. eigenvalues --   -0.90904  -0.85726  -0.85385  -0.81286  -0.78497
 Alpha  occ. eigenvalues --   -0.78099  -0.74531  -0.74445  -0.70191  -0.69072
 Alpha  occ. eigenvalues --   -0.64707  -0.63140  -0.61622  -0.61079  -0.60421
 Alpha  occ. eigenvalues --   -0.59296  -0.58525  -0.55717  -0.55238  -0.53066
 Alpha  occ. eigenvalues --   -0.52689  -0.51131  -0.50228  -0.49489  -0.49090
 Alpha  occ. eigenvalues --   -0.47421  -0.47010  -0.46469  -0.45616  -0.44553
 Alpha  occ. eigenvalues --   -0.44449  -0.44028  -0.42774  -0.42294  -0.42253
 Alpha  occ. eigenvalues --   -0.42006  -0.41643  -0.40799  -0.40343  -0.38822
 Alpha  occ. eigenvalues --   -0.38728  -0.37732  -0.37161  -0.36879  -0.36511
 Alpha  occ. eigenvalues --   -0.36060  -0.35281  -0.34856  -0.34558  -0.34085
 Alpha  occ. eigenvalues --   -0.33540  -0.31124  -0.30880  -0.30129  -0.29436
 Alpha  occ. eigenvalues --   -0.27945  -0.27675  -0.25310  -0.25035  -0.24402
 Alpha  occ. eigenvalues --   -0.20633
 Alpha virt. eigenvalues --   -0.03019  -0.01149   0.00051   0.01897   0.03536
 Alpha virt. eigenvalues --    0.06091   0.07062   0.08430   0.09198   0.09351
 Alpha virt. eigenvalues --    0.10240   0.10728   0.11948   0.12615   0.12824

 Mulliken charges:
               1
     1  C   -0.441423
     2  C   -0.038783
     3  C    0.586824
     4  O   -0.459432
     5  O   -0.564400
     6  N   -0.457248
     7  C    0.608492
     8  O   -0.502891
     9  C   -0.395168
    10  C   -0.256516
    11  C   -0.347453
    12  C    0.508365
    13  N   -0.459884
    14  C   -0.076239
    15  C    0.291663
    16  C    0.083293
    17  C   -0.175937
    18  C   -0.131252
    19  C   -0.126387
    20  C   -0.137757
    21  C   -0.170782
    22  O   -0.474917
    23  C    0.034307
    24  C   -0.292128
    25  C   -0.339197
    26  H    0.152505
    27  H    0.173421
    28  H    0.163542
    29  H    0.177934
    30  H    0.414709
    31  H    0.164783
    32  H    0.168421
    33  H    0.169106
    34  H    0.143152
    35  H    0.162248
    36  H    0.197446
    37  H    0.147462
    38  H    0.153266
    39  H    0.132796
    40  H    0.130290
    41  H    0.131706
    42  H    0.132332
    43  H    0.165898
    44  H    0.163392
    45  H    0.161699
    46  H    0.167792
    47  H    0.160948
 Sum of Mulliken charges =  -0.00000

 Dipole moment (field-independent basis, Debye):
    X=             -1.7498    Y=              0.2490    Z=              0.8546  Tot=              1.9632
 Quadrupole moment (field-independent basis, Debye-Ang):
   XX=           -132.4316   YY=           -144.0782   ZZ=           -142.0878
   XY=              6.5307   XZ=              7.6347   YZ=              0.0198

 Normal termination of Gaussian 16 at Fri Nov  4 18:36:35 2022.
