 Gaussian 16, Revision B.01,
 Gaussian 16:  ES64L-G16RevB.01 20-Dec-2017

 -----------------------------
 #p b3lyp/6-31g(d) opt SCF=XQC
 -----------------------------

 ------------------------------
 Gaussian input prepared by ASE
 ------------------------------
 Symbolic Z-matrix:
 Charge =  0 Multiplicity = 1

 SCF Done:  E(RB3LYP) =  -1550.41063710     A.U. after   15 cycles
 SCF Done:  E(RB3LYP) =  -1550.41690918     A.U. after   13 cycles
 SCF Done:  E(RB3LYP) =  -1550.41779095     A.U. after   12 cycles
 SCF Done:  E(RB3LYP) =  -1550.41839311     A.U. after   13 cycles
 SCF Done:  E(RB3LYP) =  -1550.41889509     A.U. after   12 cycles
 SCF Done:  E(RB3LYP) =  -1550.41958624     A.U. after   11 cycles
 SCF Done:  E(RB3LYP) =  -1550.42003970     A.U. after   12 cycles
 SCF Done:  E(RB3LYP) =  -1550.42024821     A.U. after   12 cycles
 SCF Done:  E(RB3LYP) =  -1550.42043525     A.U. after   11 cycles
 SCF Done:  E(RB3LYP) =  -1550.42066167     A.U. after   12 cycles
 SCF Done:  E(RB3LYP) =  -1550.42147417     A.U. after   11 cycles
 SCF Done:  E(RB3LYP) =  -1550.42148189     A.U. after   11 cycles
 SCF Done:  E(RB3LYP) =  -1550.42149529     A.U. after   10 cycles
 SCF Done:  E(RB3LYP) =  -1550.42150638     A.U. after   11 cycles
 SCF Done:  E(RB3LYP) =  -1550.42150752     A.U. after    7 cycles
 SCF Done:  E(RB3LYP) =  -1550.42150899     A.U. after    9 cycles
 SCF Done:  E(RB3LYP) =  -1550.42150945     A.U. after    9 cycles
 SCF Done:  E(RB3LYP) =  -1550.42150979     A.U. after    9 cycles
 SCF Done:  E(RB3LYP) =  -1550.42151010     A.U. after    9 cycles
 SCF Done:  E(RB3LYP) =  -1550.42151012     A.U. after    6 cycles
 Optimization completed.
    -- Stationary point found.

                         Standard orientation:
 ---------------------------------------------------------------------
 Center     Atomic      Atomic             Coordinates (Angstroms)
 Number     Number       Type             X           Y           Z
 ---------------------------------------------------------------------
      1          6           0        4.118247    2.638261   -1.264046
      2          6           0        3.285946    1.380064   -0.985718
      3          7           0        2.947358    1.186962    0.425098
      4          6           0        1.926457    2.103148    0.969826
      5          6           0        0.510239    1.763241    0.542902
      6          6           0       -0.177554    2.558943   -0.373291
      7          6           0       -1.482188    2.227496   -0.755812
      8          6           0       -2.107340    1.099899   -0.239495
      9          8           0       -3.359626    0.753441   -0.692572
     10          6           0       -4.427859    0.867349    0.267626
     11          6           0       -5.596155    0.061522   -0.196878
     12          6           0       -6.875677    0.487904   -0.437181
     13          6           0       -7.760479   -0.562582   -0.829022
     14          6           0       -7.135803   -1.777267   -0.887772
     15         16           0       -5.457559   -1.660071   -0.462781
     16          6           0       -1.414268    0.280674    0.683741
     17          8           0       -2.095342   -0.814498    1.134129
     18          6           0       -1.433492   -1.686022    2.041521
     19          6           0       -0.119560    0.622070    1.071230
     20          6           0        3.318507    0.121175    1.216045
     21          8           0        2.823583   -0.029495    2.336488
     22          6           0        4.336089   -0.924796    0.737937
     23          6           0        3.762515   -1.971653   -0.263644
     24          6           0        5.019109   -2.554582   -0.925656
     25          6           0        5.924270   -1.330173   -1.139818
     26          7           0        7.333279   -1.703617   -1.298885
     27          6           0        5.703295   -0.474048    0.131393
     28          1           0        3.585508    3.553355   -0.986260
     29          1           0        5.063791    2.621458   -0.712071
     30          1           0        4.344523    2.702449   -2.334640
     31          1           0        3.821452    0.504773   -1.347303
     32          1           0        2.348496    1.427547   -1.556726
     33          1           0        2.020137    2.061471    2.055545
     34          1           0        2.173075    3.118397    0.643826
     35          1           0        0.294030    3.448281   -0.784723
     36          1           0       -2.031004    2.832739   -1.471185
     37          1           0       -4.729771    1.920189    0.360721
     38          1           0       -4.075350    0.522051    1.245074
     39          1           0       -7.176130    1.526138   -0.336018
     40          1           0       -8.809107   -0.414836   -1.063944
     41          1           0       -7.556574   -2.732696   -1.172179
     42          1           0       -0.521533   -2.105869    1.599201
     43          1           0       -2.141748   -2.489603    2.250006
     44          1           0       -1.174123   -1.173152    2.976293
     45          1           0        0.429682    0.014924    1.781225
     46          1           0        4.546621   -1.460848    1.665953
     47          1           0        3.153608   -2.723641    0.247669
     48          1           0        3.118406   -1.500777   -1.015988
     49          1           0        5.529796   -3.245280   -0.242589
     50          1           0        4.804471   -3.097672   -1.853861
     51          1           0        5.534495   -0.773442   -2.014070
     52          1           0        7.447274   -2.251244   -2.151824
     53          1           0        7.898153   -0.864922   -1.431742
     54          1           0        5.755768    0.598188   -0.076509
     55          1           0        6.507818   -0.699589    0.839444
 ---------------------------------------------------------------------

 The electronic state is 1-A.
 Alpha  occ. eigenvalues --  -88.89716 -19.17788 -19.15689 -19.10160 -14.35908
 Alpha  occ. eigenvalues --  -14.31661 -10.27809 -10.24324 -10.24148 -10.23655
 Alpha  occ. eigenvalues --  -10.23390 -10.22654 -10.21622 -10.21476 -10.21054
 Alpha  occ. eigenvalues --  -10.20685 -10.19376 -10.19096 -10.18880 -10.18859
 Alpha  occ. eigenvalues --  -10.18681 -10.18603 -10.18358 -10.18355 -10.18249
 Alpha  occ. eigenvalues --  -10.18156 -10.17907  -7.95819  -5.92221  -5.91853
 Alpha  occ. eigenvalues --   -5.91527  -1.06610  -1.03803  -1.02206  -0.92551
 Alpha  occ. eigenvalues --   -0.89095  -0.87071  -0.84590  -0.82064  -0.77604
 Alpha  occ. eigenvalues --   -0.75993  -0.74927  -0.73994  -0.72459  -0.71976
 Alpha  occ. eigenvalues --   -0.70477  -0.69658  -0.68029  -0.65443  -0.64072
 Alpha  occ. eigenvalues --   -0.60179  -0.59137  -0.58216  -0.56722  -0.55463
 Alpha  occ. eigenvalues --   -0.54342  -0.53300  -0.52392  -0.50725  -0.50112
 Alpha  occ. eigenvalues --   -0.49886  -0.49374  -0.48788  -0.47624  -0.47198
 Alpha  occ. eigenvalues --   -0.46534  -0.46065  -0.44739  -0.44344  -0.43661
 Alpha  occ. eigenvalues --   -0.43095  -0.42395  -0.42138  -0.41823  -0.41630
 Alpha  occ. eigenvalues --   -0.40427  -0.39685  -0.39209  -0.38427  -0.38072
 Alpha  occ. eigenvalues --   -0.37642  -0.37036  -0.36596  -0.36455  -0.36158
 Alpha  occ. eigenvalues --   -0.35990  -0.35123  -0.34834  -0.34674  -0.33903
 Alpha  occ. eigenvalues --   -0.33147  -0.33115  -0.32732  -0.32301  -0.31860
 Alpha  occ. eigenvalues --   -0.31194  -0.27404  -0.24581  -0.24236  -0.23986
 Alpha  occ. eigenvalues --   -0.23234  -0.22967  -0.22415  -0.21087
 Alpha virt. eigenvalues --   -0.00917   0.00172   0.01408   0.02722   0.04336
 Alpha virt. eigenvalues --    0.06395   0.07159   0.08152   0.08679   0.09371
 Alpha virt. eigenvalues --    0.10003   0.10791   0.11145   0.11595   0.12038

 Mulliken charges:
               1
     1  C   -0.453769
     2  C   -0.155388
     3  N   -0.411615
     4  C   -0.253065
     5  C    0.164598
     6  C   -0.208004
     7  C   -0.177187
     8  C    0.322572
     9  O   -0.533978
    10  C   -0.083225
    11  C   -0.126324
    12  C   -0.125068
    13  C   -0.097800
    14  C   -0.347279
    15  S    0.264187
    16  C    0.359498
    17  O   -0.514603
    18  C   -0.218968
    19  C   -0.279062
    20  C    0.584367
    21  O   -0.536223
    22  C   -0.177338
    23  C   -0.287495
    24  C   -0.271177
    25  C    0.026047
    26  N   -0.723748
    27  C   -0.302561
    28  H    0.155050
    29  H    0.160417
    30  H    0.149188
    31  H    0.159584
    32  H    0.162109
    33  H    0.194010
    34  H    0.145420
    35  H    0.117544
    36  H    0.134754
    37  H    0.144321
    38  H    0.168979
    39  H    0.135574
    40  H    0.137742
    41  H    0.168573
    42  H    0.159372
    43  H    0.171327
    44  H    0.160268
    45  H    0.177904
    46  H    0.169777
    47  H    0.151843
    48  H    0.145949
    49  H    0.152859
    50  H    0.132103
    51  H    0.108958
    52  H    0.295419
    53  H    0.295242
    54  H    0.145957
    55  H    0.162366
 Sum of Mulliken charges =  -0.00000

 Dipole moment (field-independent basis, Debye):
    X=              1.3362    Y=              0.9991    Z=             -2.3299  Tot=              2.8656
 Quadrupole moment (field-independent basis, Debye-Ang):
   XX=           -150.9797   YY=           -156.5591   ZZ=           -169.8636
   XY=              5.2501   XZ=            -19.8353   YZ=             -0.9339

 Normal termination of Gaussian 16 at Fri Nov  4 18:59:34 2022.
