 Gaussian 16, Revision B.01,
 Gaussian 16:  ES64L-G16RevB.01 20-Dec-2017

 -------------------------------------------------------------------
 #p b3lyp/6-31g(d) 6D 10F nosymm GFInput td=(50-50,nstate=2) SCF=XQC
 -------------------------------------------------------------------

 ------------------------------
 Gaussian input prepared by ASE
 ------------------------------
 Symbolic Z-matrix:
 Charge =  0 Multiplicity = 1

                          Input orientation:
 ---------------------------------------------------------------------
 Center     Atomic      Atomic             Coordinates (Angstroms)
 Number     Number       Type             X           Y           Z
 ---------------------------------------------------------------------
      1          6           0       -2.864472    3.110244   -1.203230
      2          6           0       -2.283866    1.853702   -0.541981
      3          7           0       -1.853614    0.823995   -1.489038
      4          6           0       -0.617887    1.120485   -2.239662
      5          6           0        0.649254    0.952787   -1.421308
      6          6           0        1.390911    2.058479   -1.005374
      7          6           0        2.555533    1.882995   -0.249656
      8          6           0        2.984776    0.610906    0.105891
      9          8           0        4.088347    0.471051    0.915895
     10          6           0        5.247213   -0.123771    0.300029
     11          6           0        6.173845   -0.613715    1.363677
     12          6           0        7.483232   -0.267623    1.569702
     13          6           0        8.090942   -0.965422    2.657683
     14          6           0        7.228206   -1.831202    3.270256
     15         16           0        5.660136   -1.811767    2.527537
     16          6           0        2.233863   -0.517149   -0.303333
     17          8           0        2.717654   -1.730137    0.097567
     18          6           0        1.984867   -2.893743   -0.262990
     19          6           0        1.081436   -0.337757   -1.066680
     20          6           0       -2.354640   -0.456033   -1.587799
     21          8           0       -1.792293   -1.295784   -2.296057
     22          6           0       -3.607083   -0.895898   -0.815776
     23          6           0       -3.362233   -1.194651    0.693812
     24          6           0       -4.770911   -1.130765    1.300967
     25          6           0       -5.423012    0.068446    0.593144
     26          7           0       -6.887306    0.016056    0.649431
     27          6           0       -4.906411   -0.029982   -0.863288
     28          1           0       -2.130834    3.616850   -1.838445
     29          1           0       -3.733869    2.869190   -1.823756
     30          1           0       -3.177963    3.822780   -0.431538
     31          1           0       -3.020371    1.428972    0.136849
     32          1           0       -1.417960    2.131383    0.074638
     33          1           0       -0.609855    0.451015   -3.100501
     34          1           0       -0.682620    2.149420   -2.606989
     35          1           0        1.072860    3.061994   -1.278122
     36          1           0        3.142814    2.732290    0.086609
     37          1           0        5.765931    0.627106   -0.312673
     38          1           0        4.930313   -0.942988   -0.353696
     39          1           0        7.998341    0.466977    0.958586
     40          1           0        9.118996   -0.819808    2.971592
     41          1           0        7.414171   -2.467733    4.125256
     42          1           0        0.966976   -2.867521    0.145418
     43          1           0        2.530789   -3.733409    0.170330
     44          1           0        1.930064   -3.014029   -1.352318
     45          1           0        0.492818   -1.185322   -1.397660
     46          1           0       -3.829676   -1.852761   -1.293013
     47          1           0       -2.872431   -2.162884    0.836345
     48          1           0       -2.713327   -0.440528    1.155163
     49          1           0       -5.341759   -2.032958    1.046751
     50          1           0       -4.765199   -1.033684    2.393269
     51          1           0       -5.016305    0.990649    1.051752
     52          1           0       -7.195069    0.099788    1.618279
     53          1           0       -7.278910    0.823370    0.164629
     54          1           0       -4.758700    0.953326   -1.318210
     55          1           0       -5.665710   -0.545231   -1.461154
 ---------------------------------------------------------------------

 SCF Done:  E(RB3LYP) =  -1550.42150557     A.U. after   15 cycles

 Excitation energies and oscillator strengths:

 Excited state symmetry could not be determined.
 Excited State   1:      Triplet-?Sym    3.3721 eV  367.67 nm  f=0.0000  <S**2>=2.000
     103 ->105         0.67367
     103 ->106         0.12560
     103 <-105         0.10248
 This state for optimization and/or second-order correction.
 Total Energy, E(TD-HF/TD-DFT) =  -1550.29758151
 Copying the excited state density for this state as the 1-particle RhoCI density.

 Excited state symmetry could not be determined.
 Excited State   2:      Triplet-?Sym    3.6252 eV  342.00 nm  f=0.0000  <S**2>=2.000
      98 ->106         0.15436
     100 ->106         0.12994
     101 ->106        -0.20906
     101 ->107         0.12997
     102 ->106         0.19703
     104 ->105        -0.16444
     104 ->106         0.36293
     104 ->107         0.37911
     104 ->108         0.14125

 Excited state symmetry could not be determined.
 Excited State   3:      Singlet-?Sym    4.9072 eV  252.66 nm  f=0.0439  <S**2>=0.000
     104 ->105         0.69551

 Excited state symmetry could not be determined.
 Excited State   4:      Singlet-?Sym    5.0278 eV  246.60 nm  f=0.0607  <S**2>=0.000
     101 ->106         0.10507
     101 ->107         0.16501
     102 ->107        -0.16252
     104 ->106         0.57604
     104 ->107        -0.18779

 Alpha  occ. eigenvalues --  -88.89716 -19.17788 -19.15688 -19.10160 -14.35909
 Alpha  occ. eigenvalues --  -14.31661 -10.27809 -10.24323 -10.24148 -10.23655
 Alpha  occ. eigenvalues --  -10.23390 -10.22654 -10.21622 -10.21476 -10.21054
 Alpha  occ. eigenvalues --  -10.20685 -10.19376 -10.19096 -10.18880 -10.18859
 Alpha  occ. eigenvalues --  -10.18681 -10.18603 -10.18358 -10.18355 -10.18249
 Alpha  occ. eigenvalues --  -10.18156 -10.17907  -7.95819  -5.92221  -5.91853
 Alpha  occ. eigenvalues --   -5.91527  -1.06610  -1.03802  -1.02206  -0.92551
 Alpha  occ. eigenvalues --   -0.89095  -0.87071  -0.84590  -0.82064  -0.77604
 Alpha  occ. eigenvalues --   -0.75993  -0.74927  -0.73994  -0.72459  -0.71976
 Alpha  occ. eigenvalues --   -0.70477  -0.69658  -0.68029  -0.65443  -0.64072
 Alpha  occ. eigenvalues --   -0.60179  -0.59137  -0.58216  -0.56722  -0.55463
 Alpha  occ. eigenvalues --   -0.54342  -0.53300  -0.52392  -0.50725  -0.50112
 Alpha  occ. eigenvalues --   -0.49886  -0.49374  -0.48788  -0.47624  -0.47198
 Alpha  occ. eigenvalues --   -0.46534  -0.46065  -0.44739  -0.44344  -0.43661
 Alpha  occ. eigenvalues --   -0.43095  -0.42395  -0.42138  -0.41823  -0.41630
 Alpha  occ. eigenvalues --   -0.40427  -0.39685  -0.39209  -0.38427  -0.38071
 Alpha  occ. eigenvalues --   -0.37642  -0.37036  -0.36596  -0.36455  -0.36158
 Alpha  occ. eigenvalues --   -0.35990  -0.35123  -0.34833  -0.34674  -0.33903
 Alpha  occ. eigenvalues --   -0.33147  -0.33115  -0.32732  -0.32301  -0.31860
 Alpha  occ. eigenvalues --   -0.31194  -0.27404  -0.24580  -0.24236  -0.23986
 Alpha  occ. eigenvalues --   -0.23234  -0.22967  -0.22415  -0.21086
 Alpha virt. eigenvalues --   -0.00917   0.00172   0.01408   0.02722   0.04335
 Alpha virt. eigenvalues --    0.06395   0.07159   0.08152   0.08679   0.09371
 Alpha virt. eigenvalues --    0.10003   0.10791   0.11145   0.11595   0.12038

 Mulliken charges:
               1
     1  C   -0.453768
     2  C   -0.155380
     3  N   -0.411632
     4  C   -0.253071
     5  C    0.164575
     6  C   -0.208002
     7  C   -0.177183
     8  C    0.322571
     9  O   -0.533977
    10  C   -0.083219
    11  C   -0.126315
    12  C   -0.125067
    13  C   -0.097801
    14  C   -0.347277
    15  S    0.264171
    16  C    0.359495
    17  O   -0.514607
    18  C   -0.218963
    19  C   -0.279034
    20  C    0.584386
    21  O   -0.536225
    22  C   -0.177350
    23  C   -0.287479
    24  C   -0.271186
    25  C    0.026056
    26  N   -0.723748
    27  C   -0.302564
    28  H    0.155050
    29  H    0.160417
    30  H    0.149187
    31  H    0.159581
    32  H    0.162108
    33  H    0.194010
    34  H    0.145424
    35  H    0.117546
    36  H    0.134753
    37  H    0.144321
    38  H    0.168976
    39  H    0.135573
    40  H    0.137742
    41  H    0.168573
    42  H    0.159371
    43  H    0.171327
    44  H    0.160265
    45  H    0.177904
    46  H    0.169777
    47  H    0.151839
    48  H    0.145948
    49  H    0.152859
    50  H    0.132103
    51  H    0.108955
    52  H    0.295419
    53  H    0.295242
    54  H    0.145958
    55  H    0.162366
 Sum of Mulliken charges =  -0.00000

 Dipole moment (field-independent basis, Debye):
    X=             -1.3279    Y=              2.3251    Z=              1.0209  Tot=              2.8656
 Quadrupole moment (field-independent basis, Debye-Ang):
   XX=           -151.6368   YY=           -157.7622   ZZ=           -170.5549
   XY=            -13.4752   XZ=             -9.3720   YZ=             -7.9144

 Normal termination of Gaussian 16 at Sat Nov  5 11:22:34 2022.
