 Gaussian 16, Revision B.01,
 Gaussian 16:  ES64L-G16RevB.01 20-Dec-2017

 -------------------------------------------------------------------
 #p b3lyp/6-31g(d) 6D 10F nosymm GFInput td=(50-50,nstate=2) SCF=XQC
 -------------------------------------------------------------------

 ------------------------------
 Gaussian input prepared by ASE
 ------------------------------
 Symbolic Z-matrix:
 Charge =  0 Multiplicity = 1

                          Input orientation:
 ---------------------------------------------------------------------
 Center     Atomic      Atomic             Coordinates (Angstroms)
 Number     Number       Type             X           Y           Z
 ---------------------------------------------------------------------
      1          6           0       10.959083    0.698478   -0.840148
      2          6           0       10.224032    0.683174    0.496089
      3          8           0        9.012838   -0.077705    0.445870
      4          6           0        7.877336    0.477211   -0.057839
      5          6           0        6.751469   -0.391221   -0.047912
      6          6           0        5.533794    0.033103   -0.517757
      7          6           0        5.386249    1.353531   -1.017664
      8          6           0        4.156387    1.879057   -1.521085
      9          8           0        3.121344    0.993278   -1.574617
     10          6           0        1.810804    1.487736   -1.891444
     11          6           0        1.126481    1.959314   -0.604344
     12          6           0        0.814838    0.616474    0.097997
     13          6           0       -0.208423    0.727327    1.236445
     14          8           0        0.228787    0.614544    2.397093
     15          7           0       -1.549508    0.925619    1.101295
     16          6           0       -2.541350    1.238844    0.095202
     17          6           0       -3.654331    1.997705    0.819691
     18          8           0       -3.790673    1.868396    2.027405
     19          7           0       -4.501291    2.773390    0.060085
     20         16           0       -5.596341    3.995107    0.666760
     21          8           0       -4.952046    4.727803    1.748519
     22          8           0       -5.966523    4.649282   -0.592703
     23          6           0       -7.016384    3.089709    1.311857
     24          6           0       -6.851685    2.570088    2.726955
     25          6           0       -7.846230    2.359321    0.283260
     26          6           0       -8.347529    3.656898    0.854392
     27          6           0       -2.265303    1.440980   -1.367415
     28          6           0       -2.948553    0.161917   -0.952314
     29          6           0       -4.344399   -0.190606   -1.298057
     30          6           0       -4.745921   -1.418871   -1.660178
     31          6           0       -3.881257   -2.648049   -1.777054
     32          6           0       -3.907154   -3.510777   -0.492653
     33          6           0       -2.881988   -4.667673   -0.449547
     34          6           0       -3.148343   -5.711098   -1.547668
     35          6           0       -1.409092   -4.200739   -0.522127
     36          6           0       -0.933228   -3.237763    0.592234
     37          6           0       -0.873170   -3.975019    1.943027
     38          6           0        0.457900   -2.604420    0.250273
     39          7           0        1.042217   -1.986124    1.421244
     40          6           0        2.399986   -1.794087    1.548651
     41          8           0        3.235783   -2.364276    0.875095
     42          8           0        2.737866   -0.887308    2.501655
     43          6           0        0.427073   -1.709779   -1.024210
     44          8           0        0.327294   -2.274722   -2.110905
     45          7           0        0.535001   -0.320771   -1.017251
     46          6           0        0.991535    0.271181   -2.304335
     47          7           0        3.973368    3.110919   -1.930543
     48          6           0        5.053580    3.943384   -1.906648
     49          6           0        6.301424    3.566503   -1.483457
     50          6           0        6.504600    2.237336   -1.011326
     51          6           0        7.754991    1.773261   -0.532837
     52          1           0       11.173134   -0.324515   -1.165363
     53          1           0       11.909688    1.234841   -0.738347
     54          1           0       10.370442    1.188736   -1.621300
     55          1           0       10.016824    1.697742    0.859151
     56          1           0       10.827062    0.178038    1.255964
     57          1           0        6.878479   -1.390872    0.354036
     58          1           0        4.681305   -0.636438   -0.482009
     59          1           0        1.878880    2.261852   -2.656748
     60          1           0        1.776349    2.589611    0.005917
     61          1           0        0.224006    2.532502   -0.835336
     62          1           0        1.730602    0.327599    0.607634
     63          1           0       -1.987404    0.970145    2.022669
     64          1           0       -4.279404    2.978231   -0.907155
     65          1           0       -6.664153    3.394106    3.420844
     66          1           0       -6.022706    1.863917    2.803935
     67          1           0       -7.777175    2.066350    3.025361
     68          1           0       -8.291143    1.422849    0.608075
     69          1           0       -7.516972    2.372794   -0.751469
     70          1           0       -9.140630    3.641394    1.596510
     71          1           0       -8.343261    4.521674    0.199819
     72          1           0       -2.833005    2.194852   -1.907818
     73          1           0       -1.247204    1.357317   -1.711457
     74          1           0       -2.264590   -0.677964   -0.908065
     75          1           0       -5.083314    0.606537   -1.253396
     76          1           0       -5.806299   -1.555978   -1.871636
     77          1           0       -2.850362   -2.365797   -2.013935
     78          1           0       -4.230431   -3.248358   -2.626136
     79          1           0       -4.915237   -3.929208   -0.365138
     80          1           0       -3.751022   -2.852415    0.371120
     81          1           0       -3.040556   -5.173753    0.513413
     82          1           0       -4.186744   -6.063357   -1.517447
     83          1           0       -2.960096   -5.303934   -2.548203
     84          1           0       -2.496031   -6.583245   -1.424067
     85          1           0       -1.217626   -3.754533   -1.500639
     86          1           0       -0.767166   -5.093089   -0.481883
     87          1           0       -1.653752   -2.411906    0.689453
     88          1           0       -0.655757   -3.310358    2.782994
     89          1           0       -0.096180   -4.748630    1.924980
     90          1           0       -1.829481   -4.464052    2.152858
     91          1           0        1.135883   -3.409966   -0.048646
     92          1           0        0.438834   -1.466444    2.042168
     93          1           0        1.962892   -0.324749    2.724323
     94          1           0        0.145529    0.551963   -2.942744
     95          1           0        1.585243   -0.459873   -2.853391
     96          1           0        4.864961    4.956271   -2.255319
     97          1           0        7.125222    4.274386   -1.492506
     98          1           0        8.597021    2.455869   -0.546734
 ---------------------------------------------------------------------

 SCF Done:  E(RB3LYP) =  -2748.99922978     A.U. after   15 cycles

 Excitation energies and oscillator strengths:

 Excited state symmetry could not be determined.
 Excited State   1:      Triplet-?Sym    2.9602 eV  418.84 nm  f=0.0000  <S**2>=2.000
     186 ->202        -0.10757
     192 ->197         0.17102
     193 ->195         0.65345
 This state for optimization and/or second-order correction.
 Total Energy, E(TD-HF/TD-DFT) =  -2748.89044600
 Copying the excited state density for this state as the 1-particle RhoCI density.

 Excited state symmetry could not be determined.
 Excited State   2:      Triplet-?Sym    3.7932 eV  326.86 nm  f=0.0000  <S**2>=2.000
     192 ->195         0.63610
     193 ->197         0.23711
     193 ->202         0.10756

 Excited state symmetry could not be determined.
 Excited State   3:      Singlet-?Sym    4.2409 eV  292.35 nm  f=0.0037  <S**2>=0.000
     193 ->194         0.69651

 Excited state symmetry could not be determined.
 Excited State   4:      Singlet-?Sym    4.4084 eV  281.25 nm  f=0.0571  <S**2>=0.000
     192 ->195         0.40238
     192 ->197        -0.12193
     193 ->195        -0.39802
     193 ->197        -0.37709

 Alpha  occ. eigenvalues --  -89.13836 -19.18359 -19.17605 -19.16999 -19.16957
 Alpha  occ. eigenvalues --  -19.16923 -19.16677 -19.14715 -19.12415 -19.10753
 Alpha  occ. eigenvalues --  -14.41233 -14.39328 -14.38138 -14.35489 -14.31935
 Alpha  occ. eigenvalues --  -10.34353 -10.32579 -10.32454 -10.29727 -10.29126
 Alpha  occ. eigenvalues --  -10.27708 -10.26183 -10.25901 -10.25665 -10.25038
 Alpha  occ. eigenvalues --  -10.24427 -10.23970 -10.23691 -10.23658 -10.23135
 Alpha  occ. eigenvalues --  -10.22746 -10.22528 -10.21411 -10.21373 -10.20746
 Alpha  occ. eigenvalues --  -10.20676 -10.20394 -10.20339 -10.20281 -10.19401
 Alpha  occ. eigenvalues --  -10.19188 -10.19152 -10.18902 -10.18480 -10.18451
 Alpha  occ. eigenvalues --  -10.18342 -10.18214 -10.18011 -10.17947 -10.17595
 Alpha  occ. eigenvalues --  -10.17492  -8.16395  -6.12972  -6.12780  -6.12624
 Alpha  occ. eigenvalues --   -1.13771  -1.08706  -1.08536  -1.07896  -1.06427
 Alpha  occ. eigenvalues --   -1.06186  -1.04528  -1.02849  -0.99667  -0.96369
 Alpha  occ. eigenvalues --   -0.95374  -0.95133  -0.92825  -0.92437  -0.90721
 Alpha  occ. eigenvalues --   -0.88605  -0.85048  -0.82951  -0.81172  -0.80681
 Alpha  occ. eigenvalues --   -0.78408  -0.78092  -0.77886  -0.76258  -0.75389
 Alpha  occ. eigenvalues --   -0.74085  -0.73305  -0.72500  -0.72391  -0.71183
 Alpha  occ. eigenvalues --   -0.70034  -0.67876  -0.66719  -0.66390  -0.66112
 Alpha  occ. eigenvalues --   -0.65165  -0.63981  -0.63748  -0.63473  -0.62967
 Alpha  occ. eigenvalues --   -0.60822  -0.60648  -0.59885  -0.59634  -0.59192
 Alpha  occ. eigenvalues --   -0.58456  -0.57605  -0.57197  -0.56685  -0.55553
 Alpha  occ. eigenvalues --   -0.54637  -0.54445  -0.54256  -0.53290  -0.53150
 Alpha  occ. eigenvalues --   -0.52245  -0.51502  -0.51433  -0.50149  -0.49975
 Alpha  occ. eigenvalues --   -0.49382  -0.48677  -0.48377  -0.48154  -0.47439
 Alpha  occ. eigenvalues --   -0.47262  -0.47184  -0.46642  -0.46354  -0.46096
 Alpha  occ. eigenvalues --   -0.45840  -0.45702  -0.45296  -0.44648  -0.44172
 Alpha  occ. eigenvalues --   -0.44129  -0.43878  -0.43607  -0.43540  -0.43124
 Alpha  occ. eigenvalues --   -0.42828  -0.42670  -0.42601  -0.42317  -0.42043
 Alpha  occ. eigenvalues --   -0.41671  -0.41485  -0.41342  -0.40708  -0.40206
 Alpha  occ. eigenvalues --   -0.40090  -0.40010  -0.39605  -0.39379  -0.39307
 Alpha  occ. eigenvalues --   -0.39099  -0.38566  -0.38250  -0.37834  -0.37573
 Alpha  occ. eigenvalues --   -0.37452  -0.37315  -0.37071  -0.36775  -0.36353
 Alpha  occ. eigenvalues --   -0.36284  -0.36008  -0.35893  -0.35274  -0.35008
 Alpha  occ. eigenvalues --   -0.34717  -0.34246  -0.34008  -0.33805  -0.33563
 Alpha  occ. eigenvalues --   -0.33207  -0.32766  -0.32691  -0.32241  -0.31910
 Alpha  occ. eigenvalues --   -0.31791  -0.31650  -0.31450  -0.30927  -0.30905
 Alpha  occ. eigenvalues --   -0.30433  -0.30118  -0.28777  -0.28355  -0.27360
 Alpha  occ. eigenvalues --   -0.26860  -0.26358  -0.26155  -0.25840  -0.24488
 Alpha  occ. eigenvalues --   -0.23781  -0.22291  -0.20826
 Alpha virt. eigenvalues --   -0.04039  -0.02863  -0.02183  -0.00877  -0.00082
 Alpha virt. eigenvalues --    0.00005   0.00617   0.03644   0.04292   0.04622
 Alpha virt. eigenvalues --    0.05154   0.05991   0.06742   0.07188   0.07785

 Mulliken charges:
               1
     1  C   -0.464046
     2  C   -0.036973
     3  O   -0.517508
     4  C    0.391722
     5  C   -0.182217
     6  C   -0.183650
     7  C    0.033840
     8  C    0.512833
     9  O   -0.521490
    10  C    0.101380
    11  C   -0.335901
    12  C   -0.022430
    13  C    0.595269
    14  O   -0.550904
    15  N   -0.662382
    16  C    0.183884
    17  C    0.641795
    18  O   -0.498960
    19  N   -0.791806
    20  S    1.264315
    21  O   -0.481167
    22  O   -0.558401
    23  C   -0.144016
    24  C   -0.469770
    25  C   -0.316223
    26  C   -0.312724
    27  C   -0.361713
    28  C   -0.155952
    29  C   -0.096911
    30  C   -0.119967
    31  C   -0.325881
    32  C   -0.263940
    33  C   -0.078713
    34  C   -0.453007
    35  C   -0.284161
    36  C   -0.129300
    37  C   -0.446076
    38  C   -0.018153
    39  N   -0.652513
    40  C    0.744338
    41  O   -0.496998
    42  O   -0.621756
    43  C    0.596013
    44  O   -0.506620
    45  N   -0.502828
    46  C   -0.140950
    47  N   -0.534594
    48  C    0.023037
    49  C   -0.211916
    50  C    0.166977
    51  C   -0.282095
    52  H    0.166389
    53  H    0.148726
    54  H    0.165046
    55  H    0.145531
    56  H    0.159308
    57  H    0.157211
    58  H    0.190938
    59  H    0.181828
    60  H    0.196080
    61  H    0.159764
    62  H    0.196879
    63  H    0.374361
    64  H    0.372168
    65  H    0.189501
    66  H    0.202690
    67  H    0.151518
    68  H    0.175569
    69  H    0.188541
    70  H    0.177103
    71  H    0.207274
    72  H    0.162833
    73  H    0.191320
    74  H    0.190284
    75  H    0.127199
    76  H    0.130129
    77  H    0.162861
    78  H    0.149937
    79  H    0.130857
    80  H    0.137795
    81  H    0.123962
    82  H    0.137283
    83  H    0.149258
    84  H    0.146579
    85  H    0.185152
    86  H    0.131793
    87  H    0.123376
    88  H    0.146655
    89  H    0.156787
    90  H    0.150972
    91  H    0.203382
    92  H    0.344323
    93  H    0.433552
    94  H    0.158652
    95  H    0.208107
    96  H    0.134058
    97  H    0.124863
    98  H    0.130819
 Sum of Mulliken charges =  -0.00000

 Dipole moment (field-independent basis, Debye):
    X=             -5.5444    Y=              0.8880    Z=             -1.6853  Tot=              5.8626
 Quadrupole moment (field-independent basis, Debye-Ang):
   XX=           -236.2269   YY=           -324.0072   ZZ=           -318.6951
   XY=             27.8356   XZ=             -3.6185   YZ=             -9.7735

 Normal termination of Gaussian 16 at Sat Nov  5 12:07:27 2022.
