 Gaussian 16, Revision B.01,
 Gaussian 16:  ES64L-G16RevB.01 20-Dec-2017

 -----------------------------
 #p b3lyp/6-31g(d) opt SCF=XQC
 -----------------------------

 ------------------------------
 Gaussian input prepared by ASE
 ------------------------------
 Symbolic Z-matrix:
 Charge =  0 Multiplicity = 1

 SCF Done:  E(RB3LYP) =  -2748.97475035     A.U. after   15 cycles
 SCF Done:  E(RB3LYP) =  -2748.98768451     A.U. after   13 cycles
 SCF Done:  E(RB3LYP) =  -2748.98525482     A.U. after   13 cycles
 SCF Done:  E(RB3LYP) =  -2748.98902536     A.U. after   12 cycles
 SCF Done:  E(RB3LYP) =  -2748.99270526     A.U. after   12 cycles
 SCF Done:  E(RB3LYP) =  -2748.99178362     A.U. after   12 cycles
 SCF Done:  E(RB3LYP) =  -2748.99427339     A.U. after   12 cycles
 SCF Done:  E(RB3LYP) =  -2748.99500821     A.U. after   12 cycles
 SCF Done:  E(RB3LYP) =  -2748.99538574     A.U. after   12 cycles
 SCF Done:  E(RB3LYP) =  -2748.99626160     A.U. after   12 cycles
 SCF Done:  E(RB3LYP) =  -2748.99919612     A.U. after   10 cycles
 SCF Done:  E(RB3LYP) =  -2748.99920245     A.U. after    9 cycles
 SCF Done:  E(RB3LYP) =  -2748.99920796     A.U. after    9 cycles
 SCF Done:  E(RB3LYP) =  -2748.99921411     A.U. after    9 cycles
 SCF Done:  E(RB3LYP) =  -2748.99921900     A.U. after    9 cycles
 SCF Done:  E(RB3LYP) =  -2748.99922075     A.U. after    9 cycles
 SCF Done:  E(RB3LYP) =  -2748.99922249     A.U. after    9 cycles
 SCF Done:  E(RB3LYP) =  -2748.99922359     A.U. after    9 cycles
 SCF Done:  E(RB3LYP) =  -2748.99922387     A.U. after    7 cycles
 SCF Done:  E(RB3LYP) =  -2748.99922400     A.U. after    6 cycles
 Optimization completed.
    -- Stationary point found.

                         Standard orientation:
 ---------------------------------------------------------------------
 Center     Atomic      Atomic             Coordinates (Angstroms)
 Number     Number       Type             X           Y           Z
 ---------------------------------------------------------------------
      1          6           0      -10.885447   -0.949014   -0.059868
      2          6           0      -10.064151   -0.936446    1.225192
      3          8           0       -8.905569   -0.101976    1.126211
      4          6           0       -7.776156   -0.568543    0.528079
      5          6           0       -6.704784    0.365886    0.498873
      6          6           0       -5.498864    0.033386   -0.065696
      7          6           0       -5.308543   -1.257041   -0.625858
      8          6           0       -4.086842   -1.688560   -1.228692
      9          8           0       -3.111221   -0.740101   -1.314570
     10          6           0       -1.798400   -1.142342   -1.735383
     11          6           0       -1.002528   -1.616790   -0.515220
     12          6           0       -0.723153   -0.283250    0.217749
     13          6           0        0.379237   -0.371970    1.281836
     14          8           0        0.015417   -0.327264    2.472051
     15          7           0        1.717444   -0.483370    1.051866
     16          6           0        2.655803   -0.699757   -0.028293
     17          6           0        3.857470   -1.414723    0.591626
     18          8           0        4.067126   -1.320303    1.792049
     19          7           0        4.695126   -2.109986   -0.251566
     20         16           0        5.898004   -3.283567    0.233790
     21          8           0        5.371947   -4.092041    1.325484
     22          8           0        6.219998   -3.868892   -1.071945
     23          6           0        7.303035   -2.316907    0.820197
     24          6           0        7.204049   -1.858823    2.262415
     25          6           0        8.017622   -1.501332   -0.230673
     26          6           0        8.631145   -2.785453    0.254942
     27          6           0        2.294067   -0.866277   -1.476647
     28          6           0        2.927930    0.436451   -1.056814
     29          6           0        4.274341    0.885303   -1.478603
     30          6           0        4.578177    2.147801   -1.817380
     31          6           0        3.637345    3.325461   -1.829078
     32          6           0        3.699363    4.142036   -0.516060
     33          6           0        2.613670    5.232149   -0.360634
     34          6           0        2.744055    6.328163   -1.431756
     35          6           0        1.168997    4.679327   -0.355446
     36          6           0        0.826337    3.650237    0.748696
     37          6           0        0.814540    4.334066    2.128563
     38          6           0       -0.545339    2.945957    0.473394
     39          7           0       -1.012320    2.252082    1.654646
     40          6           0       -2.344887    1.973383    1.862583
     41          8           0       -3.256030    2.515205    1.267943
     42          8           0       -2.564268    1.014473    2.799061
     43          6           0       -0.548328    2.100648   -0.834691
     44          8           0       -0.555162    2.708828   -1.902442
     45          7           0       -0.574297    0.708276   -0.875518
     46          6           0       -1.081219    0.135696   -2.152466
     47          7           0       -3.860260   -2.891693   -1.697485
     48          6           0       -4.885978   -3.788668   -1.636111
     49          6           0       -6.122323   -3.503671   -1.117967
     50          6           0       -6.370436   -2.206926   -0.581530
     51          6           0       -7.610678   -1.837071   -0.004642
     52          1           0      -11.180267    0.069956   -0.329830
     53          1           0      -11.794103   -1.545500    0.082422
     54          1           0      -10.323191   -1.374511   -0.896450
     55          1           0       -9.774087   -1.948771    1.533670
     56          1           0      -10.643041   -0.496228    2.042083
     57          1           0       -6.862534    1.341060    0.947367
     58          1           0       -4.686434    0.751867   -0.059188
     59          1           0       -1.872611   -1.891515   -2.524567
     60          1           0       -1.571891   -2.306724    0.110749
     61          1           0       -0.085766   -2.125441   -0.826963
     62          1           0       -1.617777   -0.068903    0.796977
     63          1           0        2.218298   -0.533842    1.940271
     64          1           0        4.420882   -2.293490   -1.209618
     65          1           0        7.112122   -2.716832    2.933999
     66          1           0        6.342349   -1.207580    2.421051
     67          1           0        8.116569   -1.310613    2.519519
     68          1           0        8.428005   -0.551643    0.101152
     69          1           0        7.620718   -1.498082   -1.241471
     70          1           0        9.470203   -2.748068    0.943834
     71          1           0        8.633241   -3.625109   -0.431568
     72          1           0        2.867078   -1.564552   -2.082215
     73          1           0        1.251951   -0.832561   -1.750045
     74          1           0        2.200659    1.231056   -0.934989
     75          1           0        5.059844    0.133518   -1.513671
     76          1           0        5.612078    2.356596   -2.091912
     77          1           0        2.611061    2.989589   -2.009229
     78          1           0        3.892865    3.975661   -2.674763
     79          1           0        4.687607    4.616242   -0.438099
     80          1           0        3.640494    3.445152    0.329403
     81          1           0        2.806978    5.712443    0.609161
     82          1           0        3.759800    6.741659   -1.455392
     83          1           0        2.512881    5.946067   -2.433181
     84          1           0        2.051775    7.154065   -1.231600
     85          1           0        0.938379    4.257309   -1.336241
     86          1           0        0.480264    5.528972   -0.238283
     87          1           0        1.598740    2.866824    0.766099
     88          1           0        0.693397    3.628015    2.954035
     89          1           0       -0.005719    5.059117    2.191721
     90          1           0        1.752646    4.872626    2.294761
     91          1           0       -1.287781    3.718857    0.251303
     92          1           0       -0.339160    1.748370    2.213945
     93          1           0       -1.744542    0.492564    2.948388
     94          1           0       -0.265227   -0.070252   -2.855226
     95          1           0       -1.752235    0.848295   -2.632397
     96          1           0       -4.662501   -4.775186   -2.036021
     97          1           0       -6.902139   -4.259601   -1.101235
     98          1           0       -8.410456   -2.568726    0.009440
 ---------------------------------------------------------------------

 The electronic state is 1-A.
 Alpha  occ. eigenvalues --  -89.13836 -19.18359 -19.17605 -19.16999 -19.16957
 Alpha  occ. eigenvalues --  -19.16923 -19.16678 -19.14715 -19.12415 -19.10752
 Alpha  occ. eigenvalues --  -14.41233 -14.39328 -14.38138 -14.35489 -14.31935
 Alpha  occ. eigenvalues --  -10.34353 -10.32579 -10.32454 -10.29726 -10.29126
 Alpha  occ. eigenvalues --  -10.27708 -10.26183 -10.25901 -10.25665 -10.25038
 Alpha  occ. eigenvalues --  -10.24427 -10.23970 -10.23691 -10.23658 -10.23135
 Alpha  occ. eigenvalues --  -10.22746 -10.22528 -10.21411 -10.21373 -10.20746
 Alpha  occ. eigenvalues --  -10.20676 -10.20394 -10.20339 -10.20281 -10.19401
 Alpha  occ. eigenvalues --  -10.19188 -10.19152 -10.18901 -10.18480 -10.18451
 Alpha  occ. eigenvalues --  -10.18342 -10.18214 -10.18011 -10.17947 -10.17595
 Alpha  occ. eigenvalues --  -10.17492  -8.16395  -6.12972  -6.12780  -6.12624
 Alpha  occ. eigenvalues --   -1.13771  -1.08706  -1.08536  -1.07896  -1.06427
 Alpha  occ. eigenvalues --   -1.06186  -1.04528  -1.02849  -0.99667  -0.96369
 Alpha  occ. eigenvalues --   -0.95374  -0.95133  -0.92825  -0.92437  -0.90721
 Alpha  occ. eigenvalues --   -0.88605  -0.85048  -0.82951  -0.81172  -0.80681
 Alpha  occ. eigenvalues --   -0.78408  -0.78092  -0.77886  -0.76258  -0.75389
 Alpha  occ. eigenvalues --   -0.74085  -0.73305  -0.72500  -0.72391  -0.71183
 Alpha  occ. eigenvalues --   -0.70034  -0.67876  -0.66718  -0.66390  -0.66112
 Alpha  occ. eigenvalues --   -0.65165  -0.63981  -0.63748  -0.63473  -0.62967
 Alpha  occ. eigenvalues --   -0.60822  -0.60648  -0.59885  -0.59634  -0.59192
 Alpha  occ. eigenvalues --   -0.58456  -0.57605  -0.57197  -0.56685  -0.55553
 Alpha  occ. eigenvalues --   -0.54637  -0.54445  -0.54256  -0.53290  -0.53150
 Alpha  occ. eigenvalues --   -0.52245  -0.51502  -0.51433  -0.50149  -0.49975
 Alpha  occ. eigenvalues --   -0.49382  -0.48677  -0.48377  -0.48153  -0.47439
 Alpha  occ. eigenvalues --   -0.47262  -0.47184  -0.46642  -0.46354  -0.46096
 Alpha  occ. eigenvalues --   -0.45840  -0.45702  -0.45296  -0.44648  -0.44172
 Alpha  occ. eigenvalues --   -0.44129  -0.43878  -0.43607  -0.43540  -0.43124
 Alpha  occ. eigenvalues --   -0.42828  -0.42670  -0.42601  -0.42317  -0.42043
 Alpha  occ. eigenvalues --   -0.41671  -0.41485  -0.41342  -0.40708  -0.40206
 Alpha  occ. eigenvalues --   -0.40090  -0.40010  -0.39605  -0.39379  -0.39307
 Alpha  occ. eigenvalues --   -0.39099  -0.38566  -0.38250  -0.37834  -0.37573
 Alpha  occ. eigenvalues --   -0.37452  -0.37315  -0.37071  -0.36775  -0.36353
 Alpha  occ. eigenvalues --   -0.36284  -0.36008  -0.35893  -0.35274  -0.35008
 Alpha  occ. eigenvalues --   -0.34717  -0.34246  -0.34008  -0.33805  -0.33563
 Alpha  occ. eigenvalues --   -0.33207  -0.32766  -0.32691  -0.32241  -0.31910
 Alpha  occ. eigenvalues --   -0.31791  -0.31649  -0.31450  -0.30927  -0.30905
 Alpha  occ. eigenvalues --   -0.30433  -0.30118  -0.28777  -0.28355  -0.27360
 Alpha  occ. eigenvalues --   -0.26860  -0.26358  -0.26155  -0.25840  -0.24488
 Alpha  occ. eigenvalues --   -0.23781  -0.22291  -0.20826
 Alpha virt. eigenvalues --   -0.04039  -0.02863  -0.02183  -0.00877  -0.00082
 Alpha virt. eigenvalues --    0.00005   0.00617   0.03644   0.04292   0.04622
 Alpha virt. eigenvalues --    0.05154   0.05991   0.06742   0.07188   0.07785

 Mulliken charges:
               1
     1  C   -0.464049
     2  C   -0.036974
     3  O   -0.517507
     4  C    0.391723
     5  C   -0.182210
     6  C   -0.183671
     7  C    0.033835
     8  C    0.512851
     9  O   -0.521493
    10  C    0.101376
    11  C   -0.335958
    12  C   -0.022357
    13  C    0.595209
    14  O   -0.550896
    15  N   -0.662353
    16  C    0.183894
    17  C    0.641772
    18  O   -0.498946
    19  N   -0.791800
    20  S    1.264306
    21  O   -0.481162
    22  O   -0.558398
    23  C   -0.144007
    24  C   -0.469768
    25  C   -0.316238
    26  C   -0.312725
    27  C   -0.361728
    28  C   -0.155952
    29  C   -0.096926
    30  C   -0.119956
    31  C   -0.325880
    32  C   -0.263927
    33  C   -0.078705
    34  C   -0.453010
    35  C   -0.284148
    36  C   -0.129327
    37  C   -0.446068
    38  C   -0.018135
    39  N   -0.652551
    40  C    0.744391
    41  O   -0.497020
    42  O   -0.621764
    43  C    0.596027
    44  O   -0.506625
    45  N   -0.502843
    46  C   -0.140938
    47  N   -0.534594
    48  C    0.023037
    49  C   -0.211922
    50  C    0.166982
    51  C   -0.282096
    52  H    0.166390
    53  H    0.148727
    54  H    0.165047
    55  H    0.145531
    56  H    0.159308
    57  H    0.157210
    58  H    0.190950
    59  H    0.181827
    60  H    0.196086
    61  H    0.159773
    62  H    0.196878
    63  H    0.374360
    64  H    0.372169
    65  H    0.189501
    66  H    0.202689
    67  H    0.151518
    68  H    0.175571
    69  H    0.188544
    70  H    0.177105
    71  H    0.207276
    72  H    0.162834
    73  H    0.191327
    74  H    0.190285
    75  H    0.127198
    76  H    0.130128
    77  H    0.162858
    78  H    0.149934
    79  H    0.130854
    80  H    0.137792
    81  H    0.123959
    82  H    0.137280
    83  H    0.149258
    84  H    0.146579
    85  H    0.185151
    86  H    0.131792
    87  H    0.123382
    88  H    0.146655
    89  H    0.156787
    90  H    0.150971
    91  H    0.203379
    92  H    0.344325
    93  H    0.433551
    94  H    0.158646
    95  H    0.208101
    96  H    0.134058
    97  H    0.124863
    98  H    0.130819
 Sum of Mulliken charges =  -0.00000

 Dipole moment (field-independent basis, Debye):
    X=              5.4606    Y=             -0.4887    Z=             -2.0767  Tot=              5.8626
 Quadrupole moment (field-independent basis, Debye-Ang):
   XX=           -239.2263   YY=           -321.3801   ZZ=           -318.5769
   XY=             35.5071   XZ=             -0.7026   YZ=              6.8125

 Normal termination of Gaussian 16 at Fri Nov  4 08:31:13 2022.
