 Gaussian 16, Revision B.01,
 Gaussian 16:  ES64L-G16RevB.01 20-Dec-2017

 -------------------------------------------------------------------
 #p b3lyp/6-31g(d) 6D 10F nosymm GFInput td=(50-50,nstate=2) SCF=XQC
 -------------------------------------------------------------------

 ------------------------------
 Gaussian input prepared by ASE
 ------------------------------
 Symbolic Z-matrix:
 Charge =  0 Multiplicity = 1

                          Input orientation:
 ---------------------------------------------------------------------
 Center     Atomic      Atomic             Coordinates (Angstroms)
 Number     Number       Type             X           Y           Z
 ---------------------------------------------------------------------
      1          6           0        7.866807    0.612660    1.060286
      2          6           0        7.470762   -0.849260    1.308195
      3          6           0        5.956893   -1.118747    1.452465
      4          6           0        5.180613   -1.392139    0.148576
      5          6           0        5.050370   -0.240930   -0.865859
      6          6           0        4.339713    1.027887   -0.361894
      7          6           0        2.875622    0.828784    0.051005
      8          6           0        1.955601    0.511623   -1.114789
      9          8           0        2.210508    0.706646   -2.284977
     10          8           0        0.782609   -0.001955   -0.673763
     11          6           0       -0.216948   -0.304172   -1.678422
     12          6           0       -1.073125    0.914646   -2.015693
     13          6           0       -1.815688    1.537363   -0.820047
     14          6           0       -2.909385    0.667606   -0.169824
     15          6           0       -4.144058    0.449057   -1.058913
     16          6           0       -5.180570   -0.592795   -0.588278
     17          6           0       -6.067832   -0.311644    0.660077
     18          6           0       -6.668834    1.105421    0.605693
     19          6           0       -7.219635   -1.339910    0.641551
     20          6           0       -5.293459   -0.495310    1.981568
     21          1           0        7.468441    1.000773    0.117667
     22          1           0        7.497635    1.259029    1.866532
     23          1           0        8.957415    0.720728    1.025398
     24          1           0        7.876036   -1.483294    0.506405
     25          1           0        7.969513   -1.180195    2.229055
     26          1           0        5.827379   -2.005098    2.088131
     27          1           0        5.492057   -0.290925    2.007307
     28          1           0        5.657826   -2.240859   -0.362186
     29          1           0        4.175898   -1.745854    0.420420
     30          1           0        4.511326   -0.612705   -1.746101
     31          1           0        6.046376    0.042334   -1.228325
     32          1           0        4.882107    1.448299    0.493671
     33          1           0        4.372021    1.782784   -1.155558
     34          1           0        2.487935    1.748338    0.512268
     35          1           0        2.758196    0.048438    0.810363
     36          1           0        0.287156   -0.678135   -2.572849
     37          1           0       -0.808403   -1.108919   -1.234686
     38          1           0       -0.423457    1.669326   -2.474117
     39          1           0       -1.782418    0.609200   -2.796771
     40          1           0       -1.075092    1.802609   -0.055242
     41          1           0       -2.266403    2.484182   -1.148883
     42          1           0       -2.490510   -0.304756    0.126236
     43          1           0       -3.208049    1.157058    0.764194
     44          1           0       -3.806604    0.117476   -2.050570
     45          1           0       -4.637309    1.415771   -1.229921
     46          1           0       -4.669680   -1.555524   -0.435390
     47          1           0       -5.864122   -0.753332   -1.434431
     48          1           0       -7.212025    1.272213   -0.333153
     49          1           0       -5.897771    1.879870    0.688669
     50          1           0       -7.376516    1.257319    1.429975
     51          1           0       -6.833489   -2.367059    0.646067
     52          1           0       -7.844545   -1.222292   -0.252322
     53          1           0       -7.865968   -1.223120    1.520093
     54          1           0       -4.498438    0.245094    2.106618
     55          1           0       -4.835559   -1.490884    2.035469
     56          1           0       -5.970927   -0.395827    2.839006
 ---------------------------------------------------------------------

 SCF Done:  E(RB3LYP) =  -858.082464484     A.U. after   14 cycles

 Excitation energies and oscillator strengths:

 Excited state symmetry could not be determined.
 Excited State   1:      Triplet-?Sym    5.2326 eV  236.95 nm  f=0.0000  <S**2>=2.000
      80 -> 81         0.69837
 This state for optimization and/or second-order correction.
 Total Energy, E(TD-HF/TD-DFT) =  -857.890171466
 Copying the excited state density for this state as the 1-particle RhoCI density.

 Excited state symmetry could not be determined.
 Excited State   2:      Triplet-?Sym    5.7646 eV  215.08 nm  f=0.0000  <S**2>=2.000
      66 -> 81        -0.16043
      71 -> 81         0.15558
      74 -> 81        -0.11063
      78 -> 81         0.18233
      79 -> 81         0.58716

 Excited state symmetry could not be determined.
 Excited State   3:      Singlet-?Sym    5.8071 eV  213.50 nm  f=0.0008  <S**2>=0.000
      80 -> 81         0.69832

 Excited state symmetry could not be determined.
 Excited State   4:      Singlet-?Sym    7.6824 eV  161.39 nm  f=0.1227  <S**2>=0.000
      79 -> 81         0.66421

 Alpha  occ. eigenvalues --  -19.18481 -19.13150 -10.30997 -10.23688 -10.19446
 Alpha  occ. eigenvalues --  -10.19373 -10.18412 -10.18014 -10.17987 -10.17827
 Alpha  occ. eigenvalues --  -10.17807 -10.17729 -10.17643 -10.17576 -10.17540
 Alpha  occ. eigenvalues --  -10.17258 -10.17020 -10.16960 -10.16873 -10.16804
 Alpha  occ. eigenvalues --   -1.09315  -1.00781  -0.82127  -0.80874  -0.79990
 Alpha  occ. eigenvalues --   -0.77984  -0.75829  -0.73510  -0.71062  -0.68763
 Alpha  occ. eigenvalues --   -0.68016  -0.67822  -0.65837  -0.63183  -0.61079
 Alpha  occ. eigenvalues --   -0.58877  -0.57150  -0.54616  -0.52853  -0.52391
 Alpha  occ. eigenvalues --   -0.50016  -0.48655  -0.47685  -0.46604  -0.45891
 Alpha  occ. eigenvalues --   -0.45557  -0.44747  -0.44562  -0.43638  -0.43333
 Alpha  occ. eigenvalues --   -0.42306  -0.41725  -0.41520  -0.40300  -0.40200
 Alpha  occ. eigenvalues --   -0.38946  -0.38754  -0.38644  -0.38295  -0.37320
 Alpha  occ. eigenvalues --   -0.36929  -0.36295  -0.36137  -0.35661  -0.34873
 Alpha  occ. eigenvalues --   -0.34691  -0.33976  -0.33752  -0.33228  -0.32987
 Alpha  occ. eigenvalues --   -0.32528  -0.31990  -0.31122  -0.30989  -0.30486
 Alpha  occ. eigenvalues --   -0.30219  -0.30157  -0.29701  -0.28983  -0.26629
 Alpha virt. eigenvalues --    0.01566   0.06879   0.07687   0.09458   0.10357
 Alpha virt. eigenvalues --    0.10772   0.11158   0.11398   0.11704   0.12796
 Alpha virt. eigenvalues --    0.13324   0.13532   0.13940   0.14105   0.14693

 Mulliken charges:
               1
     1  C   -0.447529
     2  C   -0.247617
     3  C   -0.254379
     4  C   -0.262712
     5  C   -0.268463
     6  C   -0.257601
     7  C   -0.365513
     8  C    0.628331
     9  O   -0.482483
    10  O   -0.465843
    11  C   -0.052962
    12  C   -0.288368
    13  C   -0.260069
    14  C   -0.262953
    15  C   -0.265404
    16  C   -0.257637
    17  C    0.108506
    18  C   -0.447229
    19  C   -0.441630
    20  C   -0.446202
    21  H    0.152299
    22  H    0.139667
    23  H    0.140722
    24  H    0.131014
    25  H    0.131221
    26  H    0.128868
    27  H    0.127573
    28  H    0.129753
    29  H    0.126878
    30  H    0.151231
    31  H    0.135362
    32  H    0.135562
    33  H    0.153237
    34  H    0.171027
    35  H    0.170513
    36  H    0.168625
    37  H    0.151195
    38  H    0.160979
    39  H    0.140700
    40  H    0.140046
    41  H    0.131158
    42  H    0.130705
    43  H    0.138995
    44  H    0.129319
    45  H    0.133421
    46  H    0.121157
    47  H    0.124071
    48  H    0.136945
    49  H    0.141323
    50  H    0.137487
    51  H    0.137290
    52  H    0.136771
    53  H    0.136337
    54  H    0.144970
    55  H    0.135764
    56  H    0.135572
 Sum of Mulliken charges =  -0.00000

 Dipole moment (field-independent basis, Debye):
    X=             -0.9424    Y=             -0.2402    Z=              1.2401  Tot=              1.5759
 Quadrupole moment (field-independent basis, Debye-Ang):
   XX=           -127.7681   YY=           -128.2954   ZZ=           -134.0059
   XY=             -1.3317   XZ=              6.9590   YZ=              2.6763

 Normal termination of Gaussian 16 at Sat Nov  5 11:26:03 2022.
