 Gaussian 16, Revision B.01,
 Gaussian 16:  ES64L-G16RevB.01 20-Dec-2017

 -----------------------------
 #p b3lyp/6-31g(d) opt SCF=XQC
 -----------------------------

 ------------------------------
 Gaussian input prepared by ASE
 ------------------------------
 Symbolic Z-matrix:
 Charge =  0 Multiplicity = 1

 SCF Done:  E(RB3LYP) =  -858.076136378     A.U. after   14 cycles
 SCF Done:  E(RB3LYP) =  -858.080925705     A.U. after   11 cycles
 SCF Done:  E(RB3LYP) =  -858.081373696     A.U. after   11 cycles
 SCF Done:  E(RB3LYP) =  -858.081679497     A.U. after   11 cycles
 SCF Done:  E(RB3LYP) =  -858.081889195     A.U. after   10 cycles
 SCF Done:  E(RB3LYP) =  -858.081962342     A.U. after   11 cycles
 SCF Done:  E(RB3LYP) =  -858.082048367     A.U. after   10 cycles
 SCF Done:  E(RB3LYP) =  -858.082101573     A.U. after   10 cycles
 SCF Done:  E(RB3LYP) =  -858.082177612     A.U. after   11 cycles
 SCF Done:  E(RB3LYP) =  -858.082177537     A.U. after    9 cycles
 SCF Done:  E(RB3LYP) =  -858.082471779     A.U. after   10 cycles
 SCF Done:  E(RB3LYP) =  -858.082477978     A.U. after    9 cycles
 SCF Done:  E(RB3LYP) =  -858.082472285     A.U. after    9 cycles
 SCF Done:  E(RB3LYP) =  -858.082479036     A.U. after   10 cycles
 SCF Done:  E(RB3LYP) =  -858.082475542     A.U. after    9 cycles
 SCF Done:  E(RB3LYP) =  -858.082479325     A.U. after    9 cycles
 SCF Done:  E(RB3LYP) =  -858.082479342     A.U. after    7 cycles
 SCF Done:  E(RB3LYP) =  -858.082479372     A.U. after    7 cycles
 SCF Done:  E(RB3LYP) =  -858.082479373     A.U. after    6 cycles
 SCF Done:  E(RB3LYP) =  -858.082479375     A.U. after    5 cycles
 Optimization completed.
    -- Stationary point found.

                         Standard orientation:
 ---------------------------------------------------------------------
 Center     Atomic      Atomic             Coordinates (Angstroms)
 Number     Number       Type             X           Y           Z
 ---------------------------------------------------------------------
      1          6           0       -7.737301    0.742880    1.062741
      2          6           0       -7.357356    1.636864   -0.125517
      3          6           0       -5.847425    1.906648   -0.305966
      4          6           0       -5.062551    0.881721   -1.149162
      5          6           0       -4.912590   -0.545334   -0.590282
      6          6           0       -4.194258   -0.669133    0.765294
      7          6           0       -2.735751   -0.193296    0.770564
      8          6           0       -1.808758   -1.073683   -0.049014
      9          8           0       -2.051678   -2.206433   -0.409873
     10          8           0       -0.644565   -0.432479   -0.309181
     11          6           0        0.360708   -1.175473   -1.042103
     12          6           0        1.231339   -2.022625   -0.116551
     13          6           0        1.969445   -1.235463    0.980865
     14          6           0        3.049149   -0.246265    0.500070
     15          6           0        4.289318   -0.921946   -0.106639
     16          6           0        5.311754   -0.014386   -0.822370
     17          6           0        6.190838    0.977641   -0.005201
     18          6           0        6.805759    0.288251    1.227214
     19          6           0        7.332911    1.445439   -0.933187
     20          6           0        5.403365    2.227333    0.439636
     21          1           0       -7.327129   -0.267998    0.974744
     22          1           0       -7.368966    1.168494    2.004704
     23          1           0       -8.826487    0.649290    1.147797
     24          1           0       -7.761711    1.209133   -1.054310
     25          1           0       -7.867172    2.601028    0.003818
     26          1           0       -5.731856    2.878887   -0.803821
     27          1           0       -5.379535    2.026871    0.681879
     28          1           0       -5.543397    0.810104   -2.135362
     29          1           0       -4.063636    1.297340   -1.343832
     30          1           0       -4.369529   -1.151428   -1.326045
     31          1           0       -5.902684   -1.009195   -0.499757
     32          1           0       -4.739993   -0.107272    1.533027
     33          1           0       -4.212517   -1.720547    1.073531
     34          1           0       -2.343321   -0.199173    1.797505
     35          1           0       -2.632328    0.840282    0.423616
     36          1           0       -0.139190   -1.805736   -1.781588
     37          1           0        0.940616   -0.405658   -1.557302
     38          1           0        0.592873   -2.783296    0.347673
     39          1           0        1.944410   -2.568841   -0.748732
     40          1           0        1.224829   -0.685701    1.569998
     41          1           0        2.431981   -1.955563    1.670255
     42          1           0        2.618489    0.456762   -0.227172
     43          1           0        3.344383    0.363894    1.361288
     44          1           0        3.957299   -1.656042   -0.853680
     45          1           0        4.793215   -1.510305    0.672462
     46          1           0        4.790416    0.555825   -1.606139
     47          1           0        6.001029   -0.685065   -1.355361
     48          1           0        7.358604   -0.616280    0.943497
     49          1           0        6.041420   -0.001544    1.957282
     50          1           0        7.507710    0.960185    1.736231
     51          1           0        6.936974    1.914700   -1.842689
     52          1           0        7.966611    0.604376   -1.240421
     53          1           0        7.972715    2.180941   -0.430284
     54          1           0        4.614382    1.990234    1.158791
     55          1           0        4.935553    2.725195   -0.418870
     56          1           0        6.074319    2.952362    0.917353
 ---------------------------------------------------------------------

 The electronic state is 1-A.
 Alpha  occ. eigenvalues --  -19.18481 -19.13150 -10.30996 -10.23688 -10.19446
 Alpha  occ. eigenvalues --  -10.19373 -10.18412 -10.18014 -10.17987 -10.17827
 Alpha  occ. eigenvalues --  -10.17807 -10.17729 -10.17643 -10.17576 -10.17540
 Alpha  occ. eigenvalues --  -10.17258 -10.17020 -10.16960 -10.16873 -10.16804
 Alpha  occ. eigenvalues --   -1.09315  -1.00781  -0.82127  -0.80874  -0.79990
 Alpha  occ. eigenvalues --   -0.77984  -0.75829  -0.73510  -0.71062  -0.68763
 Alpha  occ. eigenvalues --   -0.68016  -0.67822  -0.65837  -0.63183  -0.61079
 Alpha  occ. eigenvalues --   -0.58877  -0.57150  -0.54616  -0.52853  -0.52391
 Alpha  occ. eigenvalues --   -0.50016  -0.48655  -0.47685  -0.46604  -0.45891
 Alpha  occ. eigenvalues --   -0.45557  -0.44747  -0.44562  -0.43638  -0.43333
 Alpha  occ. eigenvalues --   -0.42306  -0.41725  -0.41520  -0.40300  -0.40200
 Alpha  occ. eigenvalues --   -0.38946  -0.38754  -0.38644  -0.38295  -0.37320
 Alpha  occ. eigenvalues --   -0.36929  -0.36295  -0.36137  -0.35661  -0.34873
 Alpha  occ. eigenvalues --   -0.34691  -0.33976  -0.33752  -0.33228  -0.32987
 Alpha  occ. eigenvalues --   -0.32528  -0.31990  -0.31122  -0.30989  -0.30486
 Alpha  occ. eigenvalues --   -0.30219  -0.30157  -0.29701  -0.28983  -0.26629
 Alpha virt. eigenvalues --    0.01566   0.06879   0.07687   0.09458   0.10357
 Alpha virt. eigenvalues --    0.10772   0.11158   0.11398   0.11704   0.12796
 Alpha virt. eigenvalues --    0.13324   0.13532   0.13940   0.14105   0.14693

 Mulliken charges:
               1
     1  C   -0.447530
     2  C   -0.247615
     3  C   -0.254389
     4  C   -0.262699
     5  C   -0.268491
     6  C   -0.257602
     7  C   -0.365516
     8  C    0.628349
     9  O   -0.482488
    10  O   -0.465849
    11  C   -0.052954
    12  C   -0.288384
    13  C   -0.260065
    14  C   -0.262968
    15  C   -0.265420
    16  C   -0.257633
    17  C    0.108527
    18  C   -0.447240
    19  C   -0.441634
    20  C   -0.446216
    21  H    0.152299
    22  H    0.139667
    23  H    0.140722
    24  H    0.131015
    25  H    0.131222
    26  H    0.128869
    27  H    0.127574
    28  H    0.129754
    29  H    0.126879
    30  H    0.151234
    31  H    0.135369
    32  H    0.135563
    33  H    0.153240
    34  H    0.171027
    35  H    0.170514
    36  H    0.168624
    37  H    0.151194
    38  H    0.160982
    39  H    0.140704
    40  H    0.140047
    41  H    0.131160
    42  H    0.130711
    43  H    0.139000
    44  H    0.129323
    45  H    0.133426
    46  H    0.121155
    47  H    0.124071
    48  H    0.136947
    49  H    0.141325
    50  H    0.137487
    51  H    0.137294
    52  H    0.136771
    53  H    0.136338
    54  H    0.144972
    55  H    0.135765
    56  H    0.135575
 Sum of Mulliken charges =  -0.00000

 Dipole moment (field-independent basis, Debye):
    X=              0.9293    Y=              1.2238    Z=              0.3495  Tot=              1.5759
 Quadrupole moment (field-independent basis, Debye-Ang):
   XX=           -127.3775   YY=           -134.7219   ZZ=           -127.2969
   XY=             -6.3873   XZ=             -1.9450   YZ=             -0.7031

 1\1\GINC-NODE93\FOpt\RB3LYP\6-31G(d)\C18H36O2\WYKGROUP\04-Nov-2022\0\\
 #p b3lyp/6-31g(d) opt SCF=XQC\\Gaussian input prepared by ASE\\0,1\C,7
 .8668073709,0.6126596909,1.0602864361\C,7.4707618561,-0.849260285,1.30
 8195333\C,5.9568925296,-1.1187469607,1.4524649084\C,5.1806131362,-1.39
 21392531,0.1485756317\C,5.0503700736,-0.2409303883,-0.8658586111\C,4.3
 397127566,1.0278872718,-0.3618940865\C,2.8756216249,0.8287843197,0.051
 0054181\C,1.9556007744,0.5116226288,-1.1147885085\O,2.2105079656,0.706
 6457894,-2.2849771183\O,0.7826092332,-0.001955136,-0.6737631718\C,-0.2

 Normal termination of Gaussian 16 at Fri Nov  4 05:52:12 2022.
