 Gaussian 16, Revision B.01,
 Gaussian 16:  ES64L-G16RevB.01 20-Dec-2017

 -------------------------------------------------------------------
 #p b3lyp/6-31g(d) 6D 10F nosymm GFInput td=(50-50,nstate=2) SCF=XQC
 -------------------------------------------------------------------

 ------------------------------
 Gaussian input prepared by ASE
 ------------------------------
 Symbolic Z-matrix:
 Charge =  0 Multiplicity = 1

                          Input orientation:
 ---------------------------------------------------------------------
 Center     Atomic      Atomic             Coordinates (Angstroms)
 Number     Number       Type             X           Y           Z
 ---------------------------------------------------------------------
      1          6           0       -2.490334    1.028450    1.018683
      2          6           0       -2.296869   -0.088913    0.027119
      3          6           0       -3.552231   -0.851822   -0.308604
      4          6           0       -1.119758   -0.427898   -0.551107
      5          6           0        0.160168    0.207242   -0.317415
      6          6           0        1.344575   -0.078726   -0.920768
      7          6           0        2.612479    0.568535   -0.579392
      8          6           0        3.040555    0.887347    0.651264
      9          6           0        2.465275    0.607931    1.998173
     10          9           0        4.228415    1.540322    0.744948
     11          6           0        1.400814   -1.099555   -2.038582
     12          9           0        0.520539   -0.828518   -3.032830
     13          9           0        1.104916   -2.349577   -1.598894
     14          9           0        2.623421   -1.163643   -2.607901
     15          1           0       -3.221110    1.754604    0.636704
     16          1           0       -2.905381    0.639357    1.958737
     17          1           0       -1.574708    1.573623    1.256259
     18          1           0       -3.365960   -1.651146   -1.031705
     19          1           0       -3.993210   -1.300502    0.592922
     20          1           0       -4.318376   -0.183299   -0.726318
     21          1           0       -1.135165   -1.257298   -1.251266
     22          1           0        0.184361    1.009776    0.413595
     23          1           0        3.296224    0.794985   -1.392539
     24          1           0        1.651291   -0.117154    1.938417
     25          1           0        3.253992    0.211455    2.648321
     26          1           0        2.086082    1.522646    2.472179
 ---------------------------------------------------------------------

 SCF Done:  E(RB3LYP) =  -787.618467188     A.U. after   15 cycles

 Excitation energies and oscillator strengths:

 Excited state symmetry could not be determined.
 Excited State   1:      Triplet-?Sym    2.1432 eV  578.51 nm  f=0.0000  <S**2>=2.000
      53 -> 56         0.12200
      54 -> 55         0.70124
      54 <- 55         0.14185
 This state for optimization and/or second-order correction.
 Total Energy, E(TD-HF/TD-DFT) =  -787.539707421
 Copying the excited state density for this state as the 1-particle RhoCI density.

 Excited state symmetry could not be determined.
 Excited State   2:      Triplet-?Sym    3.7880 eV  327.31 nm  f=0.0000  <S**2>=2.000
      53 -> 55         0.54276
      53 -> 56         0.13097
      54 -> 56         0.41352

 Excited state symmetry could not be determined.
 Excited State   3:      Singlet-?Sym    4.2757 eV  289.97 nm  f=0.6547  <S**2>=0.000
      54 -> 55         0.70092

 Excited state symmetry could not be determined.
 Excited State   4:      Singlet-?Sym    5.2710 eV  235.22 nm  f=0.0789  <S**2>=0.000
      53 -> 55         0.62362
      54 -> 56        -0.31467

 Alpha  occ. eigenvalues --  -24.72023 -24.71441 -24.71414 -24.69996 -10.42585
 Alpha  occ. eigenvalues --  -10.27771 -10.21594 -10.21292 -10.20877 -10.20020
 Alpha  occ. eigenvalues --  -10.19460 -10.19418 -10.19121 -10.18987  -1.29352
 Alpha  occ. eigenvalues --   -1.21077  -1.20809  -1.20285  -0.84622  -0.81868
 Alpha  occ. eigenvalues --   -0.77860  -0.73161  -0.70669  -0.70460  -0.66667
 Alpha  occ. eigenvalues --   -0.61618  -0.58440  -0.57140  -0.56755  -0.54109
 Alpha  occ. eigenvalues --   -0.50898  -0.49880  -0.48653  -0.46878  -0.46286
 Alpha  occ. eigenvalues --   -0.44980  -0.44929  -0.44314  -0.43047  -0.41954
 Alpha  occ. eigenvalues --   -0.41179  -0.40906  -0.40748  -0.39643  -0.39590
 Alpha  occ. eigenvalues --   -0.39059  -0.38779  -0.37338  -0.37174  -0.36321
 Alpha  occ. eigenvalues --   -0.34001  -0.32569  -0.27036  -0.21140
 Alpha virt. eigenvalues --   -0.05357   0.03180   0.06733   0.08069   0.09616
 Alpha virt. eigenvalues --    0.11488   0.12647   0.13126   0.14470   0.15139
 Alpha virt. eigenvalues --    0.16179   0.16549   0.17090   0.17625   0.19975

 Mulliken charges:
               1
     1  C   -0.516000
     2  C    0.177031
     3  C   -0.512949
     4  C   -0.171814
     5  C   -0.185426
     6  C   -0.013879
     7  C   -0.281974
     8  C    0.423311
     9  C   -0.541067
    10  F   -0.295199
    11  C    0.800742
    12  F   -0.274910
    13  F   -0.276051
    14  F   -0.269365
    15  H    0.164157
    16  H    0.161224
    17  H    0.159493
    18  H    0.163575
    19  H    0.157910
    20  H    0.159156
    21  H    0.141315
    22  H    0.141865
    23  H    0.160920
    24  H    0.177944
    25  H    0.177056
    26  H    0.172935
 Sum of Mulliken charges =  -0.00000

 Dipole moment (field-independent basis, Debye):
    X=             -2.5877    Y=              0.8926    Z=              2.4799  Tot=              3.6936
 Quadrupole moment (field-independent basis, Debye-Ang):
   XX=            -80.9145   YY=            -82.6522   ZZ=            -81.3388
   XY=             -0.6149   XZ=              1.8427   YZ=             -0.9889

 Normal termination of Gaussian 16 at Sat Nov  5 11:17:08 2022.
