 Gaussian 16, Revision B.01,
 Gaussian 16:  ES64L-G16RevB.01 20-Dec-2017

 -----------------------------
 #p b3lyp/6-31g(d) opt SCF=XQC
 -----------------------------

 ------------------------------
 Gaussian input prepared by ASE
 ------------------------------
 Symbolic Z-matrix:
 Charge =  0 Multiplicity = 1

 SCF Done:  E(RB3LYP) =  -787.615762596     A.U. after   15 cycles
 SCF Done:  E(RB3LYP) =  -787.617916521     A.U. after   12 cycles
 SCF Done:  E(RB3LYP) =  -787.618194752     A.U. after   12 cycles
 SCF Done:  E(RB3LYP) =  -787.618326491     A.U. after   11 cycles
 SCF Done:  E(RB3LYP) =  -787.618430876     A.U. after   11 cycles
 SCF Done:  E(RB3LYP) =  -787.618455462     A.U. after   10 cycles
 SCF Done:  E(RB3LYP) =  -787.618462354     A.U. after    8 cycles
 SCF Done:  E(RB3LYP) =  -787.618464044     A.U. after    8 cycles
 SCF Done:  E(RB3LYP) =  -787.618464731     A.U. after    7 cycles
 SCF Done:  E(RB3LYP) =  -787.618465480     A.U. after    7 cycles
 SCF Done:  E(RB3LYP) =  -787.618465819     A.U. after    7 cycles
 SCF Done:  E(RB3LYP) =  -787.618465919     A.U. after    7 cycles
 Optimization completed.
    -- Stationary point found.

                         Standard orientation:
 ---------------------------------------------------------------------
 Center     Atomic      Atomic             Coordinates (Angstroms)
 Number     Number       Type             X           Y           Z
 ---------------------------------------------------------------------
      1          6           0        3.004586   -2.178584   -0.471040
      2          6           0        2.959883   -0.730246   -0.059402
      3          6           0        4.303110   -0.131351    0.268830
      4          6           0        1.838969    0.025447    0.026206
      5          6           0        0.488110   -0.417180   -0.248541
      6          6           0       -0.646415    0.331601   -0.220049
      7          6           0       -1.987768   -0.208834   -0.447570
      8          6           0       -2.462595   -1.381512   -0.001734
      9          6           0       -1.868544   -2.404530    0.905857
     10          9           0       -3.723129   -1.723094   -0.376621
     11          6           0       -0.565879    1.823693    0.028832
     12          9           0        0.282335    2.446603   -0.825211
     13          9           0       -0.120730    2.105610    1.280152
     14          9           0       -1.766161    2.427289   -0.105298
     15          1           0        3.642712   -2.303481   -1.356724
     16          1           0        3.456739   -2.789095    0.322807
     17          1           0        2.026335   -2.603213   -0.705011
     18          1           0        4.223748    0.919871    0.560591
     19          1           0        4.788725   -0.679374    1.088814
     20          1           0        4.983795   -0.197861   -0.591770
     21          1           0        1.963257    1.058557    0.335398
     22          1           0        0.358181   -1.461065   -0.517696
     23          1           0       -2.687402    0.402778   -1.010097
     24          1           0       -0.970306   -2.024701    1.396559
     25          1           0       -2.607400   -2.677910    1.668299
     26          1           0       -1.609977   -3.323199    0.363304
 ---------------------------------------------------------------------

 The electronic state is 1-A.
 Alpha  occ. eigenvalues --  -24.72023 -24.71441 -24.71414 -24.69996 -10.42585
 Alpha  occ. eigenvalues --  -10.27771 -10.21594 -10.21292 -10.20877 -10.20020
 Alpha  occ. eigenvalues --  -10.19460 -10.19418 -10.19120 -10.18987  -1.29352
 Alpha  occ. eigenvalues --   -1.21077  -1.20809  -1.20285  -0.84622  -0.81868
 Alpha  occ. eigenvalues --   -0.77860  -0.73161  -0.70669  -0.70460  -0.66667
 Alpha  occ. eigenvalues --   -0.61618  -0.58440  -0.57140  -0.56755  -0.54109
 Alpha  occ. eigenvalues --   -0.50898  -0.49880  -0.48653  -0.46878  -0.46286
 Alpha  occ. eigenvalues --   -0.44980  -0.44929  -0.44314  -0.43047  -0.41954
 Alpha  occ. eigenvalues --   -0.41179  -0.40906  -0.40748  -0.39643  -0.39590
 Alpha  occ. eigenvalues --   -0.39059  -0.38779  -0.37338  -0.37174  -0.36321
 Alpha  occ. eigenvalues --   -0.34001  -0.32569  -0.27036  -0.21140
 Alpha virt. eigenvalues --   -0.05357   0.03180   0.06733   0.08069   0.09616
 Alpha virt. eigenvalues --    0.11488   0.12647   0.13126   0.14470   0.15139
 Alpha virt. eigenvalues --    0.16179   0.16549   0.17090   0.17625   0.19975

 Mulliken charges:
               1
     1  C   -0.516008
     2  C    0.177039
     3  C   -0.512952
     4  C   -0.171820
     5  C   -0.185414
     6  C   -0.013886
     7  C   -0.281981
     8  C    0.423312
     9  C   -0.541065
    10  F   -0.295199
    11  C    0.800747
    12  F   -0.274911
    13  F   -0.276052
    14  F   -0.269365
    15  H    0.164157
    16  H    0.161225
    17  H    0.159495
    18  H    0.163575
    19  H    0.157910
    20  H    0.159156
    21  H    0.141317
    22  H    0.141865
    23  H    0.160920
    24  H    0.177942
    25  H    0.177056
    26  H    0.172935
 Sum of Mulliken charges =  -0.00000

 Dipole moment (field-independent basis, Debye):
    X=              2.4356    Y=             -2.7552    Z=              0.3459  Tot=              3.6936
 Quadrupole moment (field-independent basis, Debye-Ang):
   XX=            -77.7999   YY=            -79.5745   ZZ=            -80.9933
   XY=             -2.2847   XZ=             -1.1860   YZ=             -1.4213

 1\1\GINC-NODE93\FOpt\RB3LYP\6-31G(d)\C10H12F4\WYKGROUP\04-Nov-2022\0\\
 #p b3lyp/6-31g(d) opt SCF=XQC\\Gaussian input prepared by ASE\\0,1\C,-
 2.4903338723,1.028450355,1.0186831091\C,-2.2968694831,-0.0889126428,0.
 0271186134\C,-3.5522306397,-0.8518220891,-0.3086039211\C,-1.1197579933
 ,-0.4278975757,-0.551107295\C,0.1601680535,0.2072421782,-0.3174152315\
 C,1.3445749526,-0.0787256729,-0.9207678612\C,2.6124785084,0.5685348074
 ,-0.5793917465\C,3.0405546112,0.8873473885,0.6512639123\C,2.4652745328
 ,0.6079306345,1.998172763\F,4.2284149247,1.5403217904,0.7449478959\C,1

 Normal termination of Gaussian 16 at Fri Nov  4 05:21:24 2022.
