 Gaussian 16, Revision B.01,
 Gaussian 16:  ES64L-G16RevB.01 20-Dec-2017

 -----------------------------
 #p b3lyp/6-31g(d) opt SCF=XQC
 -----------------------------

 ------------------------------
 Gaussian input prepared by ASE
 ------------------------------
 Symbolic Z-matrix:
 Charge =  0 Multiplicity = 1

 SCF Done:  E(RB3LYP) =  -1172.37349438     A.U. after   15 cycles
 SCF Done:  E(RB3LYP) =  -1172.37784762     A.U. after   12 cycles
 SCF Done:  E(RB3LYP) =  -1172.37848632     A.U. after   12 cycles
 SCF Done:  E(RB3LYP) =  -1172.37860894     A.U. after   12 cycles
 SCF Done:  E(RB3LYP) =  -1172.37873890     A.U. after   11 cycles
 SCF Done:  E(RB3LYP) =  -1172.37875089     A.U. after   10 cycles
 SCF Done:  E(RB3LYP) =  -1172.37875490     A.U. after    9 cycles
 SCF Done:  E(RB3LYP) =  -1172.37875639     A.U. after    8 cycles
 SCF Done:  E(RB3LYP) =  -1172.37875779     A.U. after    9 cycles
 SCF Done:  E(RB3LYP) =  -1172.37875897     A.U. after    9 cycles
 SCF Done:  E(RB3LYP) =  -1172.37875948     A.U. after    8 cycles
 SCF Done:  E(RB3LYP) =  -1172.37876029     A.U. after    9 cycles
 SCF Done:  E(RB3LYP) =  -1172.37876115     A.U. after   10 cycles
 SCF Done:  E(RB3LYP) =  -1172.37876152     A.U. after    8 cycles
 SCF Done:  E(RB3LYP) =  -1172.37876172     A.U. after    8 cycles
 SCF Done:  E(RB3LYP) =  -1172.37876181     A.U. after    7 cycles
 SCF Done:  E(RB3LYP) =  -1172.37876186     A.U. after    7 cycles
 Optimization completed.
    -- Stationary point found.

                         Standard orientation:
 ---------------------------------------------------------------------
 Center     Atomic      Atomic             Coordinates (Angstroms)
 Number     Number       Type             X           Y           Z
 ---------------------------------------------------------------------
      1          8           0        2.692253    0.716647    1.909436
      2          6           0        2.567013   -0.095685    0.996689
      3          6           0        1.248297   -0.635221    0.606702
      4          6           0       -0.040149   -0.321955    1.005067
      5          6           0       -0.857648   -1.225547    0.294541
      6          6           0       -2.346302   -1.362261    0.324561
      7          8           0       -2.919812   -0.102012   -0.035223
      8          6           0       -4.278764    0.014869   -0.028854
      9          6           0       -5.169972   -1.030203    0.250195
     10          6           0       -6.546117   -0.782211    0.222200
     11          6           0       -7.052293    0.479524   -0.078146
     12          6           0       -6.138079    1.494337   -0.352471
     13          9           0       -6.604034    2.727212   -0.647146
     14          6           0       -4.768599    1.293408   -0.334616
     15          7           0       -0.131535   -2.043230   -0.485195
     16          7           0        1.136600   -1.661000   -0.287241
     17          6           0        2.284522   -2.351018   -0.846617
     18          6           0        3.420507   -1.337667   -0.974197
     19          7           0        3.634103   -0.614418    0.286461
     20          6           0        4.969076   -0.093503    0.578229
     21          6           0        5.387990    1.059241   -0.300710
     22          9           0        5.543922    0.644785   -1.620317
     23          6           0        4.878587    2.451336   -0.110943
     24          6           0        6.338639    2.116562    0.166270
     25          1           0       -0.333642    0.456875    1.692230
     26          1           0       -2.649379   -2.145743   -0.380579
     27          1           0       -2.694139   -1.644895    1.328499
     28          1           0       -4.810992   -2.025473    0.482152
     29          1           0       -7.233024   -1.595597    0.438947
     30          1           0       -8.116299    0.686434   -0.104114
     31          1           0       -4.082870    2.104194   -0.551662
     32          1           0        2.006504   -2.752651   -1.823575
     33          1           0        2.570601   -3.183785   -0.191306
     34          1           0        3.209478   -0.637106   -1.792708
     35          1           0        4.347300   -1.858970   -1.226821
     36          1           0        5.690273   -0.912320    0.464904
     37          1           0        4.965776    0.227941    1.620953
     38          1           0        4.211072    2.634403    0.725227
     39          1           0        4.666091    3.018505   -1.012354
     40          1           0        7.072834    2.458357   -0.557195
     41          1           0        6.687471    2.091265    1.195282
 ---------------------------------------------------------------------

 The electronic state is 1-A.
 Alpha  occ. eigenvalues --  -24.69675 -24.68803 -19.18014 -19.12391 -14.42643
 Alpha  occ. eigenvalues --  -14.37817 -14.36366 -10.30267 -10.27638 -10.26747
 Alpha  occ. eigenvalues --  -10.25389 -10.25340 -10.25146 -10.24936 -10.23682
 Alpha  occ. eigenvalues --  -10.23373 -10.22119 -10.20058 -10.19789 -10.19571
 Alpha  occ. eigenvalues --  -10.19383 -10.18812 -10.18577 -10.18565  -1.20823
 Alpha  occ. eigenvalues --   -1.19353  -1.07128  -1.06536  -1.04099  -0.95312
 Alpha  occ. eigenvalues --   -0.87514  -0.86348  -0.85273  -0.80752  -0.78297
 Alpha  occ. eigenvalues --   -0.75392  -0.74289  -0.73458  -0.71153  -0.66154
 Alpha  occ. eigenvalues --   -0.63624  -0.61866  -0.61820  -0.60761  -0.58786
 Alpha  occ. eigenvalues --   -0.58252  -0.55243  -0.54942  -0.54492  -0.51705
 Alpha  occ. eigenvalues --   -0.50807  -0.50388  -0.49787  -0.49410  -0.48575
 Alpha  occ. eigenvalues --   -0.48210  -0.47594  -0.45971  -0.45239  -0.44903
 Alpha  occ. eigenvalues --   -0.43924  -0.43694  -0.43578  -0.43238  -0.42462
 Alpha  occ. eigenvalues --   -0.41430  -0.41144  -0.40768  -0.39275  -0.38968
 Alpha  occ. eigenvalues --   -0.38521  -0.38067  -0.37653  -0.37412  -0.36834
 Alpha  occ. eigenvalues --   -0.35569  -0.33392  -0.31676  -0.31129  -0.30782
 Alpha  occ. eigenvalues --   -0.28735  -0.26651  -0.26045  -0.25789  -0.24925
 Alpha  occ. eigenvalues --   -0.24324  -0.22247
 Alpha virt. eigenvalues --   -0.03864  -0.00096   0.01558   0.02620   0.07384
 Alpha virt. eigenvalues --    0.07999   0.08845   0.09330   0.10195   0.11522
 Alpha virt. eigenvalues --    0.11970   0.12376   0.12796   0.13328   0.13714

 Mulliken charges:
               1
     1  O   -0.536117
     2  C    0.595466
     3  C    0.350227
     4  C   -0.289133
     5  C    0.297112
     6  C   -0.114511
     7  O   -0.519231
     8  C    0.390930
     9  C   -0.194640
    10  C   -0.139344
    11  C   -0.200806
    12  C    0.384793
    13  F   -0.300856
    14  C   -0.257936
    15  N   -0.334715
    16  N   -0.334173
    17  C   -0.138983
    18  C   -0.159934
    19  N   -0.467414
    20  C   -0.206679
    21  C    0.402161
    22  F   -0.325873
    23  C   -0.359017
    24  C   -0.361243
    25  H    0.165854
    26  H    0.165366
    27  H    0.154992
    28  H    0.138779
    29  H    0.137872
    30  H    0.141349
    31  H    0.153382
    32  H    0.187344
    33  H    0.176201
    34  H    0.181280
    35  H    0.170475
    36  H    0.157126
    37  H    0.189686
    38  H    0.194521
    39  H    0.170020
    40  H    0.172098
    41  H    0.163573
 Sum of Mulliken charges =  -0.00000

 Dipole moment (field-independent basis, Debye):
    X=              3.2838    Y=             -3.1032    Z=             -0.3932  Tot=              4.5352
 Quadrupole moment (field-independent basis, Debye-Ang):
   XX=           -123.2845   YY=           -132.3025   ZZ=           -141.8606
   XY=              5.6255   XZ=             -5.6317   YZ=             -1.3834

 Normal termination of Gaussian 16 at Fri Nov  4 18:32:42 2022.
