 Gaussian 16, Revision B.01,
 Gaussian 16:  ES64L-G16RevB.01 20-Dec-2017

 -------------------------------------------------------------------
 #p b3lyp/6-31g(d) 6D 10F nosymm GFInput td=(50-50,nstate=2) SCF=XQC
 -------------------------------------------------------------------

 ------------------------------
 Gaussian input prepared by ASE
 ------------------------------
 Symbolic Z-matrix:
 Charge =  0 Multiplicity = 1

                          Input orientation:
 ---------------------------------------------------------------------
 Center     Atomic      Atomic             Coordinates (Angstroms)
 Number     Number       Type             X           Y           Z
 ---------------------------------------------------------------------
      1          8           0       -2.337532   -0.962601    1.836921
      2          6           0       -2.183795    0.003752    1.094491
      3          6           0       -0.842055    0.493783    0.717918
      4          6           0        0.429003   -0.005098    0.946940
      5          6           0        1.291191    0.948780    0.366957
      6          6           0        2.785278    0.945942    0.308851
      7          8           0        3.206856   -0.260420   -0.334224
      8          6           0        4.545147   -0.494469   -0.455264
      9          6           0        5.551953    0.390386   -0.045789
     10          6           0        6.892096    0.033921   -0.227473
     11          6           0        7.250079   -1.180054   -0.807568
     12          6           0        6.223751   -2.034342   -1.204722
     13          9           0        6.545028   -3.217804   -1.770521
     14          6           0        4.884890   -1.722308   -1.042698
     15          7           0        0.607573    1.967793   -0.179040
     16          7           0       -0.679127    1.665691    0.036803
     17          6           0       -1.781863    2.552387   -0.286458
     18          6           0       -3.019837    1.689161   -0.522849
     19          7           0       -3.232253    0.746898    0.583944
     20          6           0       -4.593927    0.296358    0.869407
     21          6           0       -5.177147   -0.613197   -0.183876
     22          9           0       -5.366339    0.072130   -1.380531
     23          6           0       -4.800833   -2.053938   -0.310698
     24          6           0       -6.201163   -1.656013    0.138081
     25          1           0        0.681517   -0.929647    1.443280
     26          1           0        3.124717    1.826538   -0.249948
     27          1           0        3.217248    0.987724    1.319009
     28          1           0        5.309310    1.345465    0.403855
     29          1           0        7.668995    0.723285    0.091312
     30          1           0        8.284467   -1.469581   -0.955246
     31          1           0        4.109408   -2.409178   -1.361355
     32          1           0       -1.521566    3.117834   -1.183990
     33          1           0       -1.944073    3.256792    0.539541
     34          1           0       -2.928238    1.153338   -1.476674
     35          1           0       -3.902276    2.329804   -0.596336
     36          1           0       -5.234079    1.180975    0.974699
     37          1           0       -4.562920   -0.228793    1.825370
     38          1           0       -4.108070   -2.460305    0.419517
     39          1           0       -4.699090   -2.442985   -1.319494
     40          1           0       -7.006653   -1.778580   -0.579855
     41          1           0       -6.485673   -1.809422    1.175726
 ---------------------------------------------------------------------

 SCF Done:  E(RB3LYP) =  -1172.37875856     A.U. after   15 cycles

 Excitation energies and oscillator strengths:

 Excited state symmetry could not be determined.
 Excited State   1:      Triplet-?Sym    3.7695 eV  328.91 nm  f=0.0000  <S**2>=2.000
      86 -> 89         0.41165
      86 -> 90         0.16337
      87 -> 89        -0.35378
      87 -> 90         0.39820
 This state for optimization and/or second-order correction.
 Total Energy, E(TD-HF/TD-DFT) =  -1172.24023088
 Copying the excited state density for this state as the 1-particle RhoCI density.

 Excited state symmetry could not be determined.
 Excited State   2:      Triplet-?Sym    3.7960 eV  326.62 nm  f=0.0000  <S**2>=2.000
      82 -> 88         0.14958
      83 -> 88        -0.22678
      84 -> 88         0.61627

 Excited state symmetry could not be determined.
 Excited State   3:      Singlet-?Sym    4.5367 eV  273.29 nm  f=0.0017  <S**2>=0.000
      87 -> 88         0.70303

 Excited state symmetry could not be determined.
 Excited State   4:      Singlet-?Sym    4.6668 eV  265.67 nm  f=0.0027  <S**2>=0.000
      82 -> 88         0.47154
      83 -> 88         0.38846
      85 -> 88        -0.32032

 Alpha  occ. eigenvalues --  -24.69675 -24.68802 -19.18014 -19.12391 -14.42643
 Alpha  occ. eigenvalues --  -14.37817 -14.36366 -10.30267 -10.27638 -10.26747
 Alpha  occ. eigenvalues --  -10.25389 -10.25340 -10.25146 -10.24936 -10.23682
 Alpha  occ. eigenvalues --  -10.23373 -10.22119 -10.20058 -10.19789 -10.19571
 Alpha  occ. eigenvalues --  -10.19383 -10.18812 -10.18577 -10.18565  -1.20823
 Alpha  occ. eigenvalues --   -1.19353  -1.07128  -1.06536  -1.04099  -0.95312
 Alpha  occ. eigenvalues --   -0.87514  -0.86348  -0.85273  -0.80752  -0.78297
 Alpha  occ. eigenvalues --   -0.75392  -0.74289  -0.73458  -0.71153  -0.66154
 Alpha  occ. eigenvalues --   -0.63624  -0.61866  -0.61820  -0.60761  -0.58786
 Alpha  occ. eigenvalues --   -0.58252  -0.55243  -0.54942  -0.54492  -0.51705
 Alpha  occ. eigenvalues --   -0.50807  -0.50388  -0.49787  -0.49410  -0.48575
 Alpha  occ. eigenvalues --   -0.48210  -0.47594  -0.45971  -0.45239  -0.44903
 Alpha  occ. eigenvalues --   -0.43924  -0.43694  -0.43578  -0.43238  -0.42462
 Alpha  occ. eigenvalues --   -0.41430  -0.41144  -0.40768  -0.39275  -0.38968
 Alpha  occ. eigenvalues --   -0.38521  -0.38067  -0.37653  -0.37412  -0.36834
 Alpha  occ. eigenvalues --   -0.35569  -0.33392  -0.31676  -0.31129  -0.30782
 Alpha  occ. eigenvalues --   -0.28735  -0.26651  -0.26045  -0.25789  -0.24925
 Alpha  occ. eigenvalues --   -0.24324  -0.22247
 Alpha virt. eigenvalues --   -0.03864  -0.00096   0.01558   0.02620   0.07384
 Alpha virt. eigenvalues --    0.07999   0.08845   0.09330   0.10195   0.11522
 Alpha virt. eigenvalues --    0.11970   0.12376   0.12796   0.13328   0.13714

 Mulliken charges:
               1
     1  O   -0.536109
     2  C    0.595435
     3  C    0.350240
     4  C   -0.289134
     5  C    0.297120
     6  C   -0.114513
     7  O   -0.519236
     8  C    0.390944
     9  C   -0.194651
    10  C   -0.139336
    11  C   -0.200808
    12  C    0.384789
    13  F   -0.300855
    14  C   -0.257936
    15  N   -0.334720
    16  N   -0.334172
    17  C   -0.138990
    18  C   -0.159943
    19  N   -0.467401
    20  C   -0.206672
    21  C    0.402154
    22  F   -0.325874
    23  C   -0.359003
    24  C   -0.361242
    25  H    0.165853
    26  H    0.165366
    27  H    0.154992
    28  H    0.138779
    29  H    0.137871
    30  H    0.141348
    31  H    0.153382
    32  H    0.187346
    33  H    0.176202
    34  H    0.181282
    35  H    0.170477
    36  H    0.157126
    37  H    0.189684
    38  H    0.194518
    39  H    0.170018
    40  H    0.172097
    41  H    0.163571
 Sum of Mulliken charges =  -0.00000

 Dipole moment (field-independent basis, Debye):
    X=             -2.9708    Y=              3.3933    Z=              0.4767  Tot=              4.5352
 Quadrupole moment (field-independent basis, Debye-Ang):
   XX=           -123.4229   YY=           -134.6921   ZZ=           -141.9580
   XY=              4.9620   XZ=              5.8476   YZ=              1.9291

 Normal termination of Gaussian 16 at Sat Nov  5 11:23:08 2022.
