 Gaussian 16, Revision B.01,
 Gaussian 16:  ES64L-G16RevB.01 20-Dec-2017

 -----------------------------
 #p b3lyp/6-31g(d) opt SCF=XQC
 -----------------------------

 ------------------------------
 Gaussian input prepared by ASE
 ------------------------------
 Symbolic Z-matrix:
 Charge =  0 Multiplicity = 1

 SCF Done:  E(RB3LYP) =  -381.286040682     A.U. after   14 cycles
 SCF Done:  E(RB3LYP) =  -381.288026544     A.U. after   12 cycles
 SCF Done:  E(RB3LYP) =  -381.288128839     A.U. after   10 cycles
 SCF Done:  E(RB3LYP) =  -381.288150346     A.U. after   10 cycles
 Optimization completed.
    -- Stationary point found.

                         Standard orientation:
 ---------------------------------------------------------------------
 Center     Atomic      Atomic             Coordinates (Angstroms)
 Number     Number       Type             X           Y           Z
 ---------------------------------------------------------------------
      1          6           0       -3.113662   -0.657944    0.000000
      2          6           0       -1.856157    0.180972    0.000000
      3          7           0       -1.800844    1.455735   -0.000000
      4          6           0       -0.554987   -0.596944    0.000001
      5          7           0        0.581680    0.290707   -0.000001
      6          6           0        1.855097   -0.188702   -0.000001
      7          6           0        2.954209    0.864739    0.000001
      8          8           0        2.100587   -1.391417   -0.000000
      9          1           0       -3.143738   -1.310648   -0.881331
     10          1           0       -3.143736   -1.310651    0.881329
     11          1           0       -4.010284   -0.030620    0.000002
     12          1           0       -2.738346    1.869363   -0.000000
     13          1           0       -0.527173   -1.264481    0.874275
     14          1           0       -0.527173   -1.264484   -0.874272
     15          1           0        0.363437    1.280057   -0.000001
     16          1           0        3.585730    0.716212    0.881582
     17          1           0        2.577975    1.892570   -0.000017
     18          1           0        3.585753    0.716190   -0.881560
 ---------------------------------------------------------------------

 The electronic state is 1-A.
 Alpha  occ. eigenvalues --  -19.09295 -14.34564 -14.33162 -10.27295 -10.25552
 Alpha  occ. eigenvalues --  -10.22732 -10.20702 -10.18152  -1.01447  -0.93421
 Alpha  occ. eigenvalues --   -0.89446  -0.76298  -0.73726  -0.69124  -0.58360
 Alpha  occ. eigenvalues --   -0.56509  -0.49945  -0.47390  -0.47019  -0.44989
 Alpha  occ. eigenvalues --   -0.43615  -0.43478  -0.41465  -0.39378  -0.38128
 Alpha  occ. eigenvalues --   -0.37617  -0.34183  -0.31281  -0.28012  -0.24171
 Alpha  occ. eigenvalues --   -0.23372
 Alpha virt. eigenvalues --   -0.00821   0.04268   0.07449   0.09975   0.11044
 Alpha virt. eigenvalues --    0.13366   0.14484   0.15688   0.15761   0.18030
 Alpha virt. eigenvalues --    0.19103   0.19279   0.21698   0.22485   0.25305

 Mulliken charges:
               1
     1  C   -0.510176
     2  C    0.295014
     3  N   -0.594823
     4  C   -0.131269
     5  N   -0.610185
     6  C    0.596153
     7  C   -0.533543
     8  O   -0.523568
     9  H    0.177671
    10  H    0.177671
    11  H    0.159668
    12  H    0.288527
    13  H    0.175350
    14  H    0.175350
    15  H    0.351355
    16  H    0.180475
    17  H    0.145857
    18  H    0.180475
 Sum of Mulliken charges =  -0.00000

 Dipole moment (field-independent basis, Debye):
    X=             -3.6106    Y=              1.5854    Z=              0.0000  Tot=              3.9434
 Quadrupole moment (field-independent basis, Debye-Ang):
   XX=            -41.7173   YY=            -52.1570   ZZ=            -48.0836
   XY=              7.9014   XZ=              0.0000   YZ=              0.0000

 Normal termination of Gaussian 16 at Fri Nov  4 18:18:00 2022.
