 Gaussian 16, Revision B.01,
 Gaussian 16:  ES64L-G16RevB.01 20-Dec-2017

 -------------------------------------------------------------------
 #p b3lyp/6-31g(d) 6D 10F nosymm GFInput td=(50-50,nstate=2) SCF=XQC
 -------------------------------------------------------------------

 ------------------------------
 Gaussian input prepared by ASE
 ------------------------------
 Symbolic Z-matrix:
 Charge =  0 Multiplicity = 1

                          Input orientation:
 ---------------------------------------------------------------------
 Center     Atomic      Atomic             Coordinates (Angstroms)
 Number     Number       Type             X           Y           Z
 ---------------------------------------------------------------------
      1          6           0        2.524808    1.018534   -1.257129
      2          6           0        1.544791    0.541181   -0.209848
      3          7           0        1.771332    0.435129    1.041356
      4          6           0        0.172201    0.160349   -0.728650
      5          7           0       -0.685466   -0.280023    0.343925
      6          6           0       -1.967370   -0.672103    0.110650
      7          6           0       -2.754199   -1.111330    1.337748
      8          8           0       -2.456357   -0.671399   -1.015263
      9          1           0        2.685716    0.244838   -2.018165
     10          1           0        2.135158    1.902001   -1.778024
     11          1           0        3.490527    1.274692   -0.810771
     12          1           0        2.728301    0.719612    1.272175
     13          1           0       -0.272004    1.018881   -1.254331
     14          1           0        0.274144   -0.625014   -1.492554
     15          1           0       -0.268154   -0.275161    1.267109
     16          1           0       -3.645849   -0.483085    1.429032
     17          1           0       -2.182411   -1.056396    2.269429
     18          1           0       -3.095169   -2.140708    1.188806
 ---------------------------------------------------------------------

 SCF Done:  E(RB3LYP) =  -381.288150861     A.U. after   14 cycles

 Excitation energies and oscillator strengths:

 Excited state symmetry could not be determined.
 Excited State   1:      Triplet-?Sym    4.8575 eV  255.24 nm  f=0.0000  <S**2>=2.000
      29 -> 32         0.66355
      31 -> 32         0.23500
 This state for optimization and/or second-order correction.
 Total Energy, E(TD-HF/TD-DFT) =  -381.109641274
 Copying the excited state density for this state as the 1-particle RhoCI density.

 Excited state symmetry could not be determined.
 Excited State   2:      Triplet-?Sym    5.1549 eV  240.52 nm  f=0.0000  <S**2>=2.000
      31 -> 33         0.70108

 Excited state symmetry could not be determined.
 Excited State   3:      Singlet-?Sym    5.4218 eV  228.68 nm  f=0.0001  <S**2>=0.000
      29 -> 32         0.14618
      31 -> 32         0.69064

 Excited state symmetry could not be determined.
 Excited State   4:      Singlet-?Sym    5.4754 eV  226.44 nm  f=0.0097  <S**2>=0.000
      30 -> 32         0.70609

 Alpha  occ. eigenvalues --  -19.09295 -14.34564 -14.33162 -10.27295 -10.25552
 Alpha  occ. eigenvalues --  -10.22732 -10.20702 -10.18152  -1.01447  -0.93421
 Alpha  occ. eigenvalues --   -0.89446  -0.76298  -0.73726  -0.69124  -0.58360
 Alpha  occ. eigenvalues --   -0.56509  -0.49945  -0.47390  -0.47019  -0.44989
 Alpha  occ. eigenvalues --   -0.43615  -0.43478  -0.41465  -0.39378  -0.38128
 Alpha  occ. eigenvalues --   -0.37617  -0.34183  -0.31281  -0.28012  -0.24171
 Alpha  occ. eigenvalues --   -0.23372
 Alpha virt. eigenvalues --   -0.00821   0.04268   0.07449   0.09975   0.11044
 Alpha virt. eigenvalues --    0.13366   0.14484   0.15688   0.15761   0.18030
 Alpha virt. eigenvalues --    0.19103   0.19279   0.21698   0.22485   0.25305

 Mulliken charges:
               1
     1  C   -0.510176
     2  C    0.295008
     3  N   -0.594818
     4  C   -0.131271
     5  N   -0.610186
     6  C    0.596160
     7  C   -0.533545
     8  O   -0.523571
     9  H    0.177671
    10  H    0.177671
    11  H    0.159668
    12  H    0.288527
    13  H    0.175351
    14  H    0.175351
    15  H    0.351355
    16  H    0.180474
    17  H    0.145857
    18  H    0.180474
 Sum of Mulliken charges =  -0.00000

 Dipole moment (field-independent basis, Debye):
    X=              3.6840    Y=              1.0962    Z=              0.8815  Tot=              3.9434
 Quadrupole moment (field-independent basis, Debye-Ang):
   XX=            -47.5709   YY=            -47.1757   ZZ=            -48.9905
   XY=              1.4793   XZ=             -9.0949   YZ=             -2.8923

 Normal termination of Gaussian 16 at Sat Nov  5 11:17:52 2022.
