 Gaussian 16, Revision B.01,
 Gaussian 16:  ES64L-G16RevB.01 20-Dec-2017

 -------------------------------------------------------------------
 #p b3lyp/6-31g(d) 6D 10F nosymm GFInput td=(50-50,nstate=2) SCF=XQC
 -------------------------------------------------------------------

 ------------------------------
 Gaussian input prepared by ASE
 ------------------------------
 Symbolic Z-matrix:
 Charge =  0 Multiplicity = 1

                          Input orientation:
 ---------------------------------------------------------------------
 Center     Atomic      Atomic             Coordinates (Angstroms)
 Number     Number       Type             X           Y           Z
 ---------------------------------------------------------------------
      1          6           0       -6.354594    0.815692   -0.697209
      2          6           0       -4.952256    0.270000   -0.576820
      3          6           0       -4.508903   -0.175316    0.679711
      4          6           0       -3.236518   -0.696396    0.887329
      5          6           0       -2.326378   -0.808723   -0.172388
      6          6           0       -0.953219   -1.422783    0.032028
      7          7           0       -0.307956   -0.940143    1.256390
      8          6           0        0.824436   -1.762173    1.719290
      9          6           0        2.206068   -1.191449    1.308456
     10          7           0        2.073192   -0.474936    0.041087
     11          6           0        3.322043   -0.332840   -0.723742
     12          6           0        3.057483    0.165482   -2.149167
     13          6           0        4.404758    0.465984   -0.008743
     14          7           0        5.256801   -0.079804    0.815998
     15          6           0        6.093291    0.857264    1.376196
     16          6           0        5.893844    2.149280    0.985580
     17         16           0        4.587730    2.219496   -0.150977
     18          6           0        1.244525    0.728201    0.180322
     19          6           0        0.100734    0.461111    1.194143
     20          6           0       -2.735859   -0.374352   -1.428802
     21          6           0       -4.017664    0.151482   -1.624182
     22          7           0       -4.331527    0.585684   -2.997459
     23          8           0       -3.520247    0.317724   -3.885611
     24          8           0       -5.382426    1.198346   -3.195536
     25          1           0       -6.872125    0.706269    0.260826
     26          1           0       -6.929639    0.297562   -1.469595
     27          1           0       -6.353313    1.872887   -0.977702
     28          1           0       -5.197028   -0.106303    1.518116
     29          1           0       -2.928012   -1.013030    1.879215
     30          1           0       -1.073707   -2.508452    0.142540
     31          1           0       -0.343260   -1.271873   -0.873502
     32          1           0        0.785830   -1.844563    2.815435
     33          1           0        0.702849   -2.771946    1.315348
     34          1           0        2.926213   -2.005438    1.180167
     35          1           0        2.612336   -0.551414    2.111747
     36          1           0        3.739903   -1.344209   -0.790264
     37          1           0        2.719417    1.206913   -2.176381
     38          1           0        3.971686    0.098522   -2.747044
     39          1           0        2.286040   -0.454181   -2.616429
     40          1           0        6.854197    0.532018    2.077022
     41          1           0        6.430041    3.038050    1.288348
     42          1           0        1.815573    1.609791    0.524579
     43          1           0        0.827622    0.980651   -0.801260
     44          1           0       -0.763536    1.086520    0.949551
     45          1           0        0.423040    0.750376    2.201800
     46          1           0       -2.071485   -0.434983   -2.282502
 ---------------------------------------------------------------------

 SCF Done:  E(RB3LYP) =  -1428.57135485     A.U. after   16 cycles

 Excitation energies and oscillator strengths:

 Excited state symmetry could not be determined.
 Excited State   1:      Triplet-?Sym    2.8690 eV  432.16 nm  f=0.0000  <S**2>=2.000
      83 -> 93        -0.67679
      83 -> 96         0.20485
      92 -> 93         0.11680
      83 <- 93        -0.15651
 This state for optimization and/or second-order correction.
 Total Energy, E(TD-HF/TD-DFT) =  -1428.46592215
 Copying the excited state density for this state as the 1-particle RhoCI density.

 Excited state symmetry could not be determined.
 Excited State   2:      Triplet-?Sym    2.8995 eV  427.60 nm  f=0.0000  <S**2>=2.000
      83 -> 93         0.10858
      88 -> 93        -0.12795
      89 -> 93         0.11243
      91 -> 93        -0.13900
      92 -> 93         0.65665

 Excited state symmetry could not be determined.
 Excited State   3:      Singlet-?Sym    2.9386 eV  421.91 nm  f=0.0021  <S**2>=0.000
      91 -> 93        -0.11810
      92 -> 93         0.69585

 Excited state symmetry could not be determined.
 Excited State   4:      Singlet-?Sym    3.3421 eV  370.98 nm  f=0.0022  <S**2>=0.000
      91 -> 93         0.69594
      92 -> 93         0.11940

 Alpha  occ. eigenvalues --  -88.91678 -19.17348 -19.17232 -14.56497 -14.33676
 Alpha  occ. eigenvalues --  -14.33348 -14.32974 -10.25246 -10.24735 -10.23553
 Alpha  occ. eigenvalues --  -10.22674 -10.22310 -10.22203 -10.21821 -10.21292
 Alpha  occ. eigenvalues --  -10.21133 -10.21102 -10.20949 -10.20875 -10.20852
 Alpha  occ. eigenvalues --  -10.20585 -10.20509 -10.18891 -10.18732  -7.97805
 Alpha  occ. eigenvalues --   -5.94181  -5.93834  -5.93540  -1.21639  -1.04211
 Alpha  occ. eigenvalues --   -0.96576  -0.94669  -0.90652  -0.88374  -0.80743
 Alpha  occ. eigenvalues --   -0.79907  -0.79084  -0.78333  -0.76081  -0.73388
 Alpha  occ. eigenvalues --   -0.72544  -0.70556  -0.67448  -0.66112  -0.64295
 Alpha  occ. eigenvalues --   -0.62272  -0.61290  -0.58650  -0.57877  -0.55798
 Alpha  occ. eigenvalues --   -0.53910  -0.52478  -0.52390  -0.51092  -0.50689
 Alpha  occ. eigenvalues --   -0.50051  -0.49105  -0.48954  -0.48791  -0.47234
 Alpha  occ. eigenvalues --   -0.45197  -0.44985  -0.43986  -0.42552  -0.42385
 Alpha  occ. eigenvalues --   -0.42024  -0.41837  -0.41228  -0.40569  -0.40248
 Alpha  occ. eigenvalues --   -0.39484  -0.38489  -0.37976  -0.37896  -0.37035
 Alpha  occ. eigenvalues --   -0.36969  -0.36529  -0.35733  -0.35588  -0.35159
 Alpha  occ. eigenvalues --   -0.34741  -0.33349  -0.30201  -0.29866  -0.28515
 Alpha  occ. eigenvalues --   -0.28194  -0.27676  -0.27107  -0.25637  -0.24764
 Alpha  occ. eigenvalues --   -0.22091  -0.20783
 Alpha virt. eigenvalues --   -0.08101  -0.02757  -0.01672   0.00352   0.01942
 Alpha virt. eigenvalues --    0.04591   0.07051   0.08511   0.09541   0.10048
 Alpha virt. eigenvalues --    0.10815   0.11546   0.11704   0.11997   0.12565

 Mulliken charges:
               1
     1  C   -0.500519
     2  C    0.161882
     3  C   -0.198646
     4  C   -0.136299
     5  C    0.137526
     6  C   -0.201740
     7  N   -0.385526
     8  C   -0.123585
     9  C   -0.147467
    10  N   -0.393859
    11  C   -0.002319
    12  C   -0.478256
    13  C    0.081798
    14  N   -0.406996
    15  C    0.051729
    16  C   -0.349694
    17  S    0.230194
    18  C   -0.138855
    19  C   -0.178869
    20  C   -0.223932
    21  C    0.216929
    22  N    0.372818
    23  O   -0.398509
    24  O   -0.404689
    25  H    0.146107
    26  H    0.180522
    27  H    0.184596
    28  H    0.137721
    29  H    0.154033
    30  H    0.156100
    31  H    0.148257
    32  H    0.137421
    33  H    0.139268
    34  H    0.155144
    35  H    0.130975
    36  H    0.166534
    37  H    0.161399
    38  H    0.163313
    39  H    0.163941
    40  H    0.152408
    41  H    0.179854
    42  H    0.133156
    43  H    0.144888
    44  H    0.155347
    45  H    0.149647
    46  H    0.176251
 Sum of Mulliken charges =  -0.00000

 Dipole moment (field-independent basis, Debye):
    X=              1.9782    Y=             -0.1024    Z=              3.9388  Tot=              4.4089
 Quadrupole moment (field-independent basis, Debye-Ang):
   XX=           -147.3040   YY=           -144.1040   ZZ=           -162.4130
   XY=             10.5058   XZ=            -15.7774   YZ=              5.4362

 Normal termination of Gaussian 16 at Sat Nov  5 11:33:26 2022.
