 Gaussian 16, Revision B.01,
 Gaussian 16:  ES64L-G16RevB.01 20-Dec-2017

 -----------------------------
 #p b3lyp/6-31g(d) opt SCF=XQC
 -----------------------------

 ------------------------------
 Gaussian input prepared by ASE
 ------------------------------
 Symbolic Z-matrix:
 Charge =  0 Multiplicity = 1

 SCF Done:  E(RB3LYP) =  -1428.56201837     A.U. after   16 cycles
 SCF Done:  E(RB3LYP) =  -1428.56983034     A.U. after   14 cycles
 SCF Done:  E(RB3LYP) =  -1428.57050995     A.U. after   13 cycles
 SCF Done:  E(RB3LYP) =  -1428.56740066     A.U. after   14 cycles
 SCF Done:  E(RB3LYP) =  -1428.57110040     A.U. after   12 cycles
 SCF Done:  E(RB3LYP) =  -1428.57125450     A.U. after   13 cycles
 SCF Done:  E(RB3LYP) =  -1428.57130580     A.U. after   12 cycles
 SCF Done:  E(RB3LYP) =  -1428.57133687     A.U. after   11 cycles
 SCF Done:  E(RB3LYP) =  -1428.57134843     A.U. after   12 cycles
 SCF Done:  E(RB3LYP) =  -1428.57135236     A.U. after    9 cycles
 SCF Done:  E(RB3LYP) =  -1428.57135419     A.U. after    9 cycles
 SCF Done:  E(RB3LYP) =  -1428.57135500     A.U. after   10 cycles
 SCF Done:  E(RB3LYP) =  -1428.57135556     A.U. after   10 cycles
 SCF Done:  E(RB3LYP) =  -1428.57135610     A.U. after    9 cycles
 SCF Done:  E(RB3LYP) =  -1428.57135659     A.U. after   11 cycles
 SCF Done:  E(RB3LYP) =  -1428.57135697     A.U. after   10 cycles
 SCF Done:  E(RB3LYP) =  -1428.57135719     A.U. after   10 cycles
 SCF Done:  E(RB3LYP) =  -1428.57135728     A.U. after    9 cycles
 SCF Done:  E(RB3LYP) =  -1428.57135731     A.U. after    8 cycles
 SCF Done:  E(RB3LYP) =  -1428.57135731     A.U. after    7 cycles
 Optimization completed.
    -- Stationary point found.

                         Standard orientation:
 ---------------------------------------------------------------------
 Center     Atomic      Atomic             Coordinates (Angstroms)
 Number     Number       Type             X           Y           Z
 ---------------------------------------------------------------------
      1          6           0       -6.328440    0.275748   -1.304475
      2          6           0       -4.964024    0.448532   -0.682110
      3          6           0       -4.307052    1.681261   -0.832135
      4          6           0       -3.051084    1.935113   -0.292045
      5          6           0       -2.376983    0.953520    0.446895
      6          6           0       -1.028426    1.236393    1.083919
      7          7           0       -0.126566    1.950977    0.175963
      8          6           0        1.025582    2.593056    0.833695
      9          6           0        2.329103    1.759018    0.740788
     10          7           0        1.989470    0.337472    0.707223
     11          6           0        3.068134   -0.567106    1.135015
     12          6           0        2.555713   -1.996401    1.346429
     13          6           0        4.315415   -0.508467    0.261822
     14          7           0        5.280919    0.346071    0.465837
     15          6           0        6.264609    0.238917   -0.489415
     16          6           0        6.066838   -0.709260   -1.450411
     17         16           0        4.567743   -1.528703   -1.160839
     18          6           0        1.275853   -0.022725   -0.523477
     19          6           0        0.342082    1.141936   -0.946640
     20          6           0       -3.001422   -0.278536    0.611352
     21          6           0       -4.263908   -0.522929    0.059898
     22          7           0       -4.817948   -1.868626    0.294565
     23          8           0       -4.215596   -2.611813    1.071504
     24          8           0       -5.850009   -2.191721   -0.296570
     25          1           0       -6.651363    1.224202   -1.744702
     26          1           0       -7.074107   -0.044612   -0.571626
     27          1           0       -6.321578   -0.490277   -2.085179
     28          1           0       -4.810270    2.463141   -1.394839
     29          1           0       -2.571040    2.896818   -0.446813
     30          1           0       -1.187253    1.888303    1.952939
     31          1           0       -0.602264    0.298930    1.476802
     32          1           0        1.200198    3.577348    0.374903
     33          1           0        0.768152    2.767252    1.882971
     34          1           0        2.961222    1.950612    1.613348
     35          1           0        2.922803    2.069448   -0.137351
     36          1           0        3.405292   -0.181021    2.104120
     37          1           0        2.279801   -2.489106    0.407960
     38          1           0        3.327912   -2.606039    1.825760
     39          1           0        1.672451   -1.976978    1.992114
     40          1           0        7.129153    0.890849   -0.430509
     41          1           0        6.702904   -0.969440   -2.285164
     42          1           0        1.953824   -0.248852   -1.366704
     43          1           0        0.688072   -0.928100   -0.334131
     44          1           0       -0.515845    0.745869   -1.498924
     45          1           0        0.873817    1.813756   -1.631361
     46          1           0       -2.523989   -1.074256    1.170602
 ---------------------------------------------------------------------

 The electronic state is 1-A.
 Alpha  occ. eigenvalues --  -88.91678 -19.17348 -19.17232 -14.56497 -14.33676
 Alpha  occ. eigenvalues --  -14.33348 -14.32974 -10.25247 -10.24735 -10.23552
 Alpha  occ. eigenvalues --  -10.22674 -10.22310 -10.22203 -10.21821 -10.21292
 Alpha  occ. eigenvalues --  -10.21133 -10.21101 -10.20949 -10.20875 -10.20852
 Alpha  occ. eigenvalues --  -10.20585 -10.20509 -10.18891 -10.18732  -7.97805
 Alpha  occ. eigenvalues --   -5.94181  -5.93834  -5.93540  -1.21639  -1.04211
 Alpha  occ. eigenvalues --   -0.96577  -0.94669  -0.90652  -0.88374  -0.80743
 Alpha  occ. eigenvalues --   -0.79907  -0.79084  -0.78333  -0.76081  -0.73388
 Alpha  occ. eigenvalues --   -0.72544  -0.70556  -0.67448  -0.66112  -0.64295
 Alpha  occ. eigenvalues --   -0.62272  -0.61290  -0.58650  -0.57877  -0.55798
 Alpha  occ. eigenvalues --   -0.53910  -0.52478  -0.52390  -0.51092  -0.50689
 Alpha  occ. eigenvalues --   -0.50051  -0.49105  -0.48954  -0.48791  -0.47234
 Alpha  occ. eigenvalues --   -0.45197  -0.44985  -0.43986  -0.42552  -0.42385
 Alpha  occ. eigenvalues --   -0.42024  -0.41836  -0.41228  -0.40569  -0.40249
 Alpha  occ. eigenvalues --   -0.39484  -0.38489  -0.37976  -0.37896  -0.37035
 Alpha  occ. eigenvalues --   -0.36969  -0.36529  -0.35733  -0.35588  -0.35159
 Alpha  occ. eigenvalues --   -0.34741  -0.33349  -0.30200  -0.29866  -0.28515
 Alpha  occ. eigenvalues --   -0.28194  -0.27676  -0.27107  -0.25637  -0.24764
 Alpha  occ. eigenvalues --   -0.22091  -0.20783
 Alpha virt. eigenvalues --   -0.08101  -0.02757  -0.01672   0.00352   0.01942
 Alpha virt. eigenvalues --    0.04591   0.07051   0.08511   0.09541   0.10048
 Alpha virt. eigenvalues --    0.10815   0.11546   0.11704   0.11997   0.12565

 Mulliken charges:
               1
     1  C   -0.500524
     2  C    0.161896
     3  C   -0.198658
     4  C   -0.136295
     5  C    0.137526
     6  C   -0.201733
     7  N   -0.385529
     8  C   -0.123608
     9  C   -0.147458
    10  N   -0.393862
    11  C   -0.002297
    12  C   -0.478259
    13  C    0.081767
    14  N   -0.406991
    15  C    0.051721
    16  C   -0.349680
    17  S    0.230196
    18  C   -0.138857
    19  C   -0.178849
    20  C   -0.223931
    21  C    0.216927
    22  N    0.372821
    23  O   -0.398508
    24  O   -0.404694
    25  H    0.146108
    26  H    0.180523
    27  H    0.184598
    28  H    0.137723
    29  H    0.154032
    30  H    0.156102
    31  H    0.148248
    32  H    0.137424
    33  H    0.139273
    34  H    0.155144
    35  H    0.130973
    36  H    0.166532
    37  H    0.161398
    38  H    0.163312
    39  H    0.163943
    40  H    0.152408
    41  H    0.179853
    42  H    0.133158
    43  H    0.144888
    44  H    0.155344
    45  H    0.149643
    46  H    0.176251
 Sum of Mulliken charges =  -0.00000

 Dipole moment (field-independent basis, Debye):
    X=              2.7101    Y=              3.1361    Z=             -1.5028  Tot=              4.4089
 Quadrupole moment (field-independent basis, Debye-Ang):
   XX=           -152.7954   YY=           -154.5280   ZZ=           -144.3465
   XY=            -19.9528   XZ=             -1.6426   YZ=              1.7602

 Normal termination of Gaussian 16 at Fri Nov  4 18:43:37 2022.
