 Gaussian 16, Revision B.01,
 Gaussian 16:  ES64L-G16RevB.01 20-Dec-2017

 -----------------------------
 #p b3lyp/6-31g(d) opt SCF=XQC
 -----------------------------

 ------------------------------
 Gaussian input prepared by ASE
 ------------------------------
 Symbolic Z-matrix:
 Charge =  0 Multiplicity = 1

 SCF Done:  E(RB3LYP) =  -1248.54587091     A.U. after   15 cycles
 SCF Done:  E(RB3LYP) =  -1248.55231793     A.U. after   13 cycles
 SCF Done:  E(RB3LYP) =  -1248.55295583     A.U. after   12 cycles
 SCF Done:  E(RB3LYP) =  -1248.55338558     A.U. after   12 cycles
 SCF Done:  E(RB3LYP) =  -1248.55411595     A.U. after   12 cycles
 SCF Done:  E(RB3LYP) =  -1248.55456501     A.U. after   12 cycles
 SCF Done:  E(RB3LYP) =  -1248.55474534     A.U. after   13 cycles
 SCF Done:  E(RB3LYP) =  -1248.55483527     A.U. after   10 cycles
 SCF Done:  E(RB3LYP) =  -1248.55483515     A.U. after   11 cycles
 SCF Done:  E(RB3LYP) =  -1248.55489909     A.U. after   11 cycles
 SCF Done:  E(RB3LYP) =  -1248.55490412     A.U. after    9 cycles
 SCF Done:  E(RB3LYP) =  -1248.55490663     A.U. after    9 cycles
 SCF Done:  E(RB3LYP) =  -1248.55490798     A.U. after    8 cycles
 SCF Done:  E(RB3LYP) =  -1248.55490879     A.U. after    8 cycles
 SCF Done:  E(RB3LYP) =  -1248.55490903     A.U. after    7 cycles
 SCF Done:  E(RB3LYP) =  -1248.55490928     A.U. after    7 cycles
 SCF Done:  E(RB3LYP) =  -1248.55490941     A.U. after    8 cycles
 SCF Done:  E(RB3LYP) =  -1248.55490944     A.U. after    7 cycles
 Optimization completed.
    -- Stationary point found.

                         Standard orientation:
 ---------------------------------------------------------------------
 Center     Atomic      Atomic             Coordinates (Angstroms)
 Number     Number       Type             X           Y           Z
 ---------------------------------------------------------------------
      1          6           0       -4.930867   -1.079542   -2.294587
      2          8           0       -4.227200   -0.666558   -1.111847
      3          6           0       -2.919039   -0.952693   -1.114597
      4          8           0       -2.310771   -1.510916   -1.998081
      5          8           0       -2.409258   -0.512195    0.060114
      6          6           0       -1.013189   -0.600883    0.205008
      7          6           0       -0.490804   -1.626915    0.893878
      8          6           0       -1.282752   -2.779653    1.474980
      9          6           0       -1.084458   -4.062965    0.641962
     10          6           0       -0.971616   -3.014169    2.965673
     11          7           0        0.904929   -1.678007    1.050970
     12          6           0        1.747813   -0.791846    0.433313
     13          6           0        1.252680    0.267867   -0.271748
     14          6           0        2.156407    1.164092   -0.985532
     15          8           0        1.735260    2.086459   -1.683811
     16          6           0        3.660174    0.952483   -0.815831
     17          6           0        4.080934   -0.510098   -0.562310
     18          6           0        3.858927   -1.360548   -1.829034
     19          6           0        5.567365   -0.568908   -0.172463
     20          6           0        3.225321   -1.049854    0.607044
     21          6           0       -0.239901    0.554876   -0.377117
     22          6           0       -0.632961    1.887914    0.284047
     23          6           0       -0.406814    2.133774    1.578364
     24          6           0       -0.819353    3.418702    2.248289
     25          8           0       -1.670903    4.226076    1.453989
     26          6           0       -1.227451    4.303482    0.102913
     27          6           0       -1.292503    2.937073   -0.579238
     28          1           0       -5.965280   -0.775570   -2.133646
     29          1           0       -4.518316   -0.586641   -3.178572
     30          1           0       -4.864037   -2.163054   -2.423771
     31          1           0       -2.335495   -2.492004    1.403170
     32          1           0       -0.042930   -4.408265    0.670729
     33          1           0       -1.710356   -4.873624    1.032543
     34          1           0       -1.351528   -3.887915   -0.404757
     35          1           0       -1.632770   -3.789178    3.368610
     36          1           0       -1.118802   -2.100990    3.551590
     37          1           0        0.058175   -3.358175    3.129976
     38          1           0        1.302347   -2.481599    1.512728
     39          1           0        3.975126    1.573329    0.037629
     40          1           0        4.156402    1.364333   -1.701197
     41          1           0        4.163144   -2.400796   -1.658712
     42          1           0        2.810292   -1.361687   -2.142921
     43          1           0        4.456616   -0.970970   -2.661122
     44          1           0        5.883769   -1.600457    0.027699
     45          1           0        6.196343   -0.179396   -0.981430
     46          1           0        5.770452    0.026720    0.725946
     47          1           0        3.399842   -2.128826    0.727821
     48          1           0        3.556518   -0.577485    1.544477
     49          1           0       -0.496802    0.642843   -1.442891
     50          1           0        0.099392    1.401730    2.207306
     51          1           0        0.081500    3.989562    2.547805
     52          1           0       -1.378791    3.208176    3.169058
     53          1           0       -1.880802    5.031519   -0.387247
     54          1           0       -0.194243    4.686408    0.062637
     55          1           0       -0.779152    2.981927   -1.547436
     56          1           0       -2.339612    2.660073   -0.773825
 ---------------------------------------------------------------------

 The electronic state is 1-A.
 Alpha  occ. eigenvalues --  -19.20158 -19.20081 -19.13857 -19.12849 -19.10912
 Alpha  occ. eigenvalues --  -14.38301 -10.36172 -10.25099 -10.24791 -10.24654
 Alpha  occ. eigenvalues --  -10.23952 -10.23094 -10.22012 -10.21206 -10.21146
 Alpha  occ. eigenvalues --  -10.21009 -10.20858 -10.19757 -10.19183 -10.18613
 Alpha  occ. eigenvalues --  -10.18276 -10.18240 -10.18096 -10.17769 -10.17763
 Alpha  occ. eigenvalues --  -10.16726 -10.16606  -1.14333  -1.06113  -1.02084
 Alpha  occ. eigenvalues --   -1.01441  -1.00743  -0.97548  -0.85107  -0.82327
 Alpha  occ. eigenvalues --   -0.81792  -0.77336  -0.77001  -0.74476  -0.73913
 Alpha  occ. eigenvalues --   -0.71991  -0.70318  -0.69596  -0.69108  -0.67368
 Alpha  occ. eigenvalues --   -0.64549  -0.62830  -0.61669  -0.60973  -0.58990
 Alpha  occ. eigenvalues --   -0.56450  -0.54974  -0.52868  -0.51383  -0.50795
 Alpha  occ. eigenvalues --   -0.50050  -0.48875  -0.48803  -0.48360  -0.47661
 Alpha  occ. eigenvalues --   -0.47060  -0.45862  -0.45530  -0.45007  -0.44732
 Alpha  occ. eigenvalues --   -0.44481  -0.44020  -0.43559  -0.43122  -0.42853
 Alpha  occ. eigenvalues --   -0.41859  -0.41342  -0.40422  -0.40160  -0.39959
 Alpha  occ. eigenvalues --   -0.39570  -0.38698  -0.38293  -0.38215  -0.37619
 Alpha  occ. eigenvalues --   -0.37222  -0.36905  -0.36395  -0.35752  -0.35482
 Alpha  occ. eigenvalues --   -0.35410  -0.34777  -0.34438  -0.33581  -0.32924
 Alpha  occ. eigenvalues --   -0.32603  -0.32134  -0.30956  -0.30708  -0.28893
 Alpha  occ. eigenvalues --   -0.28754  -0.25726  -0.23624  -0.22756  -0.21921
 Alpha  occ. eigenvalues --   -0.19460
 Alpha virt. eigenvalues --   -0.03305   0.02778   0.03559   0.04601   0.04988
 Alpha virt. eigenvalues --    0.06142   0.08005   0.09120   0.10928   0.11462
 Alpha virt. eigenvalues --    0.11830   0.12385   0.13121   0.13557   0.13689

 Mulliken charges:
               1
     1  C   -0.218010
     2  O   -0.446529
     3  C    0.799885
     4  O   -0.483222
     5  O   -0.519158
     6  C    0.254869
     7  C    0.369485
     8  C   -0.171147
     9  C   -0.445773
    10  C   -0.449289
    11  N   -0.782253
    12  C    0.345701
    13  C    0.013054
    14  C    0.398481
    15  O   -0.509408
    16  C   -0.351931
    17  C    0.080559
    18  C   -0.451939
    19  C   -0.449360
    20  C   -0.352841
    21  C   -0.273054
    22  C    0.225343
    23  C   -0.213903
    24  C   -0.042250
    25  O   -0.472949
    26  C   -0.045234
    27  C   -0.350068
    28  H    0.172047
    29  H    0.176089
    30  H    0.170874
    31  H    0.164608
    32  H    0.129477
    33  H    0.148348
    34  H    0.177722
    35  H    0.155351
    36  H    0.163294
    37  H    0.127592
    38  H    0.326273
    39  H    0.154147
    40  H    0.159075
    41  H    0.136393
    42  H    0.162855
    43  H    0.149276
    44  H    0.139233
    45  H    0.149541
    46  H    0.139503
    47  H    0.136850
    48  H    0.163694
    49  H    0.165271
    50  H    0.113450
    51  H    0.124311
    52  H    0.146452
    53  H    0.138096
    54  H    0.131204
    55  H    0.171520
    56  H    0.148392
 Sum of Mulliken charges =  -0.00000

 Dipole moment (field-independent basis, Debye):
    X=              1.4323    Y=             -5.2752    Z=              2.0557  Tot=              5.8400
 Quadrupole moment (field-independent basis, Debye-Ang):
   XX=           -142.1637   YY=           -163.9779   ZZ=           -159.0942
   XY=              2.1891   XZ=             13.2400   YZ=             -6.1885

 Normal termination of Gaussian 16 at Fri Nov  4 18:56:10 2022.
