 Gaussian 16, Revision B.01,
 Gaussian 16:  ES64L-G16RevB.01 20-Dec-2017

 -------------------------------------------------------------------
 #p b3lyp/6-31g(d) 6D 10F nosymm GFInput td=(50-50,nstate=2) SCF=XQC
 -------------------------------------------------------------------

 ------------------------------
 Gaussian input prepared by ASE
 ------------------------------
 Symbolic Z-matrix:
 Charge =  0 Multiplicity = 1

                          Input orientation:
 ---------------------------------------------------------------------
 Center     Atomic      Atomic             Coordinates (Angstroms)
 Number     Number       Type             X           Y           Z
 ---------------------------------------------------------------------
      1          6           0        4.897054   -2.270437    2.097956
      2          8           0        4.315370   -1.493145    1.038693
      3          6           0        2.978163   -1.539333    0.984733
      4          8           0        2.253386   -2.161117    1.726507
      5          8           0        2.591824   -0.771333   -0.061584
      6          6           0        1.207021   -0.580396   -0.215636
      7          6           0        0.539669   -1.324074   -1.111044
      8          6           0        1.140875   -2.443102   -1.935661
      9          6           0        0.696777   -3.821918   -1.404840
     10          6           0        0.844765   -2.289229   -3.439858
     11          7           0       -0.837927   -1.094441   -1.268714
     12          6           0       -1.536351   -0.230408   -0.466914
     13          6           0       -0.890588    0.546857    0.451840
     14          6           0       -1.650442    1.410284    1.349918
     15          8           0       -1.100903    2.070112    2.232162
     16          6           0       -3.161570    1.507462    1.145117
     17          6           0       -3.818681    0.232042    0.577699
     18          6           0       -3.789262   -0.899202    1.624867
     19          6           0       -5.279007    0.520826    0.191737
     20          6           0       -3.029467   -0.181502   -0.685994
     21          6           0        0.624671    0.538041    0.610553
     22          6           0        1.263244    1.893071    0.257366
     23          6           0        1.126741    2.450543   -0.949878
     24          6           0        1.776518    3.757874   -1.322304
     25          8           0        2.726775    4.210992   -0.373832
     26          6           0        2.257694    4.068843    0.963256
     27          6           0        2.063695    2.596956    1.327327
     28          1           0        5.973176   -2.124731    2.002879
     29          1           0        4.545663   -1.917362    3.070809
     30          1           0        4.640595   -3.327206    1.985611
     31          1           0        2.224349   -2.366952   -1.807392
     32          1           0       -0.387026   -3.964758   -1.503878
     33          1           0        1.186856   -4.624886   -1.967454
     34          1           0        0.954328   -3.928509   -0.346589
     35          1           0        1.376103   -3.061452   -4.006844
     36          1           0        1.166534   -1.310646   -3.810936
     37          1           0       -0.222666   -2.403373   -3.670874
     38          1           0       -1.351701   -1.695876   -1.894201
     39          1           0       -3.335978    2.344557    0.450933
     40          1           0       -3.609323    1.797073    2.101871
     41          1           0       -4.261845   -1.807641    1.231066
     42          1           0       -2.767689   -1.152322    1.925668
     43          1           0       -4.338931   -0.601605    2.525242
     44          1           0       -5.761081   -0.370629   -0.229194
     45          1           0       -5.858707    0.828874    1.069696
     46          1           0       -5.346093    1.323898   -0.552394
     47          1           0       -3.382696   -1.160628   -1.040632
     48          1           0       -3.242549    0.534158   -1.494716
     49          1           0        0.856593    0.345469    1.668258
     50          1           0        0.523830    1.973261   -1.722148
     51          1           0        0.997903    4.529004   -1.484309
     52          1           0        2.322317    3.658205   -2.269552
     53          1           0        3.009489    4.546718    1.598554
     54          1           0        1.304943    4.608731    1.091940
     55          1           0        1.533179    2.519154    2.284117
     56          1           0        3.040382    2.105206    1.450999
 ---------------------------------------------------------------------

 SCF Done:  E(RB3LYP) =  -1248.55490809     A.U. after   15 cycles

 Excitation energies and oscillator strengths:

 Excited state symmetry could not be determined.
 Excited State   1:      Triplet-?Sym    2.6749 eV  463.51 nm  f=0.0000  <S**2>=2.000
      97 ->102         0.10283
     101 ->102         0.68294
 This state for optimization and/or second-order correction.
 Total Energy, E(TD-HF/TD-DFT) =  -1248.45660830
 Copying the excited state density for this state as the 1-particle RhoCI density.

 Excited state symmetry could not be determined.
 Excited State   2:      Triplet-?Sym    3.3547 eV  369.58 nm  f=0.0000  <S**2>=2.000
      99 ->102         0.54434
      99 ->103         0.10216
     100 ->102         0.39633

 Excited state symmetry could not be determined.
 Excited State   3:      Singlet-?Sym    3.7622 eV  329.55 nm  f=0.0378  <S**2>=0.000
      99 ->102        -0.40329
     100 ->102        -0.33919
     101 ->102         0.45245

 Excited state symmetry could not be determined.
 Excited State   4:      Singlet-?Sym    3.9069 eV  317.35 nm  f=0.0810  <S**2>=0.000
      99 ->102         0.35564
     100 ->102         0.26035
     101 ->102         0.53447

 Alpha  occ. eigenvalues --  -19.20158 -19.20081 -19.13857 -19.12849 -19.10911
 Alpha  occ. eigenvalues --  -14.38301 -10.36172 -10.25099 -10.24791 -10.24654
 Alpha  occ. eigenvalues --  -10.23952 -10.23094 -10.22012 -10.21206 -10.21146
 Alpha  occ. eigenvalues --  -10.21010 -10.20858 -10.19757 -10.19183 -10.18613
 Alpha  occ. eigenvalues --  -10.18276 -10.18240 -10.18096 -10.17769 -10.17763
 Alpha  occ. eigenvalues --  -10.16726 -10.16606  -1.14333  -1.06113  -1.02084
 Alpha  occ. eigenvalues --   -1.01441  -1.00742  -0.97548  -0.85107  -0.82327
 Alpha  occ. eigenvalues --   -0.81792  -0.77336  -0.77001  -0.74476  -0.73913
 Alpha  occ. eigenvalues --   -0.71991  -0.70318  -0.69596  -0.69108  -0.67368
 Alpha  occ. eigenvalues --   -0.64549  -0.62830  -0.61669  -0.60973  -0.58990
 Alpha  occ. eigenvalues --   -0.56450  -0.54974  -0.52868  -0.51383  -0.50795
 Alpha  occ. eigenvalues --   -0.50050  -0.48875  -0.48803  -0.48360  -0.47661
 Alpha  occ. eigenvalues --   -0.47060  -0.45862  -0.45530  -0.45007  -0.44732
 Alpha  occ. eigenvalues --   -0.44481  -0.44020  -0.43559  -0.43122  -0.42853
 Alpha  occ. eigenvalues --   -0.41859  -0.41342  -0.40422  -0.40160  -0.39959
 Alpha  occ. eigenvalues --   -0.39570  -0.38698  -0.38293  -0.38215  -0.37619
 Alpha  occ. eigenvalues --   -0.37222  -0.36905  -0.36395  -0.35752  -0.35482
 Alpha  occ. eigenvalues --   -0.35410  -0.34777  -0.34438  -0.33581  -0.32924
 Alpha  occ. eigenvalues --   -0.32603  -0.32134  -0.30956  -0.30708  -0.28893
 Alpha  occ. eigenvalues --   -0.28754  -0.25726  -0.23624  -0.22756  -0.21921
 Alpha  occ. eigenvalues --   -0.19460
 Alpha virt. eigenvalues --   -0.03305   0.02778   0.03558   0.04601   0.04988
 Alpha virt. eigenvalues --    0.06142   0.08005   0.09120   0.10928   0.11462
 Alpha virt. eigenvalues --    0.11830   0.12385   0.13121   0.13557   0.13689

 Mulliken charges:
               1
     1  C   -0.218010
     2  O   -0.446524
     3  C    0.799895
     4  O   -0.483231
     5  O   -0.519162
     6  C    0.254879
     7  C    0.369454
     8  C   -0.171156
     9  C   -0.445768
    10  C   -0.449289
    11  N   -0.782223
    12  C    0.345668
    13  C    0.013089
    14  C    0.398478
    15  O   -0.509409
    16  C   -0.351919
    17  C    0.080576
    18  C   -0.451946
    19  C   -0.449359
    20  C   -0.352859
    21  C   -0.273045
    22  C    0.225334
    23  C   -0.213911
    24  C   -0.042248
    25  O   -0.472950
    26  C   -0.045235
    27  C   -0.350068
    28  H    0.172047
    29  H    0.176089
    30  H    0.170874
    31  H    0.164609
    32  H    0.129476
    33  H    0.148348
    34  H    0.177722
    35  H    0.155352
    36  H    0.163294
    37  H    0.127592
    38  H    0.326272
    39  H    0.154142
    40  H    0.159072
    41  H    0.136393
    42  H    0.162857
    43  H    0.149276
    44  H    0.139233
    45  H    0.149541
    46  H    0.139502
    47  H    0.136851
    48  H    0.163692
    49  H    0.165270
    50  H    0.113452
    51  H    0.124311
    52  H    0.146453
    53  H    0.138097
    54  H    0.131201
    55  H    0.171521
    56  H    0.148397
 Sum of Mulliken charges =  -0.00000

 Dipole moment (field-independent basis, Debye):
    X=             -2.2474    Y=             -4.3666    Z=             -3.1603  Tot=              5.8400
 Quadrupole moment (field-independent basis, Debye-Ang):
   XX=           -145.8999   YY=           -165.0481   ZZ=           -157.5615
   XY=            -10.5481   XZ=             11.7292   YZ=              1.3872

 Normal termination of Gaussian 16 at Sat Nov  5 11:23:44 2022.
