 Gaussian 16, Revision B.01,
 Gaussian 16:  ES64L-G16RevB.01 20-Dec-2017

 -------------------------------------------------------------------
 #p b3lyp/6-31g(d) 6D 10F nosymm GFInput td=(50-50,nstate=2) SCF=XQC
 -------------------------------------------------------------------

 ------------------------------
 Gaussian input prepared by ASE
 ------------------------------
 Symbolic Z-matrix:
 Charge =  0 Multiplicity = 1

                          Input orientation:
 ---------------------------------------------------------------------
 Center     Atomic      Atomic             Coordinates (Angstroms)
 Number     Number       Type             X           Y           Z
 ---------------------------------------------------------------------
      1          6           0       -2.184527    1.709419   -1.410548
      2          6           0       -1.590912    0.477835   -0.699269
      3          6           0       -0.465333    0.971458    0.220812
      4          8           0       -0.691666    1.749389    1.150596
      5          7           0        0.808245    0.538392   -0.021328
      6          6           0        1.286085   -0.327225   -1.110888
      7          6           0        2.815735   -0.258798   -0.974003
      8          6           0        3.066808    0.013461    0.529575
      9          6           0        2.934688   -1.286080    1.346992
     10          6           0        4.434232    0.657431    0.786172
     11          6           0        1.902253    0.972575    0.858236
     12          6           0       -2.643341   -0.396615    0.078719
     13          6           0       -3.527186    0.446835    1.018024
     14          6           0       -3.540124   -1.122524   -0.945719
     15          6           0       -1.904069   -1.465586    0.910904
     16          1           0       -2.505391    2.457100   -0.681104
     17          1           0       -1.431370    2.177850   -2.055463
     18          1           0       -3.037428    1.441087   -2.041593
     19          1           0       -1.167685   -0.181327   -1.465585
     20          1           0        0.949491    0.031627   -2.089395
     21          1           0        0.917994   -1.354816   -0.989853
     22          1           0        3.305377   -1.171341   -1.330676
     23          1           0        3.202282    0.579090   -1.567389
     24          1           0        1.948838   -1.748225    1.222578
     25          1           0        3.692378   -2.018420    1.042878
     26          1           0        3.071443   -1.086604    2.416309
     27          1           0        4.561999    0.904997    1.846962
     28          1           0        4.554229    1.581792    0.208680
     29          1           0        5.247255   -0.023170    0.505984
     30          1           0        2.169462    2.017801    0.646310
     31          1           0        1.580532    0.927679    1.902387
     32          1           0       -4.197199   -0.208383    1.588751
     33          1           0       -2.916662    1.023349    1.716729
     34          1           0       -4.155493    1.147761    0.456915
     35          1           0       -4.267979   -1.759133   -0.428262
     36          1           0       -2.950347   -1.765755   -1.611541
     37          1           0       -4.106302   -0.421815   -1.568876
     38          1           0       -1.303079   -1.010748    1.705389
     39          1           0       -2.622406   -2.144536    1.385786
     40          1           0       -1.240829   -2.075829    0.283405
 ---------------------------------------------------------------------

 SCF Done:  E(RB3LYP) =  -640.446735868     A.U. after   14 cycles

 Excitation energies and oscillator strengths:

 Excited state symmetry could not be determined.
 Excited State   1:      Triplet-?Sym    4.7530 eV  260.85 nm  f=0.0000  <S**2>=2.000
      58 -> 60        -0.24006
      59 -> 60         0.64797
 This state for optimization and/or second-order correction.
 Total Energy, E(TD-HF/TD-DFT) =  -640.272065409
 Copying the excited state density for this state as the 1-particle RhoCI density.

 Excited state symmetry could not be determined.
 Excited State   2:      Triplet-?Sym    4.9089 eV  252.57 nm  f=0.0000  <S**2>=2.000
      58 -> 60         0.65048
      59 -> 60         0.24661

 Excited state symmetry could not be determined.
 Excited State   3:      Singlet-?Sym    5.3798 eV  230.46 nm  f=0.0025  <S**2>=0.000
      58 -> 60         0.48783
      59 -> 60         0.50219

 Excited state symmetry could not be determined.
 Excited State   4:      Singlet-?Sym    6.6603 eV  186.15 nm  f=0.2246  <S**2>=0.000
      58 -> 60         0.49269
      59 -> 60        -0.47991

 Alpha  occ. eigenvalues --  -19.09550 -14.35349 -10.26813 -10.22733 -10.21003
 Alpha  occ. eigenvalues --  -10.20574 -10.19442 -10.19372 -10.18871 -10.18114
 Alpha  occ. eigenvalues --  -10.17991 -10.17075 -10.16838 -10.16701 -10.15449
 Alpha  occ. eigenvalues --   -1.01662  -0.93221  -0.82378  -0.81355  -0.75068
 Alpha  occ. eigenvalues --   -0.74330  -0.69577  -0.69131  -0.67687  -0.67057
 Alpha  occ. eigenvalues --   -0.63862  -0.61977  -0.55473  -0.55097  -0.51535
 Alpha  occ. eigenvalues --   -0.49454  -0.48473  -0.45572  -0.44881  -0.44744
 Alpha  occ. eigenvalues --   -0.43912  -0.42923  -0.42368  -0.41517  -0.40711
 Alpha  occ. eigenvalues --   -0.40099  -0.38913  -0.38502  -0.38338  -0.37738
 Alpha  occ. eigenvalues --   -0.36926  -0.36655  -0.36262  -0.35775  -0.34319
 Alpha  occ. eigenvalues --   -0.34112  -0.33401  -0.32763  -0.32249  -0.31514
 Alpha  occ. eigenvalues --   -0.30795  -0.30106  -0.23224  -0.22788
 Alpha virt. eigenvalues --    0.03016   0.06031   0.08159   0.10843   0.10979
 Alpha virt. eigenvalues --    0.12511   0.12857   0.13206   0.13358   0.14122
 Alpha virt. eigenvalues --    0.14879   0.15072   0.15591   0.16055   0.16582

 Mulliken charges:
               1
     1  C   -0.464058
     2  C   -0.152394
     3  C    0.593176
     4  O   -0.546992
     5  N   -0.455252
     6  C   -0.126908
     7  C   -0.299987
     8  C    0.067046
     9  C   -0.455087
    10  C   -0.456041
    11  C   -0.103276
    12  C    0.105112
    13  C   -0.457049
    14  C   -0.448825
    15  C   -0.463915
    16  H    0.178615
    17  H    0.139606
    18  H    0.144196
    19  H    0.118510
    20  H    0.156014
    21  H    0.153411
    22  H    0.144105
    23  H    0.145631
    24  H    0.153325
    25  H    0.141522
    26  H    0.148380
    27  H    0.148159
    28  H    0.143121
    29  H    0.144282
    30  H    0.146925
    31  H    0.168150
    32  H    0.126978
    33  H    0.184672
    34  H    0.134918
    35  H    0.140642
    36  H    0.131568
    37  H    0.142252
    38  H    0.161045
    39  H    0.139700
    40  H    0.128723
 Sum of Mulliken charges =  -0.00000

 Dipole moment (field-independent basis, Debye):
    X=              2.2236    Y=             -2.0672    Z=             -2.0907  Tot=              3.6863
 Quadrupole moment (field-independent basis, Debye-Ang):
   XX=            -90.6408   YY=            -99.7646   ZZ=            -96.0067
   XY=              1.8565   XZ=              1.7626   YZ=             -3.6436

 Normal termination of Gaussian 16 at Sat Nov  5 11:22:26 2022.
