 Gaussian 16, Revision B.01,
 Gaussian 16:  ES64L-G16RevB.01 20-Dec-2017

 -----------------------------
 #p b3lyp/6-31g(d) opt SCF=XQC
 -----------------------------

 ------------------------------
 Gaussian input prepared by ASE
 ------------------------------
 Symbolic Z-matrix:
 Charge =  0 Multiplicity = 1

 SCF Done:  E(RB3LYP) =  -640.442378673     A.U. after   14 cycles
 SCF Done:  E(RB3LYP) =  -640.446078569     A.U. after   12 cycles
 SCF Done:  E(RB3LYP) =  -640.446390760     A.U. after   12 cycles
 SCF Done:  E(RB3LYP) =  -640.446592726     A.U. after   11 cycles
 SCF Done:  E(RB3LYP) =  -640.446685825     A.U. after   10 cycles
 SCF Done:  E(RB3LYP) =  -640.446709597     A.U. after   10 cycles
 SCF Done:  E(RB3LYP) =  -640.446720619     A.U. after   10 cycles
 SCF Done:  E(RB3LYP) =  -640.446728773     A.U. after    8 cycles
 SCF Done:  E(RB3LYP) =  -640.446736640     A.U. after    9 cycles
 SCF Done:  E(RB3LYP) =  -640.446738502     A.U. after    8 cycles
 SCF Done:  E(RB3LYP) =  -640.446739679     A.U. after    8 cycles
 SCF Done:  E(RB3LYP) =  -640.446739829     A.U. after    7 cycles
 SCF Done:  E(RB3LYP) =  -640.446739768     A.U. after    6 cycles
 Optimization completed.
    -- Stationary point found.

                         Standard orientation:
 ---------------------------------------------------------------------
 Center     Atomic      Atomic             Coordinates (Angstroms)
 Number     Number       Type             X           Y           Z
 ---------------------------------------------------------------------
      1          6           0       -2.340540   -1.875690    0.810628
      2          6           0       -1.685729   -0.508124    0.534801
      3          6           0       -0.474702   -0.749414   -0.377522
      4          8           0       -0.607241   -1.228798   -1.506028
      5          7           0        0.767887   -0.432150    0.095229
      6          6           0        1.134995    0.080469    1.424596
      7          6           0        2.670966    0.017216    1.417908
      8          6           0        3.067068    0.173080   -0.070957
      9          6           0        3.009528    1.652831   -0.496932
     10          6           0        4.455324   -0.404800   -0.369602
     11          6           0        1.943352   -0.627070   -0.764591
     12          6           0       -2.661457    0.574466   -0.059749
     13          6           0       -3.447262    0.050430   -1.277443
     14          6           0       -3.655720    1.003835    1.039215
     15          6           0       -1.849377    1.816606   -0.483265
     16          1           0       -2.586625   -2.380181   -0.126922
     17          1           0       -1.651385   -2.524273    1.364697
     18          1           0       -3.251399   -1.775656    1.408950
     19          1           0       -1.340982   -0.101340    1.492158
     20          1           0        0.706874   -0.531106    2.225992
     21          1           0        0.776393    1.109002    1.564616
     22          1           0        3.120401    0.780744    2.061905
     23          1           0        3.001611   -0.962645    1.784142
     24          1           0        2.014516    2.084456   -0.340063
     25          1           0        3.731518    2.251943    0.071132
     26          1           0        3.249643    1.759054   -1.561354
     27          1           0        4.685854   -0.346899   -1.440299
     28          1           0        4.522530   -1.456852   -0.067926
     29          1           0        5.234896    0.150101    0.166199
     30          1           0        2.192837   -1.695709   -0.832261
     31          1           0        1.723774   -0.282672   -1.778961
     32          1           0       -4.061538    0.855369   -1.700167
     33          1           0       -2.769938   -0.320495   -2.050065
     34          1           0       -4.124129   -0.764999   -0.998449
     35          1           0       -4.332638    1.777303    0.656679
     36          1           0       -3.135438    1.419674    1.911733
     37          1           0       -4.276739    0.169693    1.383332
     38          1           0       -1.172759    1.589578   -1.313879
     39          1           0       -2.521095    2.618492   -0.812309
     40          1           0       -1.252150    2.209845    0.350235
 ---------------------------------------------------------------------

 The electronic state is 1-A.
 Alpha  occ. eigenvalues --  -19.09550 -14.35349 -10.26814 -10.22733 -10.21003
 Alpha  occ. eigenvalues --  -10.20574 -10.19442 -10.19372 -10.18871 -10.18114
 Alpha  occ. eigenvalues --  -10.17991 -10.17076 -10.16838 -10.16701 -10.15449
 Alpha  occ. eigenvalues --   -1.01662  -0.93221  -0.82378  -0.81355  -0.75068
 Alpha  occ. eigenvalues --   -0.74330  -0.69577  -0.69131  -0.67687  -0.67057
 Alpha  occ. eigenvalues --   -0.63862  -0.61977  -0.55473  -0.55097  -0.51535
 Alpha  occ. eigenvalues --   -0.49454  -0.48473  -0.45572  -0.44882  -0.44744
 Alpha  occ. eigenvalues --   -0.43912  -0.42923  -0.42368  -0.41517  -0.40711
 Alpha  occ. eigenvalues --   -0.40099  -0.38913  -0.38502  -0.38338  -0.37738
 Alpha  occ. eigenvalues --   -0.36926  -0.36655  -0.36262  -0.35775  -0.34319
 Alpha  occ. eigenvalues --   -0.34112  -0.33400  -0.32763  -0.32249  -0.31514
 Alpha  occ. eigenvalues --   -0.30795  -0.30106  -0.23224  -0.22788
 Alpha virt. eigenvalues --    0.03016   0.06031   0.08159   0.10843   0.10979
 Alpha virt. eigenvalues --    0.12511   0.12857   0.13206   0.13358   0.14122
 Alpha virt. eigenvalues --    0.14879   0.15072   0.15591   0.16055   0.16582

 Mulliken charges:
               1
     1  C   -0.464070
     2  C   -0.152408
     3  C    0.593176
     4  O   -0.546975
     5  N   -0.455279
     6  C   -0.126899
     7  C   -0.299952
     8  C    0.066965
     9  C   -0.455090
    10  C   -0.456016
    11  C   -0.103249
    12  C    0.105138
    13  C   -0.457039
    14  C   -0.448798
    15  C   -0.463941
    16  H    0.178616
    17  H    0.139609
    18  H    0.144200
    19  H    0.118515
    20  H    0.156011
    21  H    0.153409
    22  H    0.144102
    23  H    0.145630
    24  H    0.153331
    25  H    0.141526
    26  H    0.148386
    27  H    0.148155
    28  H    0.143117
    29  H    0.144280
    30  H    0.146926
    31  H    0.168148
    32  H    0.126974
    33  H    0.184669
    34  H    0.134914
    35  H    0.140637
    36  H    0.131560
    37  H    0.142242
    38  H    0.161047
    39  H    0.139703
    40  H    0.128727
 Sum of Mulliken charges =  -0.00000

 Dipole moment (field-independent basis, Debye):
    X=              2.0036    Y=              1.3425    Z=              2.7880  Tot=              3.6864
 Quadrupole moment (field-independent basis, Debye-Ang):
   XX=            -90.4877   YY=            -97.1409   ZZ=            -97.7939
   XY=             -0.8918   XZ=             -1.3622   YZ=             -3.6378

 Normal termination of Gaussian 16 at Fri Nov  4 18:27:45 2022.
