 Gaussian 16, Revision B.01,
 Gaussian 16:  ES64L-G16RevB.01 20-Dec-2017

 -------------------------------------------------------------------
 #p b3lyp/6-31g(d) 6D 10F nosymm GFInput td=(50-50,nstate=2) SCF=XQC
 -------------------------------------------------------------------

 ------------------------------
 Gaussian input prepared by ASE
 ------------------------------
 Symbolic Z-matrix:
 Charge =  0 Multiplicity = 1

                          Input orientation:
 ---------------------------------------------------------------------
 Center     Atomic      Atomic             Coordinates (Angstroms)
 Number     Number       Type             X           Y           Z
 ---------------------------------------------------------------------
      1          6           0        5.380940    1.341208    1.885941
      2          6           0        5.147996    0.593578    0.585060
      3          6           0        4.952509   -0.934766    0.711017
      4          6           0        3.923448   -1.272404   -0.395980
      5          6           0        3.603268    0.109351   -1.032621
      6          6           0        2.205654    0.309982   -1.516119
      7          7           0        1.892772    0.430566   -2.785129
      8          7           0        0.519463    0.522153   -2.875924
      9          6           0        0.042321    0.466595   -1.650037
     10          7           0       -1.290686    0.594881   -1.266712
     11          6           0       -2.133886    1.293048   -2.264083
     12          6           0       -3.605141    0.933929   -2.029391
     13          8           0       -3.894099    0.861031   -0.643730
     14          6           0       -3.235771   -0.239699    0.021137
     15          6           0       -4.204549   -1.442916    0.110346
     16          6           0       -5.052779   -1.152263    1.354408
     17          6           0       -4.006761   -0.634316    2.357478
     18          6           0       -3.042485    0.220112    1.498254
     19          6           0       -1.935626   -0.610847   -0.725175
     20          7           0        1.067807    0.333431   -0.737215
     21          6           0        0.958962    0.410602    0.712015
     22          8           0        3.937994    1.067190   -0.018622
     23          1           0        6.317997    1.015127    2.350819
     24          1           0        4.562505    1.152955    2.590209
     25          1           0        5.442557    2.419295    1.707325
     26          1           0        5.981101    0.794496   -0.110233
     27          1           0        5.897662   -1.473399    0.591812
     28          1           0        4.555523   -1.182529    1.701833
     29          1           0        4.309895   -1.964427   -1.149364
     30          1           0        3.021383   -1.724660    0.027399
     31          1           0        4.245265    0.265695   -1.911015
     32          1           0       -1.840266    1.025341   -3.286714
     33          1           0       -1.978177    2.370027   -2.138507
     34          1           0       -4.251701    1.712327   -2.444293
     35          1           0       -3.864256   -0.009594   -2.534738
     36          1           0       -4.782253   -1.560146   -0.812837
     37          1           0       -3.629421   -2.368820    0.260687
     38          1           0       -5.779046   -0.363367    1.124520
     39          1           0       -5.606771   -2.024611    1.717055
     40          1           0       -4.445471   -0.067761    3.185408
     41          1           0       -3.471507   -1.485747    2.798569
     42          1           0       -2.002930    0.121183    1.826861
     43          1           0       -3.300173    1.281387    1.548072
     44          1           0       -1.252331   -1.107841   -0.031433
     45          1           0       -2.148299   -1.337842   -1.527761
     46          1           0        0.825946   -0.581789    1.159652
     47          1           0        1.868654    0.864503    1.104108
     48          1           0        0.092764    1.029752    0.957647
 ---------------------------------------------------------------------

 SCF Done:  E(RB3LYP) =  -994.774126333     A.U. after   14 cycles

 Excitation energies and oscillator strengths:

 Excited state symmetry could not be determined.
 Excited State   1:      Triplet-?Sym    4.3448 eV  285.36 nm  f=0.0000  <S**2>=2.000
      78 -> 84        -0.13118
      79 -> 84        -0.14574
      82 -> 84         0.11134
      83 -> 84         0.64158
 This state for optimization and/or second-order correction.
 Total Energy, E(TD-HF/TD-DFT) =  -994.614459116
 Copying the excited state density for this state as the 1-particle RhoCI density.

 Excited state symmetry could not be determined.
 Excited State   2:      Triplet-?Sym    5.0277 eV  246.60 nm  f=0.0000  <S**2>=2.000
      79 -> 85        -0.13692
      79 -> 86         0.13462
      83 -> 85         0.46850
      83 -> 86        -0.44616

 Excited state symmetry could not be determined.
 Excited State   3:      Singlet-?Sym    5.4743 eV  226.48 nm  f=0.1569  <S**2>=0.000
      82 -> 84        -0.27522
      83 -> 84         0.64108

 Excited state symmetry could not be determined.
 Excited State   4:      Singlet-?Sym    5.9714 eV  207.63 nm  f=0.1499  <S**2>=0.000
      82 -> 84         0.62931
      83 -> 84         0.26751

 Alpha  occ. eigenvalues --  -19.15330 -19.14553 -14.39237 -14.35161 -14.32608
 Alpha  occ. eigenvalues --  -14.32088 -10.26336 -10.24717 -10.24376 -10.24151
 Alpha  occ. eigenvalues --  -10.23567 -10.23377 -10.23139 -10.22443 -10.20988
 Alpha  occ. eigenvalues --  -10.19513 -10.19304 -10.18432 -10.18253 -10.18211
 Alpha  occ. eigenvalues --  -10.18013 -10.17978  -1.05312  -1.04042  -1.03366
 Alpha  occ. eigenvalues --   -0.93771  -0.91170  -0.83633  -0.80780  -0.78834
 Alpha  occ. eigenvalues --   -0.76377  -0.75969  -0.72962  -0.71452  -0.70498
 Alpha  occ. eigenvalues --   -0.68543  -0.67133  -0.62955  -0.61696  -0.58839
 Alpha  occ. eigenvalues --   -0.58180  -0.57530  -0.55915  -0.53647  -0.52533
 Alpha  occ. eigenvalues --   -0.50650  -0.50025  -0.49620  -0.48751  -0.47822
 Alpha  occ. eigenvalues --   -0.47078  -0.46505  -0.46034  -0.45336  -0.43479
 Alpha  occ. eigenvalues --   -0.42915  -0.42634  -0.42221  -0.41485  -0.41054
 Alpha  occ. eigenvalues --   -0.40403  -0.39793  -0.38781  -0.38633  -0.38160
 Alpha  occ. eigenvalues --   -0.36667  -0.35879  -0.35455  -0.34548  -0.34268
 Alpha  occ. eigenvalues --   -0.33725  -0.33375  -0.33212  -0.32692  -0.32588
 Alpha  occ. eigenvalues --   -0.30906  -0.29503  -0.27592  -0.26945  -0.26271
 Alpha  occ. eigenvalues --   -0.24957  -0.23879  -0.20854
 Alpha virt. eigenvalues --    0.02127   0.05426   0.05901   0.07849   0.08870
 Alpha virt. eigenvalues --    0.09363   0.10050   0.10509   0.11429   0.12150
 Alpha virt. eigenvalues --    0.12238   0.12916   0.13563   0.14264   0.14705

 Mulliken charges:
               1
     1  C   -0.464218
     2  C    0.173217
     3  C   -0.301521
     4  C   -0.309176
     5  C    0.094549
     6  C    0.479779
     7  N   -0.357041
     8  N   -0.381161
     9  C    0.668039
    10  N   -0.518246
    11  C   -0.119246
    12  C   -0.071311
    13  O   -0.513434
    14  C    0.364168
    15  C   -0.287094
    16  C   -0.269672
    17  C   -0.277096
    18  C   -0.300863
    19  C   -0.200170
    20  N   -0.484311
    21  C   -0.354851
    22  O   -0.506857
    23  H    0.148445
    24  H    0.147616
    25  H    0.164033
    26  H    0.121967
    27  H    0.146486
    28  H    0.142349
    29  H    0.158855
    30  H    0.146834
    31  H    0.156535
    32  H    0.176093
    33  H    0.156690
    34  H    0.156631
    35  H    0.131062
    36  H    0.143523
    37  H    0.127851
    38  H    0.151818
    39  H    0.134571
    40  H    0.139748
    41  H    0.130335
    42  H    0.129506
    43  H    0.166826
    44  H    0.152238
    45  H    0.146282
    46  H    0.160328
    47  H    0.205010
    48  H    0.194884
 Sum of Mulliken charges =  -0.00000

 Dipole moment (field-independent basis, Debye):
    X=              0.2974    Y=             -2.4000    Z=              4.5426  Tot=              5.1462
 Quadrupole moment (field-independent basis, Debye-Ang):
   XX=           -118.8633   YY=           -132.3914   ZZ=           -145.1449
   XY=             -2.2800   XZ=             12.0567   YZ=              1.7965

 Normal termination of Gaussian 16 at Sat Nov  5 11:24:14 2022.
