 Gaussian 16, Revision B.01,
 Gaussian 16:  ES64L-G16RevB.01 20-Dec-2017

 -----------------------------
 #p b3lyp/6-31g(d) opt SCF=XQC
 -----------------------------

 ------------------------------
 Gaussian input prepared by ASE
 ------------------------------
 Symbolic Z-matrix:
 Charge =  0 Multiplicity = 1

 SCF Done:  E(RB3LYP) =  -994.766506802     A.U. after   14 cycles
 SCF Done:  E(RB3LYP) =  -994.771928948     A.U. after   12 cycles
 SCF Done:  E(RB3LYP) =  -994.772683295     A.U. after   11 cycles
 SCF Done:  E(RB3LYP) =  -994.772941652     A.U. after   11 cycles
 SCF Done:  E(RB3LYP) =  -994.773009105     A.U. after   11 cycles
 SCF Done:  E(RB3LYP) =  -994.773045222     A.U. after   10 cycles
 SCF Done:  E(RB3LYP) =  -994.773076714     A.U. after   10 cycles
 SCF Done:  E(RB3LYP) =  -994.773089927     A.U. after   10 cycles
 SCF Done:  E(RB3LYP) =  -994.773107307     A.U. after   10 cycles
 SCF Done:  E(RB3LYP) =  -994.773123297     A.U. after   10 cycles
 SCF Done:  E(RB3LYP) =  -994.774060018     A.U. after    9 cycles
 SCF Done:  E(RB3LYP) =  -994.774098978     A.U. after   11 cycles
 SCF Done:  E(RB3LYP) =  -994.774104568     A.U. after    9 cycles
 SCF Done:  E(RB3LYP) =  -994.774110436     A.U. after    9 cycles
 SCF Done:  E(RB3LYP) =  -994.774116607     A.U. after   10 cycles
 SCF Done:  E(RB3LYP) =  -994.774118153     A.U. after    9 cycles
 SCF Done:  E(RB3LYP) =  -994.774118463     A.U. after    7 cycles
 SCF Done:  E(RB3LYP) =  -994.774118606     A.U. after    7 cycles
 SCF Done:  E(RB3LYP) =  -994.774118680     A.U. after    7 cycles
 SCF Done:  E(RB3LYP) =  -994.774118723     A.U. after    7 cycles
 Optimization completed.
    -- Stationary point found.

                         Standard orientation:
 ---------------------------------------------------------------------
 Center     Atomic      Atomic             Coordinates (Angstroms)
 Number     Number       Type             X           Y           Z
 ---------------------------------------------------------------------
      1          6           0        5.399129    1.903369   -1.397041
      2          6           0        5.118905    0.813882   -0.377239
      3          6           0        4.837974    1.295590    1.064618
      4          6           0        3.786869    0.290213    1.596412
      5          6           0        3.542546   -0.657846    0.388702
      6          6           0        2.156477   -1.188020    0.230351
      7          7           0        1.845593   -2.452437    0.395952
      8          7           0        0.479277   -2.575054    0.251885
      9          6           0        0.004895   -1.375241   -0.010716
     10          7           0       -1.317128   -1.045483   -0.300232
     11          6           0       -2.123733   -2.187372   -0.788751
     12          6           0       -3.611921   -1.888144   -0.578044
     13          8           0       -3.898732   -0.527243   -0.851092
     14          6           0       -3.300821    0.384978    0.096223
     15          6           0       -4.335601    0.746972    1.188198
     16          6           0       -5.160854    1.879190    0.564739
     17          6           0       -4.083075    2.741138   -0.116443
     18          6           0       -3.075703    1.713344   -0.688268
     19          6           0       -2.026838   -0.240389    0.705315
     20          7           0        1.025039   -0.447318   -0.040101
     21          6           0        0.926790    0.941561   -0.463695
     22          8           0        3.935056    0.104170   -0.761498
     23          1           0        6.318219    2.440816   -1.138317
     24          1           0        4.574326    2.624543   -1.426651
     25          1           0        5.520764    1.475645   -2.397156
     26          1           0        5.959108    0.098572   -0.361218
     27          1           0        5.750703    1.315820    1.668080
     28          1           0        4.431784    2.313160    1.048521
     29          1           0        4.130473   -0.274691    2.467412
     30          1           0        2.862489    0.800071    1.884640
     31          1           0        4.188664   -1.542305    0.480581
     32          1           0       -1.849978   -3.115012   -0.270877
     33          1           0       -1.906946   -2.318394   -1.854460
     34          1           0       -4.215235   -2.481215   -1.271128
     35          1           0       -3.926004   -2.158615    0.442226
     36          1           0       -4.922861   -0.127692    1.487932
     37          1           0       -3.813039    1.117177    2.082933
     38          1           0       -5.842381    1.462664   -0.186725
     39          1           0       -5.761691    2.432537    1.294270
     40          1           0       -4.485630    3.407636   -0.886278
     41          1           0       -3.594902    3.375878    0.635079
     42          1           0       -2.042025    2.065663   -0.611945
     43          1           0       -3.272853    1.508582   -1.743916
     44          1           0       -1.369793    0.557460    1.061548
     45          1           0       -2.283573   -0.850402    1.588416
     46          1           0        0.739834    1.609763    0.385697
     47          1           0        1.862290    1.223729   -0.945902
     48          1           0        0.097965    1.025879   -1.170744
 ---------------------------------------------------------------------

 The electronic state is 1-A.
 Alpha  occ. eigenvalues --  -19.15330 -19.14553 -14.39237 -14.35161 -14.32608
 Alpha  occ. eigenvalues --  -14.32089 -10.26336 -10.24717 -10.24376 -10.24151
 Alpha  occ. eigenvalues --  -10.23567 -10.23377 -10.23139 -10.22443 -10.20988
 Alpha  occ. eigenvalues --  -10.19513 -10.19304 -10.18432 -10.18253 -10.18211
 Alpha  occ. eigenvalues --  -10.18013 -10.17978  -1.05312  -1.04042  -1.03366
 Alpha  occ. eigenvalues --   -0.93771  -0.91170  -0.83632  -0.80780  -0.78834
 Alpha  occ. eigenvalues --   -0.76377  -0.75969  -0.72962  -0.71452  -0.70498
 Alpha  occ. eigenvalues --   -0.68543  -0.67133  -0.62955  -0.61696  -0.58839
 Alpha  occ. eigenvalues --   -0.58180  -0.57530  -0.55915  -0.53647  -0.52533
 Alpha  occ. eigenvalues --   -0.50650  -0.50025  -0.49620  -0.48751  -0.47822
 Alpha  occ. eigenvalues --   -0.47078  -0.46505  -0.46034  -0.45336  -0.43479
 Alpha  occ. eigenvalues --   -0.42915  -0.42634  -0.42221  -0.41485  -0.41054
 Alpha  occ. eigenvalues --   -0.40403  -0.39793  -0.38781  -0.38633  -0.38160
 Alpha  occ. eigenvalues --   -0.36667  -0.35879  -0.35455  -0.34548  -0.34268
 Alpha  occ. eigenvalues --   -0.33725  -0.33375  -0.33212  -0.32692  -0.32588
 Alpha  occ. eigenvalues --   -0.30906  -0.29503  -0.27592  -0.26945  -0.26271
 Alpha  occ. eigenvalues --   -0.24957  -0.23879  -0.20854
 Alpha virt. eigenvalues --    0.02127   0.05426   0.05901   0.07849   0.08870
 Alpha virt. eigenvalues --    0.09363   0.10050   0.10508   0.11429   0.12150
 Alpha virt. eigenvalues --    0.12238   0.12916   0.13563   0.14264   0.14705

 Mulliken charges:
               1
     1  C   -0.464201
     2  C    0.173196
     3  C   -0.301489
     4  C   -0.309192
     5  C    0.094547
     6  C    0.479798
     7  N   -0.357045
     8  N   -0.381149
     9  C    0.668015
    10  N   -0.518230
    11  C   -0.119252
    12  C   -0.071304
    13  O   -0.513444
    14  C    0.364201
    15  C   -0.287088
    16  C   -0.269670
    17  C   -0.277106
    18  C   -0.300860
    19  C   -0.200205
    20  N   -0.484312
    21  C   -0.354848
    22  O   -0.506859
    23  H    0.148443
    24  H    0.147609
    25  H    0.164031
    26  H    0.121969
    27  H    0.146483
    28  H    0.142343
    29  H    0.158857
    30  H    0.146836
    31  H    0.156537
    32  H    0.176093
    33  H    0.156690
    34  H    0.156630
    35  H    0.131061
    36  H    0.143520
    37  H    0.127847
    38  H    0.151818
    39  H    0.134571
    40  H    0.139749
    41  H    0.130335
    42  H    0.129505
    43  H    0.166823
    44  H    0.152240
    45  H    0.146286
    46  H    0.160327
    47  H    0.205009
    48  H    0.194883
 Sum of Mulliken charges =  -0.00000

 Dipole moment (field-independent basis, Debye):
    X=              0.1804    Y=              4.9836    Z=              1.2707  Tot=              5.1462
 Quadrupole moment (field-independent basis, Debye-Ang):
   XX=           -119.0831   YY=           -141.6605   ZZ=           -132.1840
   XY=             12.1812   XZ=              0.0301   YZ=              2.6978

 Normal termination of Gaussian 16 at Fri Nov  4 19:02:58 2022.
