 Gaussian 16, Revision B.01,
 Gaussian 16:  ES64L-G16RevB.01 20-Dec-2017

 -------------------------------------------------------------------
 #p b3lyp/6-31g(d) 6D 10F nosymm GFInput td=(50-50,nstate=2) SCF=XQC
 -------------------------------------------------------------------

 ------------------------------
 Gaussian input prepared by ASE
 ------------------------------
 Symbolic Z-matrix:
 Charge =  0 Multiplicity = 1

                          Input orientation:
 ---------------------------------------------------------------------
 Center     Atomic      Atomic             Coordinates (Angstroms)
 Number     Number       Type             X           Y           Z
 ---------------------------------------------------------------------
      1          6           0       -5.685776    2.242880   -1.001292
      2          6           0       -4.634374    1.174458   -1.046931
      3          6           0       -3.758700    0.880482   -2.056107
      4          6           0       -2.886269   -0.212162   -1.761638
      5          6           0       -3.083526   -0.759002   -0.523513
      6          6           0       -2.399412   -1.952405    0.090630
      7          8           0       -3.210033   -3.133306    0.052736
      8          6           0       -1.900669   -1.707944    1.536397
      9          7           0       -0.994322   -0.590354    1.757663
     10          6           0        0.297798   -0.681543    1.081748
     11          6           0        1.232848    0.446404    1.553322
     12          6           0        2.603049    0.380544    0.912915
     13          6           0        3.660440   -0.267591    1.560390
     14          6           0        4.937041   -0.387151    0.980537
     15          6           0        5.105445    0.164417   -0.272902
     16          6           0        4.062895    0.813245   -0.929801
     17          6           0        2.809219    0.940480   -0.368365
     18          8           0        4.509471    1.297651   -2.138734
     19          6           0        5.826260    0.759630   -2.301926
     20          8           0        6.244816    0.219408   -1.044807
     21         16           0       -4.376674    0.096536    0.309787
     22          1           0       -6.690733    1.824166   -0.867760
     23          1           0       -5.679748    2.805642   -1.940077
     24          1           0       -5.515426    2.953304   -0.183067
     25          1           0       -3.739566    1.431208   -2.991532
     26          1           0       -2.140249   -0.590669   -2.453624
     27          1           0       -1.544151   -2.193248   -0.549483
     28          1           0       -4.030774   -2.940183    0.534640
     29          1           0       -2.778335   -1.565630    2.184817
     30          1           0       -1.412239   -2.630477    1.872010
     31          1           0       -1.456698    0.280578    1.500470
     32          1           0        0.232352   -0.652413   -0.021498
     33          1           0        0.745410   -1.650084    1.340628
     34          1           0        1.315043    0.387799    2.644148
     35          1           0        0.762024    1.413036    1.324656
     36          1           0        3.492714   -0.692438    2.546633
     37          1           0        5.753459   -0.883141    1.494459
     38          1           0        2.012560    1.459563   -0.892533
     39          1           0        6.510806    1.558569   -2.600618
     40          1           0        5.804024   -0.040255   -3.056541
 ---------------------------------------------------------------------

 SCF Done:  E(RB3LYP) =  -1299.70325187     A.U. after   14 cycles

 Excitation energies and oscillator strengths:

 Excited state symmetry could not be determined.
 Excited State   1:      Triplet-?Sym    3.2455 eV  382.02 nm  f=0.0000  <S**2>=2.000
      79 -> 82         0.69875
      79 <- 82         0.10910
 This state for optimization and/or second-order correction.
 Total Energy, E(TD-HF/TD-DFT) =  -1299.58398122
 Copying the excited state density for this state as the 1-particle RhoCI density.

 Excited state symmetry could not be determined.
 Excited State   2:      Triplet-?Sym    3.5734 eV  346.97 nm  f=0.0000  <S**2>=2.000
      75 -> 84         0.10701
      78 -> 83         0.34744
      80 -> 84         0.10285
      81 -> 84         0.58718

 Excited state symmetry could not be determined.
 Excited State   3:      Singlet-?Sym    4.5406 eV  273.06 nm  f=0.0007  <S**2>=0.000
      80 -> 82         0.53022
      81 -> 82        -0.46542

 Excited state symmetry could not be determined.
 Excited State   4:      Singlet-?Sym    4.7112 eV  263.17 nm  f=0.0006  <S**2>=0.000
      80 -> 82         0.46449
      81 -> 82         0.53208

 Alpha  occ. eigenvalues --  -88.90614 -19.18986 -19.18936 -19.14423 -14.31576
 Alpha  occ. eigenvalues --  -10.30433 -10.24518 -10.24383 -10.24277 -10.22567
 Alpha  occ. eigenvalues --  -10.21635 -10.20723 -10.20609 -10.20061 -10.19389
 Alpha  occ. eigenvalues --  -10.19383 -10.19248 -10.19239 -10.19059 -10.18553
 Alpha  occ. eigenvalues --  -10.18384  -7.96740  -5.93145  -5.92786  -5.92438
 Alpha  occ. eigenvalues --   -1.12246  -1.03114  -1.01709  -0.90194  -0.87913
 Alpha  occ. eigenvalues --   -0.85765  -0.78623  -0.77457  -0.75109  -0.74163
 Alpha  occ. eigenvalues --   -0.72939  -0.71196  -0.67936  -0.66190  -0.63070
 Alpha  occ. eigenvalues --   -0.61897  -0.60687  -0.59025  -0.55637  -0.53874
 Alpha  occ. eigenvalues --   -0.51939  -0.51727  -0.51380  -0.50696  -0.48992
 Alpha  occ. eigenvalues --   -0.48296  -0.46755  -0.45161  -0.44903  -0.44226
 Alpha  occ. eigenvalues --   -0.43605  -0.43175  -0.41985  -0.41580  -0.40269
 Alpha  occ. eigenvalues --   -0.40152  -0.39158  -0.37965  -0.37922  -0.37580
 Alpha  occ. eigenvalues --   -0.37216  -0.36385  -0.36027  -0.35557  -0.35375
 Alpha  occ. eigenvalues --   -0.34639  -0.34092  -0.33740  -0.32610  -0.30217
 Alpha  occ. eigenvalues --   -0.28250  -0.25379  -0.24132  -0.22659  -0.21438
 Alpha  occ. eigenvalues --   -0.20146
 Alpha virt. eigenvalues --   -0.01739   0.00286   0.01444   0.02111   0.05936
 Alpha virt. eigenvalues --    0.07194   0.09072   0.09714   0.10158   0.10648
 Alpha virt. eigenvalues --    0.11282   0.11324   0.12121   0.12517   0.13381

 Mulliken charges:
               1
     1  C   -0.506783
     2  C   -0.100059
     3  C   -0.125148
     4  C   -0.127494
     5  C   -0.130443
     6  C    0.066708
     7  O   -0.613732
     8  C   -0.169057
     9  N   -0.546641
    10  C   -0.116181
    11  C   -0.355423
    12  C    0.157161
    13  C   -0.200817
    14  C   -0.181967
    15  C    0.327340
    16  C    0.333789
    17  C   -0.236788
    18  O   -0.533509
    19  C    0.192315
    20  O   -0.531245
    21  S    0.191826
    22  H    0.172692
    23  H    0.168962
    24  H    0.171678
    25  H    0.136364
    26  H    0.142412
    27  H    0.152941
    28  H    0.388337
    29  H    0.135415
    30  H    0.155748
    31  H    0.303298
    32  H    0.119415
    33  H    0.143561
    34  H    0.155665
    35  H    0.137614
    36  H    0.127282
    37  H    0.143258
    38  H    0.136293
    39  H    0.163947
    40  H    0.151265
 Sum of Mulliken charges =  -0.00000

 Dipole moment (field-independent basis, Debye):
    X=             -0.8304    Y=              1.7551    Z=             -1.2020  Tot=              2.2836
 Quadrupole moment (field-independent basis, Debye-Ang):
   XX=           -118.1390   YY=           -134.0879   ZZ=           -125.5678
   XY=             -9.8128   XZ=             -4.7804   YZ=             -5.4265

 Normal termination of Gaussian 16 at Sat Nov  5 11:14:34 2022.
