 Gaussian 16, Revision B.01,
 Gaussian 16:  ES64L-G16RevB.01 20-Dec-2017

 -----------------------------
 #p b3lyp/6-31g(d) opt SCF=XQC
 -----------------------------

 ------------------------------
 Gaussian input prepared by ASE
 ------------------------------
 Symbolic Z-matrix:
 Charge =  0 Multiplicity = 1

 SCF Done:  E(RB3LYP) =  -1299.69756241     A.U. after   14 cycles
 SCF Done:  E(RB3LYP) =  -1299.70224100     A.U. after   12 cycles
 SCF Done:  E(RB3LYP) =  -1299.70268181     A.U. after   11 cycles
 SCF Done:  E(RB3LYP) =  -1299.70282760     A.U. after   11 cycles
 SCF Done:  E(RB3LYP) =  -1299.70288045     A.U. after   11 cycles
 SCF Done:  E(RB3LYP) =  -1299.70298756     A.U. after   11 cycles
 SCF Done:  E(RB3LYP) =  -1299.70310716     A.U. after   12 cycles
 SCF Done:  E(RB3LYP) =  -1299.70313929     A.U. after   10 cycles
 SCF Done:  E(RB3LYP) =  -1299.70314565     A.U. after   11 cycles
 SCF Done:  E(RB3LYP) =  -1299.70315641     A.U. after    9 cycles
 SCF Done:  E(RB3LYP) =  -1299.70323737     A.U. after   10 cycles
 SCF Done:  E(RB3LYP) =  -1299.70321127     A.U. after   11 cycles
 SCF Done:  E(RB3LYP) =  -1299.70294165     A.U. after   12 cycles
 SCF Done:  E(RB3LYP) =  -1299.70323140     A.U. after   12 cycles
 SCF Done:  E(RB3LYP) =  -1299.70324401     A.U. after   10 cycles
 SCF Done:  E(RB3LYP) =  -1299.70325264     A.U. after   10 cycles
 SCF Done:  E(RB3LYP) =  -1299.70325321     A.U. after    9 cycles
 SCF Done:  E(RB3LYP) =  -1299.70325279     A.U. after    7 cycles
 SCF Done:  E(RB3LYP) =  -1299.70325416     A.U. after    9 cycles
 SCF Done:  E(RB3LYP) =  -1299.70325428     A.U. after    7 cycles
 Optimization completed.
    -- Stationary point found.

                         Standard orientation:
 ---------------------------------------------------------------------
 Center     Atomic      Atomic             Coordinates (Angstroms)
 Number     Number       Type             X           Y           Z
 ---------------------------------------------------------------------
      1          6           0        5.616382    2.425368   -1.282014
      2          6           0        4.618950    1.709856   -0.420489
      3          6           0        3.733921    2.237295    0.479619
      4          6           0        2.924965    1.257738    1.133666
      5          6           0        3.180494   -0.025637    0.735482
      6          6           0        2.572661   -1.303116    1.253151
      7          8           0        3.440151   -2.001357    2.154811
      8          6           0        2.098918   -2.264526    0.135113
      9          7           0        1.143646   -1.751315   -0.836226
     10          6           0       -0.158921   -1.365747   -0.298261
     11          6           0       -1.137060   -1.036817   -1.440195
     12          6           0       -2.517958   -0.665685   -0.942912
     13          6           0       -3.524928   -1.632697   -0.851931
     14          6           0       -4.808160   -1.337538   -0.355511
     15          6           0       -5.035504   -0.037995    0.048467
     16          6           0       -4.043624    0.935837   -0.036568
     17          6           0       -2.784129    0.658434   -0.526288
     18          8           0       -4.544219    2.143552    0.395201
     19          6           0       -5.836129    1.848665    0.937459
     20          8           0       -6.195297    0.523343    0.535093
     21         16           0        4.449805   -0.032657   -0.484094
     22          1           0        6.644081    2.103641   -1.073645
     23          1           0        5.558532    3.502341   -1.095367
     24          1           0        5.431377    2.259534   -2.350418
     25          1           0        3.663673    3.303209    0.673470
     26          1           0        2.181613    1.496666    1.887986
     27          1           0        1.714659   -1.019488    1.871703
     28          1           0        4.262088   -2.198044    1.676398
     29          1           0        2.984432   -2.617437   -0.414723
     30          1           0        1.665885   -3.144604    0.625227
     31          1           0        1.555225   -0.965565   -1.337883
     32          1           0       -0.122851   -0.507991    0.398329
     33          1           0       -0.550834   -2.215564    0.275901
     34          1           0       -1.188692   -1.905225   -2.105997
     35          1           0       -0.721116   -0.209920   -2.033130
     36          1           0       -3.311340   -2.647440   -1.177474
     37          1           0       -5.585516   -2.091887   -0.297766
     38          1           0       -2.027915    1.434554   -0.594411
     39          1           0       -6.567112    2.559604    0.542044
     40          1           0       -5.792923    1.900418    2.035279
 ---------------------------------------------------------------------

 The electronic state is 1-A.
 Alpha  occ. eigenvalues --  -88.90614 -19.18985 -19.18935 -19.14423 -14.31576
 Alpha  occ. eigenvalues --  -10.30433 -10.24518 -10.24383 -10.24277 -10.22567
 Alpha  occ. eigenvalues --  -10.21635 -10.20723 -10.20609 -10.20061 -10.19389
 Alpha  occ. eigenvalues --  -10.19383 -10.19248 -10.19238 -10.19059 -10.18553
 Alpha  occ. eigenvalues --  -10.18384  -7.96740  -5.93145  -5.92786  -5.92438
 Alpha  occ. eigenvalues --   -1.12246  -1.03114  -1.01709  -0.90194  -0.87913
 Alpha  occ. eigenvalues --   -0.85765  -0.78623  -0.77457  -0.75109  -0.74163
 Alpha  occ. eigenvalues --   -0.72939  -0.71196  -0.67936  -0.66190  -0.63070
 Alpha  occ. eigenvalues --   -0.61897  -0.60687  -0.59025  -0.55637  -0.53874
 Alpha  occ. eigenvalues --   -0.51939  -0.51727  -0.51380  -0.50696  -0.48992
 Alpha  occ. eigenvalues --   -0.48296  -0.46755  -0.45161  -0.44903  -0.44226
 Alpha  occ. eigenvalues --   -0.43605  -0.43175  -0.41985  -0.41580  -0.40269
 Alpha  occ. eigenvalues --   -0.40152  -0.39158  -0.37965  -0.37922  -0.37580
 Alpha  occ. eigenvalues --   -0.37216  -0.36385  -0.36027  -0.35557  -0.35375
 Alpha  occ. eigenvalues --   -0.34639  -0.34092  -0.33740  -0.32610  -0.30217
 Alpha  occ. eigenvalues --   -0.28250  -0.25379  -0.24132  -0.22659  -0.21438
 Alpha  occ. eigenvalues --   -0.20146
 Alpha virt. eigenvalues --   -0.01739   0.00286   0.01444   0.02112   0.05936
 Alpha virt. eigenvalues --    0.07194   0.09072   0.09714   0.10158   0.10648
 Alpha virt. eigenvalues --    0.11282   0.11324   0.12121   0.12517   0.13381

 Mulliken charges:
               1
     1  C   -0.506788
     2  C   -0.100043
     3  C   -0.125156
     4  C   -0.127492
     5  C   -0.130424
     6  C    0.066685
     7  O   -0.613729
     8  C   -0.169061
     9  N   -0.546635
    10  C   -0.116185
    11  C   -0.355421
    12  C    0.157168
    13  C   -0.200819
    14  C   -0.181968
    15  C    0.327340
    16  C    0.333767
    17  C   -0.236788
    18  O   -0.533510
    19  C    0.192338
    20  O   -0.531246
    21  S    0.191813
    22  H    0.172693
    23  H    0.168963
    24  H    0.171678
    25  H    0.136364
    26  H    0.142413
    27  H    0.152945
    28  H    0.388338
    29  H    0.135416
    30  H    0.155749
    31  H    0.303296
    32  H    0.119416
    33  H    0.143563
    34  H    0.155664
    35  H    0.137614
    36  H    0.127281
    37  H    0.143258
    38  H    0.136298
    39  H    0.163944
    40  H    0.151260
 Sum of Mulliken charges =  -0.00000

 Dipole moment (field-independent basis, Debye):
    X=              0.7110    Y=              2.0959    Z=             -0.5626  Tot=              2.2836
 Quadrupole moment (field-independent basis, Debye-Ang):
   XX=           -118.8006   YY=           -123.8889   ZZ=           -135.2333
   XY=              3.2119   XZ=            -11.2077   YZ=              2.5901

 Normal termination of Gaussian 16 at Fri Nov  4 18:56:23 2022.
