 Gaussian 16, Revision B.01,
 Gaussian 16:  ES64L-G16RevB.01 20-Dec-2017

 -------------------------------------------------------------------
 #p b3lyp/6-31g(d) 6D 10F nosymm GFInput td=(50-50,nstate=2) SCF=XQC
 -------------------------------------------------------------------

 ------------------------------
 Gaussian input prepared by ASE
 ------------------------------
 Symbolic Z-matrix:
 Charge =  0 Multiplicity = 1

                          Input orientation:
 ---------------------------------------------------------------------
 Center     Atomic      Atomic             Coordinates (Angstroms)
 Number     Number       Type             X           Y           Z
 ---------------------------------------------------------------------
      1          6           0       -9.154026    0.417169    0.466817
      2          6           0       -7.718098    0.705991    0.206473
      3          7           0       -7.205551    1.524569   -0.667924
      4          6           0       -5.831713    1.422635   -0.494143
      5          6           0       -4.899735    2.214095   -1.358004
      6          6           0       -5.580767    0.522290    0.509404
      7          6           0       -4.390520   -0.078797    1.153605
      8          8           0       -4.454793   -1.135832    1.772815
      9          7           0       -3.224115    0.626149    0.983927
     10          6           0       -1.965978    0.202577    1.589283
     11          6           0       -0.958857   -0.370571    0.577759
     12          6           0       -1.512165   -1.618142   -0.169420
     13          6           0       -0.436237   -2.704882   -0.347535
     14          6           0        0.928296   -2.113466   -0.709384
     15          7           0        1.368938   -1.171753    0.330924
     16          6           0        2.645891   -0.670134    0.419289
     17          8           0        2.978739    0.111650    1.304594
     18          6           0        3.644177   -1.174477   -0.638807
     19          6           0        4.920788   -0.369120   -0.723751
     20          6           0        5.254539    0.281736   -1.914317
     21          6           0        6.443018    1.022633   -2.058151
     22          6           0        7.273132    1.080098   -0.958814
     23          6           0        6.950286    0.434434    0.233477
     24          6           0        5.792076   -0.295692    0.386003
     25          8           0        7.961251    0.629199    1.149052
     26          6           0        8.831215    1.595706    0.554784
     27          8           0        8.494563    1.702583   -0.832990
     28          6           0        0.364870   -0.691619    1.287290
     29          8           0       -6.798223    0.055718    0.953418
     30          1           0       -9.425315    0.676413    1.496477
     31          1           0       -9.370226   -0.647764    0.326703
     32          1           0       -9.765446    1.001982   -0.222190
     33          1           0       -5.359842    2.370491   -2.337565
     34          1           0       -3.943394    1.701858   -1.502325
     35          1           0       -4.698684    3.207542   -0.934617
     36          1           0       -3.277792    1.561265    0.607533
     37          1           0       -2.218804   -0.552398    2.339214
     38          1           0       -1.524390    1.061016    2.111058
     39          1           0       -0.736690    0.414364   -0.159544
     40          1           0       -1.894354   -1.315040   -1.151409
     41          1           0       -2.363792   -2.037395    0.377051
     42          1           0       -0.733047   -3.411856   -1.130515
     43          1           0       -0.333613   -3.289976    0.574534
     44          1           0        0.859901   -1.608089   -1.686088
     45          1           0        1.662089   -2.919910   -0.815394
     46          1           0        3.165312   -1.201318   -1.623337
     47          1           0        3.872774   -2.223064   -0.392202
     48          1           0        4.575710    0.218633   -2.760933
     49          1           0        6.695992    1.522322   -2.986987
     50          1           0        5.548768   -0.774476    1.326665
     51          1           0        8.686078    2.570856    1.042651
     52          1           0        9.867799    1.261045    0.651795
     53          1           0        0.200948   -1.439033    2.078269
     54          1           0        0.789018    0.192701    1.765485
 ---------------------------------------------------------------------

 SCF Done:  E(RB3LYP) =  -1355.66958541     A.U. after   15 cycles

 Excitation energies and oscillator strengths:

 Excited state symmetry could not be determined.
 Excited State   1:      Triplet-?Sym    3.4804 eV  356.24 nm  f=0.0000  <S**2>=2.000
     100 ->107         0.12185
     103 ->107         0.66208
     105 ->107        -0.11246
 This state for optimization and/or second-order correction.
 Total Energy, E(TD-HF/TD-DFT) =  -1355.54168458
 Copying the excited state density for this state as the 1-particle RhoCI density.

 Excited state symmetry could not be determined.
 Excited State   2:      Triplet-?Sym    3.5837 eV  345.97 nm  f=0.0000  <S**2>=2.000
      98 ->109         0.11835
     104 ->108        -0.30871
     105 ->108         0.16045
     106 ->108         0.16023
     106 ->109         0.57146

 Excited state symmetry could not be determined.
 Excited State   3:      Singlet-?Sym    4.2222 eV  293.64 nm  f=0.0002  <S**2>=0.000
     106 ->107         0.70692

 Excited state symmetry could not be determined.
 Excited State   4:      Singlet-?Sym    4.6933 eV  264.17 nm  f=0.0051  <S**2>=0.000
     100 ->107         0.15258
     101 ->107         0.63174
     103 ->107        -0.24209

 Alpha  occ. eigenvalues --  -19.22771 -19.18506 -19.18374 -19.11644 -19.10389
 Alpha  occ. eigenvalues --  -14.36879 -14.35948 -14.33301 -10.29985 -10.29933
 Alpha  occ. eigenvalues --  -10.28710 -10.28014 -10.25034 -10.23982 -10.23873
 Alpha  occ. eigenvalues --  -10.23647 -10.23112 -10.22752 -10.21622 -10.20584
 Alpha  occ. eigenvalues --  -10.20412 -10.20048 -10.19867 -10.19675 -10.19268
 Alpha  occ. eigenvalues --  -10.18808 -10.18743 -10.18382 -10.18335  -1.13734
 Alpha  occ. eigenvalues --   -1.11745  -1.03575  -1.02598  -1.02492  -0.93440
 Alpha  occ. eigenvalues --   -0.92976  -0.92469  -0.85412  -0.81903  -0.80831
 Alpha  occ. eigenvalues --   -0.78164  -0.77687  -0.74905  -0.74644  -0.73065
 Alpha  occ. eigenvalues --   -0.71696  -0.69122  -0.67715  -0.65455  -0.63555
 Alpha  occ. eigenvalues --   -0.61758  -0.61424  -0.60459  -0.59908  -0.58260
 Alpha  occ. eigenvalues --   -0.56728  -0.54003  -0.53715  -0.51671  -0.51481
 Alpha  occ. eigenvalues --   -0.51174  -0.50722  -0.49484  -0.48958  -0.48360
 Alpha  occ. eigenvalues --   -0.47675  -0.46922  -0.45597  -0.45219  -0.44193
 Alpha  occ. eigenvalues --   -0.43957  -0.43602  -0.43364  -0.42977  -0.42556
 Alpha  occ. eigenvalues --   -0.42305  -0.41647  -0.41243  -0.40911  -0.40307
 Alpha  occ. eigenvalues --   -0.40039  -0.39841  -0.39216  -0.38796  -0.38326
 Alpha  occ. eigenvalues --   -0.38061  -0.37777  -0.37465  -0.36868  -0.36171
 Alpha  occ. eigenvalues --   -0.35516  -0.35243  -0.34117  -0.33540  -0.32812
 Alpha  occ. eigenvalues --   -0.32464  -0.31683  -0.30107  -0.29818  -0.26008
 Alpha  occ. eigenvalues --   -0.25767  -0.24494  -0.24259  -0.23463  -0.23121
 Alpha  occ. eigenvalues --   -0.19825
 Alpha virt. eigenvalues --   -0.03437   0.00747   0.01914   0.02661   0.03311
 Alpha virt. eigenvalues --    0.06057   0.06996   0.08709   0.09272   0.10150
 Alpha virt. eigenvalues --    0.10641   0.10835   0.11236   0.11570   0.11817

 Mulliken charges:
               1
     1  C   -0.529519
     2  C    0.512378
     3  N   -0.483787
     4  C    0.213491
     5  C   -0.547874
     6  C    0.227369
     7  C    0.563999
     8  O   -0.522732
     9  N   -0.629948
    10  C   -0.148324
    11  C   -0.090791
    12  C   -0.285192
    13  C   -0.296119
    14  C   -0.121846
    15  N   -0.446249
    16  C    0.593697
    17  O   -0.512428
    18  C   -0.485688
    19  C    0.184503
    20  C   -0.204657
    21  C   -0.184267
    22  C    0.330227
    23  C    0.323260
    24  C   -0.198421
    25  O   -0.532035
    26  C    0.192354
    27  O   -0.532934
    28  C   -0.143342
    29  O   -0.436962
    30  H    0.184555
    31  H    0.186296
    32  H    0.191078
    33  H    0.188972
    34  H    0.162772
    35  H    0.171376
    36  H    0.332516
    37  H    0.189372
    38  H    0.148239
    39  H    0.127940
    40  H    0.136314
    41  H    0.177268
    42  H    0.147926
    43  H    0.154477
    44  H    0.144136
    45  H    0.154127
    46  H    0.162504
    47  H    0.176704
    48  H    0.117470
    49  H    0.139634
    50  H    0.150531
    51  H    0.151305
    52  H    0.162045
    53  H    0.146158
    54  H    0.188121
 Sum of Mulliken charges =  -0.00000

 Dipole moment (field-independent basis, Debye):
    X=             -1.7226    Y=              0.5108    Z=             -2.4901  Tot=              3.0707
 Quadrupole moment (field-independent basis, Debye-Ang):
   XX=           -165.1784   YY=           -163.1100   ZZ=           -171.2711
   XY=             -6.7685   XZ=              0.8836   YZ=              6.0341

 Normal termination of Gaussian 16 at Sat Nov  5 11:19:54 2022.
