 Gaussian 16, Revision B.01,
 Gaussian 16:  ES64L-G16RevB.01 20-Dec-2017

 -----------------------------
 #p b3lyp/6-31g(d) opt SCF=XQC
 -----------------------------

 ------------------------------
 Gaussian input prepared by ASE
 ------------------------------
 Symbolic Z-matrix:
 Charge =  0 Multiplicity = 1

 SCF Done:  E(RB3LYP) =  -1355.66145344     A.U. after   15 cycles
 SCF Done:  E(RB3LYP) =  -1355.66823432     A.U. after   12 cycles
 SCF Done:  E(RB3LYP) =  -1355.66882346     A.U. after   11 cycles
 SCF Done:  E(RB3LYP) =  -1355.66902557     A.U. after   12 cycles
 SCF Done:  E(RB3LYP) =  -1355.66911800     A.U. after   11 cycles
 SCF Done:  E(RB3LYP) =  -1355.66922366     A.U. after   11 cycles
 SCF Done:  E(RB3LYP) =  -1355.66932607     A.U. after   12 cycles
 SCF Done:  E(RB3LYP) =  -1355.66938732     A.U. after   10 cycles
 SCF Done:  E(RB3LYP) =  -1355.66941715     A.U. after   11 cycles
 SCF Done:  E(RB3LYP) =  -1355.66942675     A.U. after   10 cycles
 SCF Done:  E(RB3LYP) =  -1355.66957688     A.U. after    8 cycles
 SCF Done:  E(RB3LYP) =  -1355.66958074     A.U. after   10 cycles
 SCF Done:  E(RB3LYP) =  -1355.66958238     A.U. after    9 cycles
 SCF Done:  E(RB3LYP) =  -1355.66958428     A.U. after    9 cycles
 SCF Done:  E(RB3LYP) =  -1355.66958484     A.U. after    9 cycles
 SCF Done:  E(RB3LYP) =  -1355.66958537     A.U. after    8 cycles
 SCF Done:  E(RB3LYP) =  -1355.66958569     A.U. after    8 cycles
 SCF Done:  E(RB3LYP) =  -1355.66958579     A.U. after    7 cycles
 SCF Done:  E(RB3LYP) =  -1355.66958581     A.U. after    6 cycles
 SCF Done:  E(RB3LYP) =  -1355.66958583     A.U. after    6 cycles
 Optimization completed.
    -- Stationary point found.

                         Standard orientation:
 ---------------------------------------------------------------------
 Center     Atomic      Atomic             Coordinates (Angstroms)
 Number     Number       Type             X           Y           Z
 ---------------------------------------------------------------------
      1          6           0        9.421414    0.417670   -0.082862
      2          6           0        7.973119    0.750127   -0.012155
      3          7           0        7.415301    1.829909    0.457158
      4          6           0        6.051680    1.636119    0.281076
      5          6           0        5.075557    2.676812    0.734274
      6          6           0        5.853355    0.412919   -0.306417
      7          6           0        4.698163   -0.418197   -0.716012
      8          8           0        4.797928   -1.630336   -0.876131
      9          7           0        3.520588    0.269634   -0.878637
     10          6           0        2.294626   -0.384380   -1.323677
     11          6           0        1.245480   -0.547426   -0.210715
     12          6           0        1.771691   -1.397210    0.981689
     13          6           0        0.695761   -2.356781    1.522015
     14          6           0       -0.687889   -1.704372    1.572352
     15          7           0       -1.085986   -1.246986    0.232372
     16          6           0       -2.360713   -0.848782   -0.094042
     17          8           0       -2.657275   -0.476636   -1.225102
     18          6           0       -3.403637   -0.930202    1.035641
     19          6           0       -4.688026   -0.185022    0.751735
     20          6           0       -5.080797    0.866123    1.584367
     21          6           0       -6.279460    1.576633    1.383161
     22          6           0       -7.058115    1.186267    0.314403
     23          6           0       -6.676191    0.138987   -0.522262
     24          6           0       -5.507432   -0.565658   -0.334442
     25          8           0       -7.644905   -0.058238   -1.481926
     26          6           0       -8.547734    1.041543   -1.342264
     27          8           0       -8.276431    1.682862   -0.090952
     28          6           0       -0.041841   -1.148566   -0.793976
     29          8           0        7.093082   -0.159492   -0.486582
     30          1           0        9.738415    0.266587   -1.120979
     31          1           0        9.637816   -0.505573    0.466000
     32          1           0        9.996443    1.237216    0.351027
     33          1           0        5.488766    3.209480    1.595215
     34          1           0        4.116910    2.237049    1.026524
     35          1           0        4.887873    3.425331   -0.047460
     36          1           0        3.550685    1.278568   -0.890504
     37          1           0        2.586826   -1.363737   -1.713274
     38          1           0        1.872104    0.195945   -2.153655
     39          1           0        0.984295    0.455434    0.156913
     40          1           0        2.106000   -0.730132    1.785110
     41          1           0        2.650427   -1.974179    0.674118
     42          1           0        0.960577   -2.700201    2.528444
     43          1           0        0.639769   -3.254232    0.893903
     44          1           0       -0.668100   -0.860225    2.280208
     45          1           0       -1.420541   -2.424984    1.951799
     46          1           0       -2.970728   -0.564206    1.972640
     47          1           0       -3.613737   -1.997982    1.203886
     48          1           0       -4.441518    1.150306    2.416299
     49          1           0       -6.578434    2.389416    2.036169
     50          1           0       -5.217701   -1.363944   -1.006807
     51          1           0       -8.386502    1.756608   -2.162437
     52          1           0       -9.576511    0.670696   -1.344200
     53          1           0        0.163405   -2.138885   -1.227898
     54          1           0       -0.449128   -0.527158   -1.593077
 ---------------------------------------------------------------------

 The electronic state is 1-A.
 Alpha  occ. eigenvalues --  -19.22771 -19.18506 -19.18374 -19.11644 -19.10389
 Alpha  occ. eigenvalues --  -14.36879 -14.35948 -14.33301 -10.29985 -10.29933
 Alpha  occ. eigenvalues --  -10.28710 -10.28014 -10.25034 -10.23982 -10.23873
 Alpha  occ. eigenvalues --  -10.23647 -10.23112 -10.22753 -10.21622 -10.20584
 Alpha  occ. eigenvalues --  -10.20412 -10.20048 -10.19867 -10.19675 -10.19268
 Alpha  occ. eigenvalues --  -10.18808 -10.18743 -10.18382 -10.18335  -1.13734
 Alpha  occ. eigenvalues --   -1.11745  -1.03575  -1.02598  -1.02492  -0.93439
 Alpha  occ. eigenvalues --   -0.92976  -0.92469  -0.85411  -0.81903  -0.80831
 Alpha  occ. eigenvalues --   -0.78164  -0.77687  -0.74905  -0.74644  -0.73065
 Alpha  occ. eigenvalues --   -0.71696  -0.69122  -0.67715  -0.65455  -0.63555
 Alpha  occ. eigenvalues --   -0.61758  -0.61424  -0.60459  -0.59908  -0.58260
 Alpha  occ. eigenvalues --   -0.56728  -0.54003  -0.53715  -0.51671  -0.51481
 Alpha  occ. eigenvalues --   -0.51174  -0.50722  -0.49484  -0.48958  -0.48360
 Alpha  occ. eigenvalues --   -0.47675  -0.46922  -0.45597  -0.45219  -0.44193
 Alpha  occ. eigenvalues --   -0.43957  -0.43602  -0.43364  -0.42977  -0.42555
 Alpha  occ. eigenvalues --   -0.42305  -0.41647  -0.41243  -0.40911  -0.40307
 Alpha  occ. eigenvalues --   -0.40039  -0.39841  -0.39216  -0.38796  -0.38326
 Alpha  occ. eigenvalues --   -0.38061  -0.37777  -0.37465  -0.36868  -0.36171
 Alpha  occ. eigenvalues --   -0.35516  -0.35243  -0.34117  -0.33540  -0.32812
 Alpha  occ. eigenvalues --   -0.32464  -0.31683  -0.30107  -0.29818  -0.26008
 Alpha  occ. eigenvalues --   -0.25768  -0.24494  -0.24259  -0.23463  -0.23121
 Alpha  occ. eigenvalues --   -0.19825
 Alpha virt. eigenvalues --   -0.03437   0.00747   0.01914   0.02661   0.03312
 Alpha virt. eigenvalues --    0.06057   0.06996   0.08709   0.09272   0.10150
 Alpha virt. eigenvalues --    0.10641   0.10835   0.11236   0.11570   0.11817

 Mulliken charges:
               1
     1  C   -0.529519
     2  C    0.512372
     3  N   -0.483782
     4  C    0.213489
     5  C   -0.547872
     6  C    0.227371
     7  C    0.564004
     8  O   -0.522730
     9  N   -0.629949
    10  C   -0.148339
    11  C   -0.090783
    12  C   -0.285196
    13  C   -0.296103
    14  C   -0.121856
    15  N   -0.446252
    16  C    0.593717
    17  O   -0.512433
    18  C   -0.485716
    19  C    0.184530
    20  C   -0.204666
    21  C   -0.184276
    22  C    0.330242
    23  C    0.323280
    24  C   -0.198447
    25  O   -0.532035
    26  C    0.192346
    27  O   -0.532936
    28  C   -0.143351
    29  O   -0.436961
    30  H    0.184554
    31  H    0.186296
    32  H    0.191079
    33  H    0.188972
    34  H    0.162769
    35  H    0.171376
    36  H    0.332516
    37  H    0.189375
    38  H    0.148242
    39  H    0.127940
    40  H    0.136315
    41  H    0.177267
    42  H    0.147924
    43  H    0.154475
    44  H    0.144136
    45  H    0.154128
    46  H    0.162511
    47  H    0.176709
    48  H    0.117470
    49  H    0.139634
    50  H    0.150530
    51  H    0.151306
    52  H    0.162046
    53  H    0.146161
    54  H    0.188121
 Sum of Mulliken charges =  -0.00000

 Dipole moment (field-independent basis, Debye):
    X=              1.6020    Y=              1.4718    Z=              2.1671  Tot=              3.0706
 Quadrupole moment (field-independent basis, Debye-Ang):
   XX=           -164.5364   YY=           -168.3148   ZZ=           -165.2897
   XY=              7.3155   XZ=             -0.8211   YZ=             -6.7173

 Normal termination of Gaussian 16 at Fri Nov  4 18:57:22 2022.
