 Gaussian 16, Revision B.01,
 Gaussian 16:  ES64L-G16RevB.01 20-Dec-2017

 -------------------------------------------------------------------
 #p b3lyp/6-31g(d) 6D 10F nosymm GFInput td=(50-50,nstate=2) SCF=XQC
 -------------------------------------------------------------------

 ------------------------------
 Gaussian input prepared by ASE
 ------------------------------
 Symbolic Z-matrix:
 Charge =  0 Multiplicity = 1

                          Input orientation:
 ---------------------------------------------------------------------
 Center     Atomic      Atomic             Coordinates (Angstroms)
 Number     Number       Type             X           Y           Z
 ---------------------------------------------------------------------
      1          6           0        2.410007    6.431856   -0.087220
      2          6           0        2.694861    5.146763    0.122052
      3          6           0        3.802973    4.347910   -0.523761
      4          6           0        4.111217    3.286174    0.546919
      5          6           0        4.641742    1.963264   -0.002104
      6          6           0        4.625909    0.823598    1.023055
      7          6           0        5.272468   -0.475826    0.523830
      8          6           0        6.814244   -0.384115    0.328112
      9          6           0        7.069046   -0.844794   -1.119800
     10          8           0        8.229063   -1.654993   -1.194927
     11          6           0        8.740965   -1.808922   -2.506983
     12          6           0        5.729119   -1.533434   -1.505024
     13          8           0        4.767137   -0.757704   -0.783075
     14          6           0        5.654012   -3.032510   -1.161008
     15          6           0        6.013663   -3.370312    0.293186
     16          6           0        4.950481   -2.867284    1.280202
     17          8           0        4.867370   -1.449130    1.478430
     18          6           0        3.624745   -3.512328    0.830767
     19          8           0        2.559655   -3.092439    1.667679
     20          6           0        1.253735   -3.619159    1.343195
     21          6           0        1.290358   -4.597658    0.158856
     22          6           0        2.051725   -4.047688   -1.064776
     23          6           0        3.284939   -3.229431   -0.637042
     24          8           0        4.375965   -3.579145   -1.508898
     25          6           0        0.327333   -2.410330    1.147855
     26          6           0       -1.160515   -2.715097    1.170693
     27          8           0       -1.590805   -3.858094    1.218885
     28          6           0       -2.116012   -1.523788    1.123623
     29          6           0       -2.954589   -1.481148   -0.163859
     30          6           0       -3.764709   -0.182972   -0.344871
     31          6           0       -2.943683    1.048303   -0.764150
     32          6           0       -3.133721    2.271346    0.136798
     33          8           0       -1.969283    3.086986   -0.046920
     34          6           0       -1.880865    4.140169    0.911289
     35          6           0       -0.498553    4.781309    0.774797
     36          6           0        0.613521    3.723627    0.790361
     37          6           0        2.022660    4.224535    1.131264
     38          8           0        2.855023    3.055385    1.194062
     39          6           0       -3.058751    5.097865    0.725160
     40          6           0       -4.407434    4.346428    0.835871
     41          6           0       -5.591083    5.290731    0.610355
     42          6           0       -4.388149    3.111785   -0.059843
     43          6           0       -5.359293    2.789399   -0.918712
     44          8           0       -4.737465   -0.511139   -1.352696
     45          6           0       -4.883091   -1.939302   -1.467894
     46          6           0       -6.366468   -2.308215   -1.659914
     47          6           0       -7.394408   -1.626741   -0.746424
     48          8           0       -7.439774   -2.179276    0.568711
     49          6           0       -8.818836   -1.789472   -1.280028
     50          8           0       -9.757344   -1.221335   -0.386072
     51          6           0       -4.063051   -2.544761   -0.305103
     52          8           0       -4.786856   -2.644290    0.926096
     53          6           0       -4.931866   -3.979075    1.424320
     54          1           0        2.960424    7.026863   -0.811706
     55          1           0        1.617366    6.941843    0.454036
     56          1           0        3.439147    3.849085   -1.433734
     57          1           0        4.669124    4.957768   -0.798448
     58          1           0        4.824419    3.697865    1.282806
     59          1           0        5.658920    2.143687   -0.378986
     60          1           0        4.034798    1.666704   -0.864169
     61          1           0        3.591971    0.597817    1.293569
     62          1           0        5.136096    1.116880    1.949142
     63          1           0        7.162764    0.640475    0.482248
     64          1           0        7.346084   -1.013476    1.042673
     65          1           0        7.196239    0.032638   -1.772372
     66          1           0        9.664702   -2.386457   -2.420486
     67          1           0        8.046865   -2.349610   -3.167824
     68          1           0        8.969093   -0.833911   -2.964437
     69          1           0        5.474389   -1.417250   -2.562850
     70          1           0        6.356896   -3.551218   -1.822585
     71          1           0        7.014281   -3.012073    0.537558
     72          1           0        6.045138   -4.463199    0.378511
     73          1           0        5.174568   -3.248992    2.283050
     74          1           0        3.795950   -4.596966    0.942003
     75          1           0        0.901235   -4.166559    2.227272
     76          1           0        0.263821   -4.870997   -0.098137
     77          1           0        1.773107   -5.520595    0.500369
     78          1           0        2.393102   -4.882053   -1.686978
     79          1           0        1.396406   -3.434397   -1.694103
     80          1           0        3.076992   -2.160403   -0.718916
     81          1           0        0.555471   -1.879599    0.210613
     82          1           0        0.542257   -1.678438    1.939084
     83          1           0       -2.795005   -1.601889    1.980226
     84          1           0       -1.552322   -0.588925    1.221538
     85          1           0       -2.291101   -1.577782   -1.036144
     86          1           0       -4.299058    0.027984    0.595027
     87          1           0       -3.170447    1.292571   -1.806213
     88          1           0       -1.873023    0.815940   -0.722832
     89          1           0       -3.126949    1.922015    1.188992
     90          1           0       -1.949226    3.690467    1.921169
     91          1           0       -0.376883    5.487230    1.608895
     92          1           0       -0.449895    5.370113   -0.149051
     93          1           0        0.646863    3.208292   -0.174113
     94          1           0        0.377627    2.954971    1.538279
     95          1           0        2.003358    4.710369    2.121070
     96          1           0       -2.979740    5.565535   -0.265547
     97          1           0       -3.017841    5.899742    1.474685
     98          1           0       -4.470988    3.975608    1.874091
     99          1           0       -5.593902    5.687552   -0.411693
    100          1           0       -5.533373    6.140774    1.299674
    101          1           0       -6.548643    4.787450    0.780850
    102          1           0       -6.241530    3.410090   -1.041569
    103          1           0       -5.328723    1.884464   -1.516448
    104          1           0       -4.359035   -2.255393   -2.385241
    105          1           0       -6.617251   -2.032310   -2.693229
    106          1           0       -6.480191   -3.398253   -1.591963
    107          1           0       -7.166363   -0.552455   -0.695711
    108          1           0       -6.531575   -2.128578    0.924195
    109          1           0       -8.929157   -1.273850   -2.240383
    110          1           0       -9.019982   -2.863237   -1.443243
    111          1           0       -9.459097   -1.509804    0.494502
    112          1           0       -3.667633   -3.528443   -0.573767
    113          1           0       -3.948543   -4.438058    1.561591
    114          1           0       -5.440370   -3.894776    2.387804
    115          1           0       -5.548956   -4.588371    0.752030
 ---------------------------------------------------------------------

 SCF Done:  E(RB3LYP) =  -2502.24497780     A.U. after   14 cycles

 Excitation energies and oscillator strengths:

 Excited state symmetry could not be determined.
 Excited State   1:      Triplet-?Sym    3.6906 eV  335.95 nm  f=0.0000  <S**2>=2.000
     191 ->203        -0.19398
     192 ->203         0.37338
     193 ->203        -0.26209
     196 ->203         0.27649
     199 ->203        -0.23718
     200 ->203         0.13361
     202 ->203         0.28662
 This state for optimization and/or second-order correction.
 Total Energy, E(TD-HF/TD-DFT) =  -2502.10935207
 Copying the excited state density for this state as the 1-particle RhoCI density.

 Excited state symmetry could not be determined.
 Excited State   2:      Triplet-?Sym    3.8898 eV  318.74 nm  f=0.0000  <S**2>=2.000
     194 ->204        -0.47692
     198 ->204         0.11635
     199 ->204         0.23581
     200 ->204         0.42566

 Excited state symmetry could not be determined.
 Excited State   3:      Singlet-?Sym    4.2528 eV  291.54 nm  f=0.0005  <S**2>=0.000
     191 ->203        -0.16110
     192 ->203         0.33274
     193 ->203        -0.23397
     196 ->203         0.27194
     199 ->203        -0.25640
     200 ->203         0.14614
     202 ->203         0.36316

 Excited state symmetry could not be determined.
 Excited State   4:      Singlet-?Sym    4.9937 eV  248.28 nm  f=0.0002  <S**2>=0.000
     191 ->203         0.14658
     192 ->203        -0.24046
     193 ->203         0.19593
     196 ->203        -0.12079
     202 ->203         0.58798

 Alpha  occ. eigenvalues --  -19.17137 -19.16413 -19.15689 -19.15292 -19.14851
 Alpha  occ. eigenvalues --  -19.14472 -19.14366 -19.14190 -19.14130 -19.13865
 Alpha  occ. eigenvalues --  -19.12300 -19.11517 -10.28933 -10.28875 -10.25019
 Alpha  occ. eigenvalues --  -10.24878 -10.24359 -10.24199 -10.24029 -10.23964
 Alpha  occ. eigenvalues --  -10.23883 -10.23881 -10.23855 -10.23834 -10.23436
 Alpha  occ. eigenvalues --  -10.23364 -10.23357 -10.23178 -10.22818 -10.22212
 Alpha  occ. eigenvalues --  -10.21847 -10.21033 -10.20965 -10.20304 -10.19704
 Alpha  occ. eigenvalues --  -10.19612 -10.19471 -10.18948 -10.18838 -10.18794
 Alpha  occ. eigenvalues --  -10.18731 -10.18580 -10.18425 -10.18365 -10.18282
 Alpha  occ. eigenvalues --  -10.18193 -10.18155 -10.18148 -10.17826 -10.17644
 Alpha  occ. eigenvalues --  -10.17547 -10.17423 -10.16938  -1.07173  -1.05434
 Alpha  occ. eigenvalues --   -1.05016  -1.04504  -1.03199  -1.02999  -1.02972
 Alpha  occ. eigenvalues --   -1.02950  -1.02040  -1.00887  -1.00164  -0.97956
 Alpha  occ. eigenvalues --   -0.82592  -0.81848  -0.81677  -0.81222  -0.80141
 Alpha  occ. eigenvalues --   -0.79984  -0.79598  -0.79169  -0.78634  -0.78168
 Alpha  occ. eigenvalues --   -0.76217  -0.75137  -0.74529  -0.73344  -0.72308
 Alpha  occ. eigenvalues --   -0.71167  -0.70306  -0.69994  -0.69319  -0.68562
 Alpha  occ. eigenvalues --   -0.67772  -0.67496  -0.66018  -0.65224  -0.63612
 Alpha  occ. eigenvalues --   -0.63273  -0.62185  -0.60585  -0.59989  -0.59803
 Alpha  occ. eigenvalues --   -0.59356  -0.58371  -0.58161  -0.57439  -0.56974
 Alpha  occ. eigenvalues --   -0.56202  -0.55794  -0.54443  -0.53743  -0.53672
 Alpha  occ. eigenvalues --   -0.53147  -0.52266  -0.51889  -0.51507  -0.50987
 Alpha  occ. eigenvalues --   -0.50761  -0.50263  -0.49760  -0.49249  -0.49152
 Alpha  occ. eigenvalues --   -0.49046  -0.48439  -0.47833  -0.47639  -0.47239
 Alpha  occ. eigenvalues --   -0.46947  -0.46689  -0.46483  -0.46347  -0.46009
 Alpha  occ. eigenvalues --   -0.45742  -0.45343  -0.45081  -0.44704  -0.44625
 Alpha  occ. eigenvalues --   -0.44414  -0.43813  -0.43491  -0.43214  -0.42763
 Alpha  occ. eigenvalues --   -0.42651  -0.42255  -0.42002  -0.41929  -0.41516
 Alpha  occ. eigenvalues --   -0.41507  -0.41299  -0.40890  -0.40705  -0.40201
 Alpha  occ. eigenvalues --   -0.39913  -0.39679  -0.39449  -0.39384  -0.38901
 Alpha  occ. eigenvalues --   -0.38692  -0.38539  -0.38439  -0.38344  -0.38076
 Alpha  occ. eigenvalues --   -0.37781  -0.37441  -0.37219  -0.37103  -0.36828
 Alpha  occ. eigenvalues --   -0.36724  -0.36334  -0.36064  -0.35739  -0.35313
 Alpha  occ. eigenvalues --   -0.35196  -0.35055  -0.34819  -0.34715  -0.34588
 Alpha  occ. eigenvalues --   -0.34401  -0.33987  -0.33727  -0.33562  -0.33132
 Alpha  occ. eigenvalues --   -0.32816  -0.32763  -0.32701  -0.32528  -0.32266
 Alpha  occ. eigenvalues --   -0.32067  -0.31670  -0.31302  -0.30995  -0.30395
 Alpha  occ. eigenvalues --   -0.30315  -0.29950  -0.29427  -0.27648  -0.26958
 Alpha  occ. eigenvalues --   -0.26814  -0.26119  -0.25901  -0.25547  -0.25288
 Alpha  occ. eigenvalues --   -0.25084  -0.24403  -0.24329  -0.24150  -0.24087
 Alpha  occ. eigenvalues --   -0.23983  -0.23102
 Alpha virt. eigenvalues --   -0.02867   0.00992   0.01910   0.05684   0.06013
 Alpha virt. eigenvalues --    0.07246   0.07656   0.08119   0.08838   0.09172
 Alpha virt. eigenvalues --    0.09520   0.09602   0.09833   0.10098   0.10342

 Mulliken charges:
               1
     1  C   -0.424700
     2  C    0.174016
     3  C   -0.354587
     4  C    0.166913
     5  C   -0.288784
     6  C   -0.313669
     7  C    0.578925
     8  C   -0.371878
     9  C    0.148296
    10  O   -0.478158
    11  C   -0.206477
    12  C    0.072288
    13  O   -0.511809
    14  C    0.137028
    15  C   -0.347578
    16  C    0.114716
    17  O   -0.529401
    18  C    0.141270
    19  O   -0.532535
    20  C    0.172826
    21  C   -0.314603
    22  C   -0.308461
    23  C    0.141003
    24  O   -0.531333
    25  C   -0.391366
    26  C    0.458428
    27  O   -0.460503
    28  C   -0.359737
    29  C   -0.156942
    30  C    0.183012
    31  C   -0.332351
    32  C    0.088539
    33  O   -0.509662
    34  C    0.149673
    35  C   -0.291364
    36  C   -0.254134
    37  C    0.114040
    38  O   -0.528824
    39  C   -0.261219
    40  C   -0.157319
    41  C   -0.457235
    42  C    0.216137
    43  C   -0.437612
    44  O   -0.536891
    45  C    0.155829
    46  C   -0.311960
    47  C    0.109618
    48  O   -0.691628
    49  C   -0.011170
    50  O   -0.636666
    51  C    0.095936
    52  O   -0.514491
    53  C   -0.236621
    54  H    0.138034
    55  H    0.139923
    56  H    0.157361
    57  H    0.150187
    58  H    0.114012
    59  H    0.122400
    60  H    0.154307
    61  H    0.179604
    62  H    0.143377
    63  H    0.157073
    64  H    0.176376
    65  H    0.127670
    66  H    0.165318
    67  H    0.138917
    68  H    0.138069
    69  H    0.140651
    70  H    0.139096
    71  H    0.174060
    72  H    0.151184
    73  H    0.141600
    74  H    0.108685
    75  H    0.138423
    76  H    0.167229
    77  H    0.147392
    78  H    0.158337
    79  H    0.136394
    80  H    0.162638
    81  H    0.172310
    82  H    0.187582
    83  H    0.185089
    84  H    0.158723
    85  H    0.139568
    86  H    0.137271
    87  H    0.172152
    88  H    0.154546
    89  H    0.110479
    90  H    0.102183
    91  H    0.128855
    92  H    0.148456
    93  H    0.153424
    94  H    0.141150
    95  H    0.128417
    96  H    0.141986
    97  H    0.127464
    98  H    0.131985
    99  H    0.149911
   100  H    0.140940
   101  H    0.153073
   102  H    0.140933
   103  H    0.172203
   104  H    0.122258
   105  H    0.144237
   106  H    0.141536
   107  H    0.142170
   108  H    0.433159
   109  H    0.131762
   110  H    0.110928
   111  H    0.405899
   112  H    0.150508
   113  H    0.189006
   114  H    0.163521
   115  H    0.151171
 Sum of Mulliken charges =  -0.00000

 Dipole moment (field-independent basis, Debye):
    X=              7.1091    Y=              0.6058    Z=             -1.2743  Tot=              7.2478
 Quadrupole moment (field-independent basis, Debye-Ang):
   XX=           -353.1640   YY=           -300.8557   ZZ=           -312.0596
   XY=             -0.6547   XZ=            -18.3133   YZ=              6.7269

 Normal termination of Gaussian 16 at Sat Nov  5 11:46:45 2022.
