 Gaussian 16, Revision B.01,
 Gaussian 16:  ES64L-G16RevB.01 20-Dec-2017

 -------------------------------------------------------------------
 #p b3lyp/6-31g(d) 6D 10F nosymm GFInput td=(50-50,nstate=2) SCF=XQC
 -------------------------------------------------------------------

 ------------------------------
 Gaussian input prepared by ASE
 ------------------------------
 Symbolic Z-matrix:
 Charge =  0 Multiplicity = 1

                          Input orientation:
 ---------------------------------------------------------------------
 Center     Atomic      Atomic             Coordinates (Angstroms)
 Number     Number       Type             X           Y           Z
 ---------------------------------------------------------------------
      1          6           0       -3.660714   -1.980409   -1.407371
      2          6           0       -3.451809   -0.527824   -1.047163
      3          6           0       -4.541842    0.291383   -0.719788
      4          6           0       -4.354877    1.636946   -0.404553
      5          6           0       -3.074829    2.184925   -0.401260
      6          6           0       -1.959267    1.382852   -0.694442
      7          6           0       -0.631398    2.023801   -0.682837
      8          7           0        0.526620    1.556389   -0.361999
      9          7           0        0.654386    0.272530    0.066037
     10          6           0        1.876266   -0.151127    0.541405
     11          7           0        1.930693   -1.317067    1.135195
     12          7           0        3.155731   -1.753551    1.568211
     13          6           0        4.233220   -1.034554    1.402987
     14          6           0        5.547398   -1.561449    1.895569
     15          6           0        4.231388    0.288971    0.754107
     16          8           0        5.200346    1.012495    0.581975
     17          7           0        2.949719    0.658213    0.334291
     18          6           0       -2.169974    0.030712   -1.029438
     19          1           0       -2.739039   -2.439123   -1.777860
     20          1           0       -3.992776   -2.560097   -0.536883
     21          1           0       -4.428615   -2.092781   -2.181418
     22          1           0       -5.545673   -0.126990   -0.724678
     23          1           0       -5.211325    2.261890   -0.166922
     24          1           0       -2.930878    3.235543   -0.162356
     25          1           0       -0.604460    3.077134   -0.957920
     26          1           0       -0.144004   -0.279388    0.370794
     27          1           0        5.992190   -0.874533    2.625256
     28          1           0        5.399988   -2.540389    2.355902
     29          1           0        6.265127   -1.647197    1.071054
     30          1           0        2.809316    1.561066   -0.111388
     31          1           0       -1.330909   -0.588374   -1.334507
 ---------------------------------------------------------------------

 SCF Done:  E(RB3LYP) =  -814.046526038     A.U. after   15 cycles

 Excitation energies and oscillator strengths:

 Excited state symmetry could not be determined.
 Excited State   1:      Triplet-?Sym    2.6662 eV  465.02 nm  f=0.0000  <S**2>=2.000
      62 -> 65         0.18067
      62 -> 66        -0.15270
      64 -> 65         0.63368
 This state for optimization and/or second-order correction.
 Total Energy, E(TD-HF/TD-DFT) =  -813.948544450
 Copying the excited state density for this state as the 1-particle RhoCI density.

 Excited state symmetry could not be determined.
 Excited State   2:      Triplet-?Sym    3.0627 eV  404.82 nm  f=0.0000  <S**2>=2.000
      63 -> 65         0.39982
      63 -> 66         0.54605
      64 -> 66        -0.13393

 Excited state symmetry could not be determined.
 Excited State   3:      Singlet-?Sym    3.6780 eV  337.09 nm  f=0.0015  <S**2>=0.000
      63 -> 65         0.57186
      63 -> 66         0.41078

 Excited state symmetry could not be determined.
 Excited State   4:      Singlet-?Sym    3.8070 eV  325.68 nm  f=0.5588  <S**2>=0.000
      64 -> 65         0.70219

 Alpha  occ. eigenvalues --  -19.12465 -14.41833 -14.40110 -14.39904 -14.36521
 Alpha  occ. eigenvalues --  -14.34758 -10.31596 -10.30049 -10.24857 -10.22957
 Alpha  occ. eigenvalues --  -10.22500 -10.22036 -10.21285 -10.21266 -10.21172
 Alpha  occ. eigenvalues --  -10.20946 -10.19952 -10.17753  -1.07032  -1.04171
 Alpha  occ. eigenvalues --   -1.00724  -0.94412  -0.88965  -0.87296  -0.82191
 Alpha  occ. eigenvalues --   -0.79292  -0.77203  -0.72745  -0.70555  -0.68537
 Alpha  occ. eigenvalues --   -0.66778  -0.64728  -0.62374  -0.60658  -0.56791
 Alpha  occ. eigenvalues --   -0.55840  -0.53631  -0.53234  -0.50448  -0.48799
 Alpha  occ. eigenvalues --   -0.48256  -0.45866  -0.44660  -0.43642  -0.43396
 Alpha  occ. eigenvalues --   -0.42949  -0.42734  -0.41745  -0.40410  -0.40077
 Alpha  occ. eigenvalues --   -0.38405  -0.38279  -0.37520  -0.37040  -0.36190
 Alpha  occ. eigenvalues --   -0.33307  -0.32518  -0.30956  -0.29131  -0.27433
 Alpha  occ. eigenvalues --   -0.26709  -0.25793  -0.23398  -0.22122
 Alpha virt. eigenvalues --   -0.06517  -0.03906  -0.02288   0.00493   0.02725
 Alpha virt. eigenvalues --    0.07610   0.09404   0.10572   0.10712   0.11506
 Alpha virt. eigenvalues --    0.12236   0.12696   0.12956   0.13496   0.15278

 Mulliken charges:
               1
     1  C   -0.532965
     2  C    0.179887
     3  C   -0.170068
     4  C   -0.127228
     5  C   -0.179144
     6  C    0.140546
     7  C   -0.032153
     8  N   -0.230396
     9  N   -0.512633
    10  C    0.819166
    11  N   -0.403504
    12  N   -0.303150
    13  C    0.239126
    14  C   -0.500140
    15  C    0.593695
    16  O   -0.502592
    17  N   -0.689481
    18  C   -0.266730
    19  H    0.164673
    20  H    0.173646
    21  H    0.167998
    22  H    0.135562
    23  H    0.142537
    24  H    0.140482
    25  H    0.162562
    26  H    0.350935
    27  H    0.172745
    28  H    0.173302
    29  H    0.172173
    30  H    0.366576
    31  H    0.154577
 Sum of Mulliken charges =  -0.00000

 Dipole moment (field-independent basis, Debye):
    X=             -6.0860    Y=              1.4243    Z=             -1.7357  Tot=              6.4870
 Quadrupole moment (field-independent basis, Debye-Ang):
   XX=           -107.1631   YY=           -103.0593   ZZ=           -106.1778
   XY=             -3.8731   XZ=             -0.5144   YZ=              4.2605

 Normal termination of Gaussian 16 at Sat Nov  5 11:19:46 2022.
