 Gaussian 16, Revision B.01,
 Gaussian 16:  ES64L-G16RevB.01 20-Dec-2017

 -----------------------------
 #p b3lyp/6-31g(d) opt SCF=XQC
 -----------------------------

 ------------------------------
 Gaussian input prepared by ASE
 ------------------------------
 Symbolic Z-matrix:
 Charge =  0 Multiplicity = 1

 SCF Done:  E(RB3LYP) =  -814.042137015     A.U. after   15 cycles
 SCF Done:  E(RB3LYP) =  -814.046080313     A.U. after   12 cycles
 SCF Done:  E(RB3LYP) =  -814.046316773     A.U. after   11 cycles
 SCF Done:  E(RB3LYP) =  -814.046400592     A.U. after   11 cycles
 SCF Done:  E(RB3LYP) =  -814.046424814     A.U. after   10 cycles
 SCF Done:  E(RB3LYP) =  -814.046458841     A.U. after   10 cycles
 SCF Done:  E(RB3LYP) =  -814.046490572     A.U. after   11 cycles
 SCF Done:  E(RB3LYP) =  -814.046499501     A.U. after    9 cycles
 SCF Done:  E(RB3LYP) =  -814.046501626     A.U. after    8 cycles
 SCF Done:  E(RB3LYP) =  -814.046502402     A.U. after    8 cycles
 SCF Done:  E(RB3LYP) =  -814.046503191     A.U. after    8 cycles
 SCF Done:  E(RB3LYP) =  -814.046504060     A.U. after    9 cycles
 SCF Done:  E(RB3LYP) =  -814.046505088     A.U. after    9 cycles
 SCF Done:  E(RB3LYP) =  -814.046506664     A.U. after    9 cycles
 SCF Done:  E(RB3LYP) =  -814.046509457     A.U. after    9 cycles
 SCF Done:  E(RB3LYP) =  -814.046512726     A.U. after    9 cycles
 SCF Done:  E(RB3LYP) =  -814.046518028     A.U. after   10 cycles
 SCF Done:  E(RB3LYP) =  -814.046521247     A.U. after   10 cycles
 SCF Done:  E(RB3LYP) =  -814.046522788     A.U. after    9 cycles
 SCF Done:  E(RB3LYP) =  -814.046522966     A.U. after    8 cycles
 Optimization completed.
    -- Stationary point found.

                         Standard orientation:
 ---------------------------------------------------------------------
 Center     Atomic      Atomic             Coordinates (Angstroms)
 Number     Number       Type             X           Y           Z
 ---------------------------------------------------------------------
      1          6           0       -4.028268    2.540842    0.738252
      2          6           0       -3.911968    1.107529    0.274051
      3          6           0       -4.977571    0.482265   -0.389259
      4          6           0       -4.880676   -0.846010   -0.802981
      5          6           0       -3.714024   -1.569528   -0.570043
      6          6           0       -2.617492   -0.962034    0.064247
      7          6           0       -1.413889   -1.783422    0.289742
      8          7           0       -0.165297   -1.462084    0.302893
      9          7           0        0.216144   -0.179197    0.065117
     10          6           0        1.558983    0.102426   -0.061061
     11          7           0        1.896615    1.293008   -0.489412
     12          7           0        3.233597    1.583381   -0.572493
     13          6           0        4.143529    0.706461   -0.243443
     14          6           0        5.591701    1.078097   -0.353005
     15          6           0        3.824122   -0.651571    0.232473
     16          8           0        4.627422   -1.517978    0.542382
     17          7           0        2.443941   -0.866437    0.297244
     18          6           0       -2.741303    0.374518    0.492267
     19          1           0       -3.178225    2.831135    1.363008
     20          1           0       -4.064213    3.231062   -0.114015
     21          1           0       -4.944018    2.698590    1.319600
     22          1           0       -5.894399    1.038266   -0.570992
     23          1           0       -5.720519   -1.320423   -1.303103
     24          1           0       -3.642102   -2.606945   -0.886567
     25          1           0       -1.581369   -2.848627    0.442043
     26          1           0       -0.410920    0.504327   -0.352618
     27          1           0        6.117197    0.396309   -1.032089
     28          1           0        5.680031    2.102266   -0.720751
     29          1           0        6.089312    0.992742    0.620345
     30          1           0        2.091462   -1.773150    0.592394
     31          1           0       -1.935480    0.840149    1.052804
 ---------------------------------------------------------------------

 The electronic state is 1-A.
 Alpha  occ. eigenvalues --  -19.12465 -14.41833 -14.40110 -14.39903 -14.36521
 Alpha  occ. eigenvalues --  -14.34758 -10.31596 -10.30049 -10.24857 -10.22957
 Alpha  occ. eigenvalues --  -10.22500 -10.22036 -10.21285 -10.21266 -10.21172
 Alpha  occ. eigenvalues --  -10.20946 -10.19952 -10.17753  -1.07032  -1.04171
 Alpha  occ. eigenvalues --   -1.00724  -0.94412  -0.88965  -0.87296  -0.82191
 Alpha  occ. eigenvalues --   -0.79292  -0.77203  -0.72745  -0.70555  -0.68537
 Alpha  occ. eigenvalues --   -0.66778  -0.64728  -0.62374  -0.60658  -0.56791
 Alpha  occ. eigenvalues --   -0.55840  -0.53631  -0.53234  -0.50448  -0.48799
 Alpha  occ. eigenvalues --   -0.48256  -0.45866  -0.44660  -0.43642  -0.43396
 Alpha  occ. eigenvalues --   -0.42949  -0.42734  -0.41745  -0.40410  -0.40077
 Alpha  occ. eigenvalues --   -0.38405  -0.38279  -0.37520  -0.37040  -0.36190
 Alpha  occ. eigenvalues --   -0.33307  -0.32518  -0.30956  -0.29131  -0.27433
 Alpha  occ. eigenvalues --   -0.26709  -0.25793  -0.23398  -0.22122
 Alpha virt. eigenvalues --   -0.06517  -0.03906  -0.02288   0.00494   0.02725
 Alpha virt. eigenvalues --    0.07610   0.09404   0.10572   0.10712   0.11506
 Alpha virt. eigenvalues --    0.12236   0.12696   0.12956   0.13496   0.15278

 Mulliken charges:
               1
     1  C   -0.532966
     2  C    0.179890
     3  C   -0.170066
     4  C   -0.127219
     5  C   -0.179158
     6  C    0.140546
     7  C   -0.032142
     8  N   -0.230402
     9  N   -0.512633
    10  C    0.819160
    11  N   -0.403497
    12  N   -0.303150
    13  C    0.239129
    14  C   -0.500141
    15  C    0.593690
    16  O   -0.502595
    17  N   -0.689476
    18  C   -0.266735
    19  H    0.164674
    20  H    0.173646
    21  H    0.167997
    22  H    0.135561
    23  H    0.142535
    24  H    0.140482
    25  H    0.162561
    26  H    0.350935
    27  H    0.172745
    28  H    0.173303
    29  H    0.172173
    30  H    0.366576
    31  H    0.154576
 Sum of Mulliken charges =  -0.00000

 Dipole moment (field-independent basis, Debye):
    X=             -6.4511    Y=             -0.6747    Z=              0.0960  Tot=              6.4870
 Quadrupole moment (field-independent basis, Debye-Ang):
   XX=           -101.5274   YY=           -105.1709   ZZ=           -104.8181
   XY=              2.1329   XZ=              1.0870   YZ=              5.1601

 Normal termination of Gaussian 16 at Fri Nov  4 18:26:16 2022.
