 Gaussian 16, Revision B.01,
 Gaussian 16:  ES64L-G16RevB.01 20-Dec-2017

 -------------------------------------------------------------------
 #p b3lyp/6-31g(d) 6D 10F nosymm GFInput td=(50-50,nstate=2) SCF=XQC
 -------------------------------------------------------------------

 ------------------------------
 Gaussian input prepared by ASE
 ------------------------------
 Symbolic Z-matrix:
 Charge =  0 Multiplicity = 1

                          Input orientation:
 ---------------------------------------------------------------------
 Center     Atomic      Atomic             Coordinates (Angstroms)
 Number     Number       Type             X           Y           Z
 ---------------------------------------------------------------------
      1          6           0        3.597044   -1.559974    0.496897
      2          6           0        4.278078   -0.221495    0.594893
      3          6           0        5.575279   -0.072179    1.001516
      4         16           0        6.102499    1.581489    1.005880
      5          6           0        4.563588    2.106083    0.435547
      6          6           0        3.687601    1.058046    0.259109
      7          6           0        2.302111    1.252317   -0.207760
      8          7           0        1.353219    0.430993    0.161544
      9          6           0        0.075639    0.691137   -0.289029
     10          6           0       -0.945934   -0.327556    0.174057
     11          7           0       -2.315484    0.110860   -0.054005
     12          6           0       -3.403002   -0.879143    0.130699
     13          6           0       -3.375033   -1.557682    1.518402
     14          6           0       -4.716706   -0.095848   -0.030204
     15          6           0       -3.314701   -1.942556   -0.978304
     16          6           0       -0.247311    1.758075   -1.079038
     17          6           0        0.774376    2.685416   -1.510696
     18          8           0        0.652093    3.669774   -2.227439
     19          7           0        2.053741    2.330592   -1.012182
     20          1           0        2.748246   -1.622217    1.182870
     21          1           0        3.197590   -1.731711   -0.508739
     22          1           0        4.303280   -2.363624    0.727919
     23          1           0        6.261566   -0.855463    1.295221
     24          1           0        4.368529    3.163540    0.314157
     25          1           0       -0.704015   -0.572877    1.222731
     26          1           0       -0.766064   -1.249460   -0.393425
     27          1           0       -2.503777    0.911590    0.548393
     28          1           0       -2.459355   -2.141368    1.665247
     29          1           0       -3.431781   -0.810261    2.319942
     30          1           0       -4.223998   -2.241028    1.638449
     31          1           0       -4.814631    0.672669    0.747880
     32          1           0       -4.748715    0.401420   -1.005075
     33          1           0       -5.582044   -0.762260    0.052174
     34          1           0       -3.294677   -1.463829   -1.962639
     35          1           0       -2.419296   -2.566861   -0.882359
     36          1           0       -4.181402   -2.611343   -0.932452
     37          1           0       -1.262873    1.912855   -1.419381
     38          1           0        2.816318    2.911879   -1.341132
 ---------------------------------------------------------------------

 SCF Done:  E(RB3LYP) =  -1182.61219045     A.U. after   15 cycles

 Excitation energies and oscillator strengths:

 Excited state symmetry could not be determined.
 Excited State   1:      Triplet-?Sym    2.9082 eV  426.33 nm  f=0.0000  <S**2>=2.000
      72 -> 75        -0.12407
      72 -> 76        -0.11770
      73 -> 75         0.65545
      73 -> 76        -0.10133
 This state for optimization and/or second-order correction.
 Total Energy, E(TD-HF/TD-DFT) =  -1182.50531776
 Copying the excited state density for this state as the 1-particle RhoCI density.

 Excited state symmetry could not be determined.
 Excited State   2:      Triplet-?Sym    3.4149 eV  363.06 nm  f=0.0000  <S**2>=2.000
      70 -> 75         0.23922
      72 -> 75         0.48145
      72 -> 76         0.26090
      72 -> 77         0.15485
      73 -> 75         0.13709
      73 -> 76        -0.25656

 Excited state symmetry could not be determined.
 Excited State   3:      Singlet-?Sym    3.9540 eV  313.57 nm  f=0.0086  <S**2>=0.000
      74 -> 75         0.69878

 Excited state symmetry could not be determined.
 Excited State   4:      Singlet-?Sym    4.2100 eV  294.50 nm  f=0.2220  <S**2>=0.000
      73 -> 75         0.69085

 Alpha  occ. eigenvalues --  -88.92361 -19.10614 -14.39141 -14.32977 -14.31946
 Alpha  occ. eigenvalues --  -10.28976 -10.28792 -10.23769 -10.23494 -10.22487
 Alpha  occ. eigenvalues --  -10.22193 -10.21962 -10.21463 -10.21455 -10.18720
 Alpha  occ. eigenvalues --  -10.18412 -10.17507 -10.17474 -10.17327  -7.98480
 Alpha  occ. eigenvalues --   -5.94876  -5.94505  -5.94200  -1.03541  -0.98446
 Alpha  occ. eigenvalues --   -0.91503  -0.89611  -0.89548  -0.80555  -0.77958
 Alpha  occ. eigenvalues --   -0.77296  -0.74261  -0.70468  -0.68724  -0.68616
 Alpha  occ. eigenvalues --   -0.68190  -0.65145  -0.61614  -0.58606  -0.56720
 Alpha  occ. eigenvalues --   -0.55594  -0.54028  -0.51729  -0.50354  -0.48288
 Alpha  occ. eigenvalues --   -0.45971  -0.45687  -0.45075  -0.44001  -0.43287
 Alpha  occ. eigenvalues --   -0.42750  -0.42337  -0.42310  -0.41081  -0.40557
 Alpha  occ. eigenvalues --   -0.39918  -0.38724  -0.38274  -0.38091  -0.37959
 Alpha  occ. eigenvalues --   -0.37621  -0.36663  -0.35786  -0.35590  -0.34948
 Alpha  occ. eigenvalues --   -0.33506  -0.32698  -0.30366  -0.27620  -0.26437
 Alpha  occ. eigenvalues --   -0.24998  -0.24659  -0.22683  -0.22412
 Alpha virt. eigenvalues --   -0.05545  -0.01407   0.00315   0.02003   0.06937
 Alpha virt. eigenvalues --    0.07005   0.07151   0.10058   0.10832   0.11373
 Alpha virt. eigenvalues --    0.12279   0.12506   0.13080   0.13604   0.14316

 Mulliken charges:
               1
     1  C   -0.498395
     2  C    0.194457
     3  C   -0.411935
     4  S    0.282632
     5  C   -0.409173
     6  C    0.079274
     7  C    0.509933
     8  N   -0.557789
     9  C    0.276253
    10  C   -0.172624
    11  N   -0.571486
    12  C    0.219798
    13  C   -0.447279
    14  C   -0.452947
    15  C   -0.441970
    16  C   -0.255093
    17  C    0.611312
    18  O   -0.531214
    19  N   -0.686246
    20  H    0.186145
    21  H    0.164004
    22  H    0.144735
    23  H    0.176584
    24  H    0.182378
    25  H    0.144705
    26  H    0.168858
    27  H    0.293396
    28  H    0.145170
    29  H    0.134857
    30  H    0.141898
    31  H    0.133813
    32  H    0.158223
    33  H    0.143020
    34  H    0.156809
    35  H    0.139455
    36  H    0.140732
    37  H    0.167413
    38  H    0.340300
 Sum of Mulliken charges =  -0.00000

 Dipole moment (field-independent basis, Debye):
    X=              1.2330    Y=             -2.7656    Z=              2.4087  Tot=              3.8692
 Quadrupole moment (field-independent basis, Debye-Ang):
   XX=           -102.3483   YY=           -126.8410   ZZ=           -128.0855
   XY=              2.8162   XZ=             -1.4315   YZ=              8.9517

 Normal termination of Gaussian 16 at Sat Nov  5 11:15:53 2022.
