 Gaussian 16, Revision B.01,
 Gaussian 16:  ES64L-G16RevB.01 20-Dec-2017

 -----------------------------
 #p b3lyp/6-31g(d) opt SCF=XQC
 -----------------------------

 ------------------------------
 Gaussian input prepared by ASE
 ------------------------------
 Symbolic Z-matrix:
 Charge =  0 Multiplicity = 1

 SCF Done:  E(RB3LYP) =  -1182.60703318     A.U. after   15 cycles
 SCF Done:  E(RB3LYP) =  -1182.61115380     A.U. after   12 cycles
 SCF Done:  E(RB3LYP) =  -1182.61190538     A.U. after   11 cycles
 SCF Done:  E(RB3LYP) =  -1182.61208971     A.U. after   11 cycles
 SCF Done:  E(RB3LYP) =  -1182.61214893     A.U. after   11 cycles
 SCF Done:  E(RB3LYP) =  -1182.61216974     A.U. after   11 cycles
 SCF Done:  E(RB3LYP) =  -1182.61218496     A.U. after    9 cycles
 SCF Done:  E(RB3LYP) =  -1182.61218768     A.U. after    9 cycles
 SCF Done:  E(RB3LYP) =  -1182.61218853     A.U. after    7 cycles
 SCF Done:  E(RB3LYP) =  -1182.61218898     A.U. after    8 cycles
 SCF Done:  E(RB3LYP) =  -1182.61218923     A.U. after    8 cycles
 SCF Done:  E(RB3LYP) =  -1182.61218930     A.U. after    7 cycles
 SCF Done:  E(RB3LYP) =  -1182.61218935     A.U. after    7 cycles
 Optimization completed.
    -- Stationary point found.

                         Standard orientation:
 ---------------------------------------------------------------------
 Center     Atomic      Atomic             Coordinates (Angstroms)
 Number     Number       Type             X           Y           Z
 ---------------------------------------------------------------------
      1          6           0       -2.132295   -2.458239    0.946483
      2          6           0       -3.083609   -1.457678    0.347471
      3          6           0       -4.406978   -1.724433    0.128603
      4         16           0       -5.268179   -0.383669   -0.559355
      5          6           0       -3.839550    0.579466   -0.548700
      6          6           0       -2.753788   -0.103300   -0.046886
      7          6           0       -1.412359    0.501890    0.051106
      8          7           0       -0.338552   -0.239787   -0.039477
      9          6           0        0.882732    0.397733    0.030781
     10          6           0        2.062698   -0.548296   -0.061429
     11          7           0        3.321847    0.148567   -0.282366
     12          6           0        4.578282   -0.627471   -0.155663
     13          6           0        4.602745   -1.889926   -1.045901
     14          6           0        5.706295    0.325075   -0.586364
     15          6           0        4.787269   -1.017361    1.318393
     16          6           0        1.025707    1.749041    0.173239
     17          6           0       -0.137275    2.601162    0.280467
     18          8           0       -0.177543    3.815217    0.429076
     19          7           0       -1.343581    1.858591    0.212642
     20          1           0       -1.335856   -2.715716    0.243430
     21          1           0       -1.641044   -2.056583    1.839628
     22          1           0       -2.667954   -3.369784    1.229588
     23          1           0       -4.931529   -2.645864    0.344471
     24          1           0       -3.862939    1.578278   -0.964424
     25          1           0        1.809738   -1.305795   -0.823421
     26          1           0        2.117398   -1.093446    0.889421
     27          1           0        3.298483    0.573747   -1.208747
     28          1           0        3.822140   -2.603183   -0.758431
     29          1           0        4.449235   -1.627428   -2.100346
     30          1           0        5.566393   -2.406983   -0.967481
     31          1           0        5.590065    0.623402   -1.636657
     32          1           0        5.696854    1.231563    0.027528
     33          1           0        6.684823   -0.156611   -0.485554
     34          1           0        4.731565   -0.130162    1.957354
     35          1           0        4.038272   -1.737757    1.665877
     36          1           0        5.770005   -1.483137    1.451927
     37          1           0        2.006256    2.202390    0.237691
     38          1           0       -2.187944    2.402470    0.350024
 ---------------------------------------------------------------------

 The electronic state is 1-A.
 Alpha  occ. eigenvalues --  -88.92361 -19.10614 -14.39141 -14.32977 -14.31946
 Alpha  occ. eigenvalues --  -10.28976 -10.28792 -10.23769 -10.23494 -10.22487
 Alpha  occ. eigenvalues --  -10.22193 -10.21962 -10.21463 -10.21455 -10.18720
 Alpha  occ. eigenvalues --  -10.18412 -10.17507 -10.17474 -10.17327  -7.98480
 Alpha  occ. eigenvalues --   -5.94876  -5.94505  -5.94201  -1.03541  -0.98445
 Alpha  occ. eigenvalues --   -0.91503  -0.89611  -0.89548  -0.80555  -0.77958
 Alpha  occ. eigenvalues --   -0.77296  -0.74261  -0.70468  -0.68725  -0.68616
 Alpha  occ. eigenvalues --   -0.68190  -0.65145  -0.61614  -0.58606  -0.56720
 Alpha  occ. eigenvalues --   -0.55594  -0.54028  -0.51729  -0.50354  -0.48288
 Alpha  occ. eigenvalues --   -0.45971  -0.45687  -0.45075  -0.44001  -0.43287
 Alpha  occ. eigenvalues --   -0.42750  -0.42337  -0.42310  -0.41081  -0.40557
 Alpha  occ. eigenvalues --   -0.39918  -0.38724  -0.38274  -0.38091  -0.37959
 Alpha  occ. eigenvalues --   -0.37621  -0.36663  -0.35786  -0.35590  -0.34948
 Alpha  occ. eigenvalues --   -0.33506  -0.32698  -0.30366  -0.27620  -0.26437
 Alpha  occ. eigenvalues --   -0.24998  -0.24659  -0.22683  -0.22412
 Alpha virt. eigenvalues --   -0.05545  -0.01407   0.00315   0.02003   0.06937
 Alpha virt. eigenvalues --    0.07005   0.07151   0.10058   0.10832   0.11373
 Alpha virt. eigenvalues --    0.12279   0.12506   0.13080   0.13604   0.14316

 Mulliken charges:
               1
     1  C   -0.498397
     2  C    0.194459
     3  C   -0.411942
     4  S    0.282635
     5  C   -0.409175
     6  C    0.079286
     7  C    0.509928
     8  N   -0.557786
     9  C    0.276252
    10  C   -0.172617
    11  N   -0.571492
    12  C    0.219797
    13  C   -0.447289
    14  C   -0.452939
    15  C   -0.441963
    16  C   -0.255095
    17  C    0.611316
    18  O   -0.531215
    19  N   -0.686250
    20  H    0.186143
    21  H    0.164005
    22  H    0.144735
    23  H    0.176584
    24  H    0.182379
    25  H    0.144704
    26  H    0.168856
    27  H    0.293397
    28  H    0.145171
    29  H    0.134861
    30  H    0.141902
    31  H    0.133810
    32  H    0.158222
    33  H    0.143019
    34  H    0.156810
    35  H    0.139453
    36  H    0.140730
    37  H    0.167407
    38  H    0.340300
 Sum of Mulliken charges =  -0.00000

 Dipole moment (field-independent basis, Debye):
    X=             -0.7804    Y=             -3.7384    Z=             -0.6214  Tot=              3.8692
 Quadrupole moment (field-independent basis, Debye-Ang):
   XX=           -104.0088   YY=           -132.5655   ZZ=           -120.0616
   XY=             -2.7482   XZ=             -2.6999   YZ=             -5.4369

 Normal termination of Gaussian 16 at Fri Nov  4 18:25:23 2022.
