 Gaussian 16, Revision B.01,
 Gaussian 16:  ES64L-G16RevB.01 20-Dec-2017

 -------------------------------------------------------------------
 #p b3lyp/6-31g(d) 6D 10F nosymm GFInput td=(50-50,nstate=2) SCF=XQC
 -------------------------------------------------------------------

 ------------------------------
 Gaussian input prepared by ASE
 ------------------------------
 Symbolic Z-matrix:
 Charge =  0 Multiplicity = 1

                          Input orientation:
 ---------------------------------------------------------------------
 Center     Atomic      Atomic             Coordinates (Angstroms)
 Number     Number       Type             X           Y           Z
 ---------------------------------------------------------------------
      1          6           0        5.935949    0.136062   -0.260250
      2          6           0        4.654678    0.872150    0.017860
      3          7           0        3.514820    0.239803    0.005720
      4          6           0        2.371661    0.978182    0.262900
      5          6           0        1.082665    0.188845    0.233910
      6          6           0        1.064218   -0.903890    1.327590
      7          6           0       -0.195410   -1.776094    1.226970
      8          6           0       -0.370610   -2.329464   -0.194590
      9          7           0       -0.366835   -1.243996   -1.175627
     10          6           0       -1.416431   -0.797766   -1.940178
     11          8           0       -1.307532    0.185895   -2.673628
     12          6           0       -2.764852   -1.523631   -1.902222
     13          6           0       -3.912394   -0.507518   -1.691538
     14          6           0       -3.884270    0.130184   -0.319947
     15          6           0       -4.567737   -0.421705    0.768689
     16          6           0       -4.466183    0.179591    2.022432
     17          6           0       -3.673388    1.320567    2.149107
     18          7           0       -3.012039    1.874708    1.124937
     19          6           0       -3.128965    1.288143   -0.072882
     20          6           0        0.868098   -0.454716   -1.157723
     21          6           0        2.392399    2.319570    0.525773
     22          6           0        3.640142    3.052002    0.555323
     23          8           0        3.819076    4.240396    0.780496
     24          7           0        4.747052    2.207632    0.277460
     25          1           0        6.443103    0.548785   -1.140837
     26          1           0        5.709469   -0.915099   -0.441191
     27          1           0        6.626608    0.212526    0.588342
     28          1           0        0.249877    0.880191    0.413008
     29          1           0        1.126069   -0.438727    2.318786
     30          1           0        1.959814   -1.527686    1.210121
     31          1           0       -0.135359   -2.610899    1.936993
     32          1           0       -1.084232   -1.187887    1.489684
     33          1           0        0.465700   -3.003461   -0.433365
     34          1           0       -1.283987   -2.916530   -0.276096
     35          1           0       -2.891680   -2.000817   -2.882142
     36          1           0       -2.830774   -2.310044   -1.148175
     37          1           0       -4.867508   -1.025198   -1.840039
     38          1           0       -3.825314    0.259334   -2.466314
     39          1           0       -5.178910   -1.312245    0.633324
     40          1           0       -4.991729   -0.223930    2.883336
     41          1           0       -3.566426    1.815435    3.113305
     42          1           0       -2.585012    1.755309   -0.891789
     43          1           0        0.785485    0.304131   -1.934628
     44          1           0        1.717360   -1.109609   -1.388475
     45          1           0        1.484269    2.878796    0.720170
     46          1           0        5.649070    2.672679    0.281396
 ---------------------------------------------------------------------

 SCF Done:  E(RB3LYP) =  -1068.66402591     A.U. after   15 cycles

 Excitation energies and oscillator strengths:

 Excited state symmetry could not be determined.
 Excited State   1:      Triplet-?Sym    3.2357 eV  383.18 nm  f=0.0000  <S**2>=2.000
      79 -> 88         0.10018
      86 -> 88         0.46024
      87 -> 88         0.51322
 This state for optimization and/or second-order correction.
 Total Energy, E(TD-HF/TD-DFT) =  -1068.54511764
 Copying the excited state density for this state as the 1-particle RhoCI density.

 Excited state symmetry could not be determined.
 Excited State   2:      Triplet-?Sym    3.8578 eV  321.39 nm  f=0.0000  <S**2>=2.000
      80 -> 89         0.39852
      83 -> 90        -0.56393

 Excited state symmetry could not be determined.
 Excited State   3:      Singlet-?Sym    4.5537 eV  272.27 nm  f=0.0187  <S**2>=0.000
      81 -> 88         0.10426
      82 -> 88         0.28562
      85 -> 88         0.10644
      86 -> 88        -0.23026
      87 -> 88         0.57583

 Excited state symmetry could not be determined.
 Excited State   4:      Singlet-?Sym    4.6754 eV  265.19 nm  f=0.0136  <S**2>=0.000
      82 -> 88         0.57758
      82 -> 91         0.12526
      85 -> 88         0.14002
      87 -> 88        -0.33960

 Alpha  occ. eigenvalues --  -19.11000 -19.10381 -14.39620 -14.36345 -14.33277
 Alpha  occ. eigenvalues --  -14.32584 -10.29162 -10.29143 -10.28277 -10.23988
 Alpha  occ. eigenvalues --  -10.22913 -10.21862 -10.21405 -10.21177 -10.21132
 Alpha  occ. eigenvalues --  -10.20598 -10.20198 -10.19954 -10.19829 -10.19772
 Alpha  occ. eigenvalues --  -10.19555 -10.19221 -10.19074 -10.18826  -1.03919
 Alpha  occ. eigenvalues --   -1.02592  -0.98725  -0.93529  -0.93480  -0.90398
 Alpha  occ. eigenvalues --   -0.82223  -0.81830  -0.79254  -0.78199  -0.76645
 Alpha  occ. eigenvalues --   -0.74561  -0.73736  -0.68790  -0.67451  -0.64806
 Alpha  occ. eigenvalues --   -0.63611  -0.62709  -0.61829  -0.59904  -0.58218
 Alpha  occ. eigenvalues --   -0.56523  -0.53897  -0.52130  -0.51601  -0.50549
 Alpha  occ. eigenvalues --   -0.48036  -0.47719  -0.47455  -0.47168  -0.46463
 Alpha  occ. eigenvalues --   -0.45446  -0.44781  -0.44392  -0.43332  -0.42709
 Alpha  occ. eigenvalues --   -0.42367  -0.42020  -0.41170  -0.40759  -0.40549
 Alpha  occ. eigenvalues --   -0.40224  -0.39816  -0.39188  -0.38733  -0.37213
 Alpha  occ. eigenvalues --   -0.37170  -0.36132  -0.35696  -0.35530  -0.34703
 Alpha  occ. eigenvalues --   -0.33623  -0.33268  -0.32820  -0.30275  -0.28107
 Alpha  occ. eigenvalues --   -0.27915  -0.25356  -0.25200  -0.24862  -0.24413
 Alpha  occ. eigenvalues --   -0.23888  -0.22981
 Alpha virt. eigenvalues --   -0.04081  -0.02155  -0.00889   0.00297   0.02719
 Alpha virt. eigenvalues --    0.07121   0.08070   0.09722   0.10287   0.11467
 Alpha virt. eigenvalues --    0.11588   0.12081   0.12287   0.13288   0.13809

 Mulliken charges:
               1
     1  C   -0.533755
     2  C    0.527830
     3  N   -0.534486
     4  C    0.328291
     5  C   -0.174876
     6  C   -0.273602
     7  C   -0.267953
     8  C   -0.153370
     9  N   -0.431275
    10  C    0.605594
    11  O   -0.533687
    12  C   -0.346605
    13  C   -0.352294
    14  C    0.140547
    15  C   -0.155808
    16  C   -0.138510
    17  C    0.033336
    18  N   -0.414005
    19  C   -0.015461
    20  C   -0.159335
    21  C   -0.273943
    22  C    0.610703
    23  O   -0.525891
    24  N   -0.650888
    25  H    0.178649
    26  H    0.197089
    27  H    0.176643
    28  H    0.161396
    29  H    0.144348
    30  H    0.154079
    31  H    0.137624
    32  H    0.154928
    33  H    0.148332
    34  H    0.155214
    35  H    0.171555
    36  H    0.141216
    37  H    0.141622
    38  H    0.184509
    39  H    0.134134
    40  H    0.135153
    41  H    0.140371
    42  H    0.169307
    43  H    0.197618
    44  H    0.160511
    45  H    0.164107
    46  H    0.341038
 Sum of Mulliken charges =  -0.00000

 Dipole moment (field-independent basis, Debye):
    X=              1.2620    Y=             -6.6155    Z=              1.3146  Tot=              6.8619
 Quadrupole moment (field-independent basis, Debye-Ang):
   XX=           -106.2049   YY=           -158.8388   ZZ=           -143.9181
   XY=              2.1476   XZ=             -6.3209   YZ=             -2.6538

 Normal termination of Gaussian 16 at Sat Nov  5 11:32:43 2022.
