 Gaussian 16, Revision B.01,
 Gaussian 16:  ES64L-G16RevB.01 20-Dec-2017

 -----------------------------
 #p b3lyp/6-31g(d) opt SCF=XQC
 -----------------------------

 ------------------------------
 Gaussian input prepared by ASE
 ------------------------------
 Symbolic Z-matrix:
 Charge =  0 Multiplicity = 1

 SCF Done:  E(RB3LYP) =  -1068.65560433     A.U. after   15 cycles
 SCF Done:  E(RB3LYP) =  -1068.66152424     A.U. after   15 cycles
 SCF Done:  E(RB3LYP) =  -1068.66176292     A.U. after   15 cycles
 SCF Done:  E(RB3LYP) =  -1068.66358158     A.U. after   13 cycles
 SCF Done:  E(RB3LYP) =  -1068.66381954     A.U. after   12 cycles
 SCF Done:  E(RB3LYP) =  -1068.66393854     A.U. after   11 cycles
 SCF Done:  E(RB3LYP) =  -1068.66396465     A.U. after   10 cycles
 SCF Done:  E(RB3LYP) =  -1068.66397872     A.U. after   10 cycles
 SCF Done:  E(RB3LYP) =  -1068.66399116     A.U. after   10 cycles
 SCF Done:  E(RB3LYP) =  -1068.66401097     A.U. after   11 cycles
 SCF Done:  E(RB3LYP) =  -1068.66401866     A.U. after    9 cycles
 SCF Done:  E(RB3LYP) =  -1068.66402311     A.U. after    9 cycles
 SCF Done:  E(RB3LYP) =  -1068.66402450     A.U. after    9 cycles
 SCF Done:  E(RB3LYP) =  -1068.66402498     A.U. after    9 cycles
 SCF Done:  E(RB3LYP) =  -1068.66402519     A.U. after    8 cycles
 SCF Done:  E(RB3LYP) =  -1068.66402520     A.U. after    7 cycles
 SCF Done:  E(RB3LYP) =  -1068.66402520     A.U. after    6 cycles
 SCF Done:  E(RB3LYP) =  -1068.66402519     A.U. after    7 cycles
 SCF Done:  E(RB3LYP) =  -1068.66402518     A.U. after    6 cycles
 Optimization completed.
    -- Stationary point found.

                         Standard orientation:
 ---------------------------------------------------------------------
 Center     Atomic      Atomic             Coordinates (Angstroms)
 Number     Number       Type             X           Y           Z
 ---------------------------------------------------------------------
      1          6           0        5.646385   -1.492751    0.452627
      2          6           0        4.571757   -0.479905    0.169528
      3          7           0        3.319910   -0.766569    0.393111
      4          6           0        2.379625    0.208384    0.104166
      5          6           0        0.946913   -0.184460    0.384188
      6          6           0        0.723058   -0.472518    1.886671
      7          6           0       -0.701978   -0.977796    2.154047
      8          6           0       -1.044954   -2.166690    1.244845
      9          7           0       -0.833134   -1.820111   -0.160752
     10          6           0       -1.782564   -1.658890   -1.139475
     11          8           0       -1.482494   -1.281638   -2.273069
     12          6           0       -3.256720   -1.951450   -0.843103
     13          6           0       -4.140975   -0.775211   -1.320893
     14          6           0       -3.924212    0.485162   -0.512693
     15          6           0       -4.675585    0.770413    0.632256
     16          6           0       -4.399456    1.921874    1.368213
     17          6           0       -3.368425    2.755611    0.934331
     18          7           0       -2.635878    2.511878   -0.159904
     19          6           0       -2.921774    1.406037   -0.858386
     20          6           0        0.546514   -1.422262   -0.455084
     21          6           0        2.707846    1.437708   -0.395722
     22          6           0        4.087706    1.793072   -0.648504
     23          8           0        4.534650    2.845025   -1.082824
     24          7           0        4.968340    0.728134   -0.323223
     25          1           0        6.202135   -1.741495   -0.459649
     26          1           0        5.185228   -2.399290    0.845682
     27          1           0        6.365517   -1.109655    1.186828
     28          1           0        0.295832    0.646002    0.084188
     29          1           0        0.921125    0.433296    2.472286
     30          1           0        1.452507   -1.227363    2.207807
     31          1           0       -0.805082   -1.281505    3.203699
     32          1           0       -1.427758   -0.174076    1.974356
     33          1           0       -0.388630   -3.016310    1.485853
     34          1           0       -2.068451   -2.500847    1.407140
     35          1           0       -3.520381   -2.847553   -1.418878
     36          1           0       -3.470249   -2.165972    0.205593
     37          1           0       -5.191976   -1.080936   -1.255963
     38          1           0       -3.911906   -0.592232   -2.374443
     39          1           0       -5.474156    0.098216    0.941050
     40          1           0       -4.971752    2.171141    2.257329
     41          1           0       -3.120720    3.661590    1.485562
     42          1           0       -2.315914    1.227620   -1.744862
     43          1           0        0.608404   -1.212127   -1.521980
     44          1           0        1.219990   -2.254640   -0.216428
     45          1           0        1.954446    2.184587   -0.618842
     46          1           0        5.950904    0.923153   -0.485873
 ---------------------------------------------------------------------

 The electronic state is 1-A.
 Alpha  occ. eigenvalues --  -19.11000 -19.10381 -14.39620 -14.36345 -14.33277
 Alpha  occ. eigenvalues --  -14.32584 -10.29162 -10.29143 -10.28277 -10.23988
 Alpha  occ. eigenvalues --  -10.22912 -10.21862 -10.21405 -10.21177 -10.21132
 Alpha  occ. eigenvalues --  -10.20598 -10.20198 -10.19954 -10.19829 -10.19772
 Alpha  occ. eigenvalues --  -10.19555 -10.19221 -10.19074 -10.18826  -1.03919
 Alpha  occ. eigenvalues --   -1.02592  -0.98725  -0.93529  -0.93480  -0.90398
 Alpha  occ. eigenvalues --   -0.82223  -0.81830  -0.79254  -0.78199  -0.76645
 Alpha  occ. eigenvalues --   -0.74561  -0.73735  -0.68790  -0.67451  -0.64806
 Alpha  occ. eigenvalues --   -0.63611  -0.62709  -0.61829  -0.59904  -0.58218
 Alpha  occ. eigenvalues --   -0.56523  -0.53897  -0.52130  -0.51601  -0.50549
 Alpha  occ. eigenvalues --   -0.48036  -0.47719  -0.47455  -0.47168  -0.46463
 Alpha  occ. eigenvalues --   -0.45446  -0.44781  -0.44392  -0.43332  -0.42709
 Alpha  occ. eigenvalues --   -0.42367  -0.42020  -0.41170  -0.40759  -0.40549
 Alpha  occ. eigenvalues --   -0.40224  -0.39816  -0.39188  -0.38733  -0.37213
 Alpha  occ. eigenvalues --   -0.37170  -0.36132  -0.35696  -0.35530  -0.34703
 Alpha  occ. eigenvalues --   -0.33623  -0.33268  -0.32820  -0.30275  -0.28107
 Alpha  occ. eigenvalues --   -0.27915  -0.25356  -0.25200  -0.24862  -0.24413
 Alpha  occ. eigenvalues --   -0.23888  -0.22981
 Alpha virt. eigenvalues --   -0.04081  -0.02155  -0.00889   0.00297   0.02719
 Alpha virt. eigenvalues --    0.07121   0.08070   0.09722   0.10287   0.11467
 Alpha virt. eigenvalues --    0.11588   0.12081   0.12287   0.13288   0.13809

 Mulliken charges:
               1
     1  C   -0.533756
     2  C    0.527831
     3  N   -0.534494
     4  C    0.328305
     5  C   -0.174887
     6  C   -0.273610
     7  C   -0.267916
     8  C   -0.153405
     9  N   -0.431255
    10  C    0.605581
    11  O   -0.533683
    12  C   -0.346601
    13  C   -0.352282
    14  C    0.140503
    15  C   -0.155787
    16  C   -0.138513
    17  C    0.033330
    18  N   -0.413989
    19  C   -0.015456
    20  C   -0.159338
    21  C   -0.273946
    22  C    0.610701
    23  O   -0.525893
    24  N   -0.650881
    25  H    0.178649
    26  H    0.197088
    27  H    0.176643
    28  H    0.161402
    29  H    0.144347
    30  H    0.154079
    31  H    0.137619
    32  H    0.154924
    33  H    0.148336
    34  H    0.155216
    35  H    0.171553
    36  H    0.141216
    37  H    0.141622
    38  H    0.184508
    39  H    0.134134
    40  H    0.135155
    41  H    0.140371
    42  H    0.169306
    43  H    0.197619
    44  H    0.160509
    45  H    0.164105
    46  H    0.341038
 Sum of Mulliken charges =  -0.00000

 Dipole moment (field-independent basis, Debye):
    X=             -0.1998    Y=             -4.9191    Z=              4.7800  Tot=              6.8619
 Quadrupole moment (field-independent basis, Debye-Ang):
   XX=           -108.3329   YY=           -151.4470   ZZ=           -144.9213
   XY=            -11.5245   XZ=             -2.2725   YZ=              3.8495

 Normal termination of Gaussian 16 at Fri Nov  4 18:40:33 2022.
