 Gaussian 16, Revision B.01,
 Gaussian 16:  ES64L-G16RevB.01 20-Dec-2017

 -------------------------------------------------------------------
 #p b3lyp/6-31g(d) 6D 10F nosymm GFInput td=(50-50,nstate=2) SCF=XQC
 -------------------------------------------------------------------

 ------------------------------
 Gaussian input prepared by ASE
 ------------------------------
 Symbolic Z-matrix:
 Charge =  0 Multiplicity = 1

                          Input orientation:
 ---------------------------------------------------------------------
 Center     Atomic      Atomic             Coordinates (Angstroms)
 Number     Number       Type             X           Y           Z
 ---------------------------------------------------------------------
      1          6           0        5.391467   -0.264172    0.305557
      2          6           0        5.075937    0.020917   -1.164920
      3          6           0        3.817052    0.872883   -1.377470
      4          7           0        2.597985    0.218968   -0.920606
      5          7           0        2.198094   -0.918068   -1.565697
      6          6           0        1.090729   -1.260376   -0.925423
      7          6           0        0.744731   -0.378831    0.121112
      8          6           0        1.758722    0.569645    0.103194
      9          6           0        1.987201    1.757965    0.985642
     10          6           0       -0.506712   -0.611190    0.928127
     11          6           0       -1.766013    0.088188    0.333044
     12          6           0       -3.051223   -0.256942    1.141873
     13          6           0       -4.092225    0.884171    1.153577
     14          6           0       -4.180774    1.625119   -0.194849
     15          7           0       -4.656299    0.802552   -1.323050
     16          6           0       -2.799714    2.247097   -0.543883
     17          6           0       -1.618406    1.613629    0.220925
     18          6           0       -0.686829   -2.152008    0.997679
     19          6           0       -0.631548   -2.869619   -0.356102
     20          8           0       -1.336529   -3.825741   -0.638228
     21          7           0        0.326350   -2.386629   -1.226104
     22          1           0        4.572475   -0.809105    0.787723
     23          1           0        6.296053   -0.874599    0.399711
     24          1           0        5.558611    0.663926    0.867295
     25          1           0        4.946545   -0.919828   -1.711192
     26          1           0        5.915942    0.550038   -1.634437
     27          1           0        3.898734    1.823506   -0.841839
     28          1           0        3.695577    1.100558   -2.442430
     29          1           0        2.962164    1.717354    1.485618
     30          1           0        1.937502    2.703630    0.431377
     31          1           0        1.217658    1.792787    1.760954
     32          1           0       -0.379594   -0.240260    1.955390
     33          1           0       -1.882461   -0.296733   -0.692197
     34          1           0       -3.504841   -1.169273    0.738110
     35          1           0       -2.781506   -0.489699    2.181087
     36          1           0       -5.077184    0.485145    1.430603
     37          1           0       -3.831566    1.613415    1.933506
     38          1           0       -4.915859    2.433167   -0.091672
     39          1           0       -4.014222    0.027333   -1.487401
     40          1           0       -5.550900    0.375498   -1.080579
     41          1           0       -2.815757    3.325741   -0.346681
     42          1           0       -2.648130    2.135161   -1.624047
     43          1           0       -1.550829    2.041594    1.232569
     44          1           0       -0.682906    1.869255   -0.287473
     45          1           0       -1.625997   -2.443146    1.469982
     46          1           0        0.126679   -2.573082    1.605315
     47          1           0        0.471813   -2.888070   -2.093689
 ---------------------------------------------------------------------

 SCF Done:  E(RB3LYP) =  -919.601583918     A.U. after   15 cycles

 Excitation energies and oscillator strengths:

 Excited state symmetry could not be determined.
 Excited State   1:      Triplet-?Sym    3.9900 eV  310.74 nm  f=0.0000  <S**2>=2.000
      77 -> 80        -0.30082
      77 -> 81        -0.18275
      79 -> 80         0.58385
 This state for optimization and/or second-order correction.
 Total Energy, E(TD-HF/TD-DFT) =  -919.454953484
 Copying the excited state density for this state as the 1-particle RhoCI density.

 Excited state symmetry could not be determined.
 Excited State   2:      Triplet-?Sym    4.5005 eV  275.49 nm  f=0.0000  <S**2>=2.000
      77 -> 80         0.40171
      77 -> 81         0.37714
      79 -> 80         0.31085
      79 -> 81         0.28428

 Excited state symmetry could not be determined.
 Excited State   3:      Singlet-?Sym    5.2976 eV  234.04 nm  f=0.0601  <S**2>=0.000
      76 -> 80         0.47565
      76 -> 81        -0.31093
      79 -> 80         0.38295
      79 -> 81        -0.11013

 Excited state symmetry could not be determined.
 Excited State   4:      Singlet-?Sym    5.3856 eV  230.21 nm  f=0.1537  <S**2>=0.000
      76 -> 80        -0.33718
      76 -> 81         0.20276
      77 -> 80         0.17788
      77 -> 81        -0.10930
      79 -> 80         0.53705

 Alpha  occ. eigenvalues --  -19.11100 -14.40316 -14.36710 -14.33893 -14.30499
 Alpha  occ. eigenvalues --  -10.28732 -10.23885 -10.23285 -10.23070 -10.20617
 Alpha  occ. eigenvalues --  -10.20598 -10.20489 -10.19316 -10.19211 -10.19101
 Alpha  occ. eigenvalues --  -10.18232 -10.18162 -10.17949 -10.17881 -10.17717
 Alpha  occ. eigenvalues --  -10.17466  -1.04432  -1.02932  -0.93638  -0.88020
 Alpha  occ. eigenvalues --   -0.83985  -0.83633  -0.80583  -0.78122  -0.76047
 Alpha  occ. eigenvalues --   -0.73637  -0.71848  -0.71230  -0.69341  -0.64875
 Alpha  occ. eigenvalues --   -0.62636  -0.61635  -0.60391  -0.59333  -0.57048
 Alpha  occ. eigenvalues --   -0.54109  -0.53063  -0.50869  -0.49665  -0.48661
 Alpha  occ. eigenvalues --   -0.48106  -0.46754  -0.46216  -0.45606  -0.45195
 Alpha  occ. eigenvalues --   -0.44123  -0.43611  -0.43116  -0.42907  -0.41438
 Alpha  occ. eigenvalues --   -0.41037  -0.40951  -0.40230  -0.39650  -0.38729
 Alpha  occ. eigenvalues --   -0.38139  -0.37562  -0.37045  -0.36117  -0.35713
 Alpha  occ. eigenvalues --   -0.35505  -0.34970  -0.34638  -0.34499  -0.34216
 Alpha  occ. eigenvalues --   -0.31094  -0.30527  -0.29884  -0.29691  -0.28718
 Alpha  occ. eigenvalues --   -0.24610  -0.23322  -0.22550  -0.20910
 Alpha virt. eigenvalues --    0.00838   0.02237   0.06531   0.07263   0.08370
 Alpha virt. eigenvalues --    0.09545   0.09953   0.10801   0.11172   0.12007
 Alpha virt. eigenvalues --    0.12352   0.12746   0.13460   0.13697   0.14092

 Mulliken charges:
               1
     1  C   -0.452303
     2  C   -0.255411
     3  C   -0.140026
     4  N   -0.315662
     5  N   -0.411584
     6  C    0.533691
     7  C   -0.025467
     8  C    0.346206
     9  C   -0.539015
    10  C   -0.194318
    11  C   -0.063607
    12  C   -0.289303
    13  C   -0.275645
    14  C    0.031429
    15  N   -0.720565
    16  C   -0.279812
    17  C   -0.278368
    18  C   -0.377724
    19  C    0.584844
    20  O   -0.504923
    21  N   -0.694987
    22  H    0.161814
    23  H    0.151817
    24  H    0.136731
    25  H    0.171571
    26  H    0.137051
    27  H    0.150153
    28  H    0.167048
    29  H    0.170870
    30  H    0.170739
    31  H    0.175146
    32  H    0.125647
    33  H    0.124892
    34  H    0.145933
    35  H    0.133418
    36  H    0.125461
    37  H    0.127680
    38  H    0.127835
    39  H    0.298699
    40  H    0.290631
    41  H    0.132691
    42  H    0.153628
    43  H    0.120793
    44  H    0.141189
    45  H    0.174615
    46  H    0.171198
    47  H    0.335299
 Sum of Mulliken charges =  -0.00000

 Dipole moment (field-independent basis, Debye):
    X=              2.8668    Y=              3.5782    Z=              2.5221  Tot=              5.2329
 Quadrupole moment (field-independent basis, Debye-Ang):
   XX=           -120.0879   YY=           -139.5441   ZZ=           -128.5247
   XY=              2.1396   XZ=             -7.0189   YZ=              0.3509

 Normal termination of Gaussian 16 at Sat Nov  5 11:21:37 2022.
