 Gaussian 16, Revision B.01,
 Gaussian 16:  ES64L-G16RevB.01 20-Dec-2017

 -----------------------------
 #p b3lyp/6-31g(d) opt SCF=XQC
 -----------------------------

 ------------------------------
 Gaussian input prepared by ASE
 ------------------------------
 Symbolic Z-matrix:
 Charge =  0 Multiplicity = 1

 SCF Done:  E(RB3LYP) =  -919.595046703     A.U. after   15 cycles
 SCF Done:  E(RB3LYP) =  -919.600913702     A.U. after   12 cycles
 SCF Done:  E(RB3LYP) =  -919.601423749     A.U. after   11 cycles
 SCF Done:  E(RB3LYP) =  -919.601499843     A.U. after   11 cycles
 SCF Done:  E(RB3LYP) =  -919.601551116     A.U. after   10 cycles
 SCF Done:  E(RB3LYP) =  -919.601565979     A.U. after    9 cycles
 SCF Done:  E(RB3LYP) =  -919.601574560     A.U. after   10 cycles
 SCF Done:  E(RB3LYP) =  -919.601578262     A.U. after    9 cycles
 SCF Done:  E(RB3LYP) =  -919.601581334     A.U. after    9 cycles
 SCF Done:  E(RB3LYP) =  -919.601583924     A.U. after    9 cycles
 SCF Done:  E(RB3LYP) =  -919.601584421     A.U. after    8 cycles
 SCF Done:  E(RB3LYP) =  -919.601584798     A.U. after    7 cycles
 SCF Done:  E(RB3LYP) =  -919.601584953     A.U. after    7 cycles
 SCF Done:  E(RB3LYP) =  -919.601585030     A.U. after    7 cycles
 SCF Done:  E(RB3LYP) =  -919.601585053     A.U. after    6 cycles
 Optimization completed.
    -- Stationary point found.

                         Standard orientation:
 ---------------------------------------------------------------------
 Center     Atomic      Atomic             Coordinates (Angstroms)
 Number     Number       Type             X           Y           Z
 ---------------------------------------------------------------------
      1          6           0       -5.343330   -0.411865    0.921150
      2          6           0       -5.139143   -0.533522   -0.591015
      3          6           0       -3.839294   -1.246626   -0.988121
      4          7           0       -2.641396   -0.530131   -0.570833
      5          7           0       -2.395053    0.691763   -1.132255
      6          6           0       -1.266166    1.072608   -0.554368
      7          6           0       -0.756834    0.134654    0.369155
      8          6           0       -1.687714   -0.895303    0.341661
      9          6           0       -1.738393   -2.174159    1.119465
     10          6           0        0.539014    0.404280    1.089886
     11          6           0        1.792452   -0.122876    0.328249
     12          6           0        3.112798    0.261466    1.059038
     13          6           0        4.240084   -0.778210    0.873928
     14          6           0        4.267060   -1.383375   -0.543162
     15          7           0        4.570643   -0.422972   -1.620678
     16          6           0        2.915461   -2.092442   -0.837122
     17          6           0        1.760068   -1.639012    0.080032
     18          6           0        0.598589    1.942426    1.294726
     19          6           0        0.363548    2.771572    0.026651
     20          8           0        0.960098    3.808549   -0.217417
     21          7           0       -0.626179    2.285330   -0.805072
     22          1           0       -4.531401    0.158418    1.385622
     23          1           0       -6.282474    0.104087    1.148223
     24          1           0       -5.383154   -1.398145    1.401274
     25          1           0       -5.136432    0.460525   -1.051474
     26          1           0       -5.972079   -1.091146   -1.039676
     27          1           0       -3.794801   -2.245234   -0.543085
     28          1           0       -3.795941   -1.365351   -2.076585
     29          1           0       -2.664503   -2.266363    1.699116
     30          1           0       -1.661898   -3.057612    0.473227
     31          1           0       -0.901980   -2.209834    1.822074
     32          1           0        0.535413   -0.067835    2.082918
     33          1           0        1.784506    0.361978   -0.660537
     34          1           0        3.452470    1.243488    0.710616
     35          1           0        2.919569    0.374283    2.134595
     36          1           0        5.210187   -0.319250    1.107091
     37          1           0        4.110863   -1.595340    1.597551
     38          1           0        5.071791   -2.128352   -0.579957
     39          1           0        3.855404    0.303298   -1.655377
     40          1           0        5.445666    0.058818   -1.411654
     41          1           0        3.036950   -3.178703   -0.748265
     42          1           0        2.658752   -1.897396   -1.885128
     43          1           0        1.818807   -2.160955    1.047125
     44          1           0        0.806576   -1.930403   -0.372647
     45          1           0        1.549584    2.272629    1.714775
     46          1           0       -0.188559    2.232325    2.005133
     47          1           0       -0.889413    2.848057   -1.604666
 ---------------------------------------------------------------------

 The electronic state is 1-A.
 Alpha  occ. eigenvalues --  -19.11100 -14.40316 -14.36710 -14.33893 -14.30499
 Alpha  occ. eigenvalues --  -10.28732 -10.23885 -10.23285 -10.23070 -10.20617
 Alpha  occ. eigenvalues --  -10.20598 -10.20489 -10.19316 -10.19211 -10.19101
 Alpha  occ. eigenvalues --  -10.18232 -10.18162 -10.17949 -10.17881 -10.17717
 Alpha  occ. eigenvalues --  -10.17466  -1.04432  -1.02932  -0.93638  -0.88020
 Alpha  occ. eigenvalues --   -0.83985  -0.83633  -0.80583  -0.78122  -0.76047
 Alpha  occ. eigenvalues --   -0.73637  -0.71848  -0.71230  -0.69341  -0.64875
 Alpha  occ. eigenvalues --   -0.62636  -0.61635  -0.60391  -0.59333  -0.57048
 Alpha  occ. eigenvalues --   -0.54109  -0.53063  -0.50869  -0.49665  -0.48661
 Alpha  occ. eigenvalues --   -0.48106  -0.46754  -0.46216  -0.45606  -0.45195
 Alpha  occ. eigenvalues --   -0.44123  -0.43611  -0.43116  -0.42907  -0.41438
 Alpha  occ. eigenvalues --   -0.41037  -0.40951  -0.40230  -0.39650  -0.38729
 Alpha  occ. eigenvalues --   -0.38139  -0.37562  -0.37045  -0.36117  -0.35713
 Alpha  occ. eigenvalues --   -0.35505  -0.34970  -0.34638  -0.34499  -0.34216
 Alpha  occ. eigenvalues --   -0.31094  -0.30528  -0.29884  -0.29691  -0.28718
 Alpha  occ. eigenvalues --   -0.24610  -0.23322  -0.22550  -0.20910
 Alpha virt. eigenvalues --    0.00838   0.02237   0.06531   0.07263   0.08370
 Alpha virt. eigenvalues --    0.09545   0.09952   0.10801   0.11172   0.12007
 Alpha virt. eigenvalues --    0.12352   0.12746   0.13460   0.13697   0.14092

 Mulliken charges:
               1
     1  C   -0.452299
     2  C   -0.255417
     3  C   -0.140011
     4  N   -0.315661
     5  N   -0.411599
     6  C    0.533699
     7  C   -0.025492
     8  C    0.346200
     9  C   -0.539016
    10  C   -0.194278
    11  C   -0.063605
    12  C   -0.289307
    13  C   -0.275653
    14  C    0.031448
    15  N   -0.720566
    16  C   -0.279830
    17  C   -0.278369
    18  C   -0.377745
    19  C    0.584856
    20  O   -0.504925
    21  N   -0.694982
    22  H    0.161812
    23  H    0.151816
    24  H    0.136731
    25  H    0.171571
    26  H    0.137051
    27  H    0.150150
    28  H    0.167045
    29  H    0.170872
    30  H    0.170740
    31  H    0.175149
    32  H    0.125645
    33  H    0.124892
    34  H    0.145934
    35  H    0.133418
    36  H    0.125461
    37  H    0.127682
    38  H    0.127833
    39  H    0.298698
    40  H    0.290630
    41  H    0.132694
    42  H    0.153632
    43  H    0.120794
    44  H    0.141188
    45  H    0.174614
    46  H    0.171199
    47  H    0.335300
 Sum of Mulliken charges =  -0.00000

 Dipole moment (field-independent basis, Debye):
    X=             -2.3274    Y=             -4.0337    Z=              2.3864  Tot=              5.2328
 Quadrupole moment (field-independent basis, Debye-Ang):
   XX=           -119.3841   YY=           -137.6498   ZZ=           -129.0941
   XY=              3.4950   XZ=              6.1621   YZ=             -1.9513

 Normal termination of Gaussian 16 at Fri Nov  4 18:33:19 2022.
