 Gaussian 16, Revision B.01,
 Gaussian 16:  ES64L-G16RevB.01 20-Dec-2017

 -----------------------------
 #p b3lyp/6-31g(d) opt SCF=XQC
 -----------------------------

 ------------------------------
 Gaussian input prepared by ASE
 ------------------------------
 Symbolic Z-matrix:
 Charge =  0 Multiplicity = 1

 SCF Done:  E(RB3LYP) =  -1604.75521056     A.U. after   15 cycles
 SCF Done:  E(RB3LYP) =  -1604.76290167     A.U. after   13 cycles
 SCF Done:  E(RB3LYP) =  -1604.76284548     A.U. after   12 cycles
 SCF Done:  E(RB3LYP) =  -1604.76383559     A.U. after   12 cycles
 SCF Done:  E(RB3LYP) =  -1604.76393651     A.U. after   10 cycles
 SCF Done:  E(RB3LYP) =  -1604.76396933     A.U. after   10 cycles
 SCF Done:  E(RB3LYP) =  -1604.76398963     A.U. after   10 cycles
 SCF Done:  E(RB3LYP) =  -1604.76400524     A.U. after   11 cycles
 SCF Done:  E(RB3LYP) =  -1604.76401318     A.U. after   10 cycles
 SCF Done:  E(RB3LYP) =  -1604.76402020     A.U. after   11 cycles
 SCF Done:  E(RB3LYP) =  -1604.76468122     A.U. after   11 cycles
 SCF Done:  E(RB3LYP) =  -1604.76470240     A.U. after   11 cycles
 SCF Done:  E(RB3LYP) =  -1604.76470751     A.U. after   10 cycles
 SCF Done:  E(RB3LYP) =  -1604.76471578     A.U. after   10 cycles
 SCF Done:  E(RB3LYP) =  -1604.76471685     A.U. after    9 cycles
 SCF Done:  E(RB3LYP) =  -1604.76471899     A.U. after   10 cycles
 SCF Done:  E(RB3LYP) =  -1604.76471948     A.U. after    8 cycles
 SCF Done:  E(RB3LYP) =  -1604.76471982     A.U. after    8 cycles
 SCF Done:  E(RB3LYP) =  -1604.76471998     A.U. after    7 cycles
 SCF Done:  E(RB3LYP) =  -1604.76472008     A.U. after    7 cycles
 Optimization completed.
    -- Stationary point found.

                         Standard orientation:
 ---------------------------------------------------------------------
 Center     Atomic      Atomic             Coordinates (Angstroms)
 Number     Number       Type             X           Y           Z
 ---------------------------------------------------------------------
      1          6           0        0.566174    2.903271   -0.085882
      2          7           0        0.331938    1.462099   -0.032583
      3          6           0       -0.853637    0.861094    0.319623
      4          7           0       -2.045674    1.401776    0.692912
      5          6           0       -2.885012    0.430070    0.940197
      6          6           0       -4.314481    0.663260    1.359416
      7          7           0       -5.276264    0.395593    0.306139
      8          6           0       -5.689873    1.248527   -0.721442
      9          6           0       -6.544322    0.555436   -1.505925
     10          7           0       -6.649997   -0.729218   -0.969112
     11          6           0       -5.847004   -0.867706    0.151525
     12          8           0       -5.657724   -1.854723    0.854778
     13         16           0       -2.259008   -1.225417    0.724216
     14          6           0       -0.735502   -0.527072    0.263270
     15          6           0        0.592549   -0.811580   -0.148236
     16          6           0        1.366711   -1.976585   -0.402207
     17          7           0        2.612932   -1.921688   -0.786801
     18          7           0        3.180393   -0.697485   -0.944234
     19          6           0        4.589649   -0.721273   -1.394310
     20          6           0        5.584760   -0.445820   -0.308740
     21          6           0        6.523181   -1.256258    0.309882
     22          6           0        7.175416   -0.407824    1.231094
     23          7           0        6.685744    0.833479    1.199580
     24          7           0        5.732170    0.786362    0.250676
     25          6           0        2.591226    0.550761   -0.725752
     26          8           0        3.239203    1.601186   -0.883648
     27          6           0        1.214679    0.444023   -0.320356
     28          1           0       -0.096596    3.360618   -0.826689
     29          1           0        0.361677    3.345919    0.893140
     30          1           0        1.606298    3.063348   -0.363793
     31          1           0       -4.578364    0.010478    2.196465
     32          1           0       -4.402715    1.705537    1.676737
     33          1           0       -5.346283    2.268951   -0.787224
     34          1           0       -7.090980    0.859387   -2.384272
     35          1           0       -7.181062   -1.500297   -1.341932
     36          1           0        0.956461   -2.975917   -0.292571
     37          1           0        4.748860   -1.720221   -1.798304
     38          1           0        4.682835    0.012457   -2.200409
     39          1           0        6.706238   -2.303650    0.116189
     40          1           0        7.979732   -0.647006    1.914685
     41          1           0        5.140420    1.585005    0.052483
 ---------------------------------------------------------------------

 The electronic state is 1-A.
 Alpha  occ. eigenvalues --  -88.93021 -19.12851 -19.11135 -14.42373 -14.41552
 Alpha  occ. eigenvalues --  -14.39243 -14.38865 -14.38744 -14.38336 -14.36310
 Alpha  occ. eigenvalues --  -14.33339 -10.31280 -10.30794 -10.27884 -10.26614
 Alpha  occ. eigenvalues --  -10.25762 -10.25030 -10.24100 -10.24000 -10.23548
 Alpha  occ. eigenvalues --  -10.23436 -10.23292 -10.23198 -10.22688 -10.21644
 Alpha  occ. eigenvalues --  -10.18917 -10.17065  -7.99008  -5.95432  -5.95075
 Alpha  occ. eigenvalues --   -5.94669  -1.06592  -1.06123  -1.02887  -1.02637
 Alpha  occ. eigenvalues --   -1.01337  -0.98617  -0.97119  -0.92475  -0.87308
 Alpha  occ. eigenvalues --   -0.84534  -0.80744  -0.79969  -0.79406  -0.77464
 Alpha  occ. eigenvalues --   -0.76229  -0.73936  -0.72395  -0.70243  -0.67100
 Alpha  occ. eigenvalues --   -0.64783  -0.63852  -0.61009  -0.59915  -0.58927
 Alpha  occ. eigenvalues --   -0.58208  -0.57469  -0.54731  -0.53843  -0.52980
 Alpha  occ. eigenvalues --   -0.51637  -0.50624  -0.50075  -0.49691  -0.49095
 Alpha  occ. eigenvalues --   -0.47631  -0.46952  -0.46521  -0.45223  -0.45132
 Alpha  occ. eigenvalues --   -0.44635  -0.43855  -0.43320  -0.42848  -0.42465
 Alpha  occ. eigenvalues --   -0.42238  -0.41907  -0.41423  -0.40916  -0.40465
 Alpha  occ. eigenvalues --   -0.39194  -0.38188  -0.37527  -0.37293  -0.35974
 Alpha  occ. eigenvalues --   -0.33695  -0.32017  -0.31843  -0.31267  -0.29943
 Alpha  occ. eigenvalues --   -0.27552  -0.27191  -0.26988  -0.26635  -0.24263
 Alpha  occ. eigenvalues --   -0.23796  -0.23275  -0.22679  -0.20788
 Alpha virt. eigenvalues --   -0.06008  -0.03503   0.00450   0.00771   0.02535
 Alpha virt. eigenvalues --    0.02635   0.05954   0.06178   0.06824   0.07395
 Alpha virt. eigenvalues --    0.08141   0.10354   0.11283   0.11361   0.11726

 Mulliken charges:
               1
     1  C   -0.346104
     2  N   -0.581940
     3  C    0.505512
     4  N   -0.484514
     5  C    0.118310
     6  C   -0.230022
     7  N   -0.453614
     8  C    0.017200
     9  C    0.025085
    10  N   -0.649709
    11  C    0.770160
    12  O   -0.553978
    13  S    0.282840
    14  C   -0.230365
    15  C    0.062122
    16  C   -0.015747
    17  N   -0.261678
    18  N   -0.319890
    19  C   -0.225155
    20  C    0.373778
    21  C   -0.266768
    22  C    0.035126
    23  N   -0.267864
    24  N   -0.461432
    25  C    0.621566
    26  O   -0.599382
    27  C    0.281633
    28  H    0.177623
    29  H    0.181427
    30  H    0.224718
    31  H    0.208634
    32  H    0.191268
    33  H    0.171625
    34  H    0.169182
    35  H    0.344647
    36  H    0.167896
    37  H    0.189516
    38  H    0.190501
    39  H    0.131541
    40  H    0.136519
    41  H    0.369732
 Sum of Mulliken charges =  -0.00000

 Dipole moment (field-independent basis, Debye):
    X=             -6.0085    Y=              1.4158    Z=             -3.2750  Tot=              6.9880
 Quadrupole moment (field-independent basis, Debye-Ang):
   XX=           -163.7554   YY=           -157.1049   ZZ=           -155.9840
   XY=            -21.9197   XZ=              8.0545   YZ=              3.3214

 Normal termination of Gaussian 16 at Fri Nov  4 18:54:20 2022.
