 Gaussian 16, Revision B.01,
 Gaussian 16:  ES64L-G16RevB.01 20-Dec-2017

 -------------------------------------------------------------------
 #p b3lyp/6-31g(d) 6D 10F nosymm GFInput td=(50-50,nstate=2) SCF=XQC
 -------------------------------------------------------------------

 ------------------------------
 Gaussian input prepared by ASE
 ------------------------------
 Symbolic Z-matrix:
 Charge =  0 Multiplicity = 1

                          Input orientation:
 ---------------------------------------------------------------------
 Center     Atomic      Atomic             Coordinates (Angstroms)
 Number     Number       Type             X           Y           Z
 ---------------------------------------------------------------------
      1          6           0        0.314072   -1.594440    2.181088
      2          7           0        0.127389   -0.771477    0.988375
      3          6           0       -1.033987   -0.681162    0.257694
      4          7           0       -2.238667   -1.291481    0.427664
      5          6           0       -3.043153   -0.898728   -0.525435
      6          6           0       -4.474619   -1.359175   -0.636787
      7          7           0       -5.439029   -0.345457   -0.251621
      8          6           0       -5.891699   -0.029217    1.032736
      9          6           0       -6.731986    1.022965    0.920036
     10          7           0       -6.789810    1.363684   -0.432828
     11          6           0       -5.970142    0.540954   -1.188515
     12          8           0       -5.740974    0.567057   -2.393253
     13         16           0       -2.366183    0.259250   -1.700153
     14          6           0       -0.871466    0.194180   -0.815385
     15          6           0        0.460395    0.680245   -0.753039
     16          6           0        1.269074    1.573322   -1.507701
     17          7           0        2.508433    1.835402   -1.192588
     18          7           0        3.034016    1.222303   -0.100187
     19          6           0        4.438130    1.582246    0.196532
     20          6           0        5.435961    0.537659   -0.200654
     21          6           0        6.407135    0.517955   -1.188868
     22          6           0        7.041825   -0.734644   -1.040394
     23          7           0        6.511767   -1.447793   -0.044371
     24          7           0        5.549575   -0.649833    0.455017
     25          6           0        2.407118    0.305858    0.748398
     26          8           0        3.018809   -0.203625    1.704672
     27          6           0        1.039429    0.059530    0.375076
     28          1           0       -0.371524   -1.268289    2.969001
     29          1           0        0.106371   -2.641352    1.942184
     30          1           0        1.345244   -1.478633    2.509708
     31          1           0       -4.707692   -1.635674   -1.669082
     32          1           0       -4.593074   -2.236617    0.004215
     33          1           0       -5.582201   -0.591314    1.899860
     34          1           0       -7.298110    1.549914    1.671397
     35          1           0       -7.299723    2.129584   -0.843892
     36          1           0        0.892766    2.088366   -2.386400
     37          1           0        4.625135    2.502396   -0.355564
     38          1           0        4.498328    1.787257    1.269464
     39          1           0        6.621919    1.298482   -1.904901
     40          1           0        7.861152   -1.147128   -1.614840
     41          1           0        4.929995   -0.963321    1.193344
 ---------------------------------------------------------------------

 SCF Done:  E(RB3LYP) =  -1604.76471657     A.U. after   15 cycles

 Excitation energies and oscillator strengths:

 Excited state symmetry could not be determined.
 Excited State   1:      Triplet-?Sym    2.9510 eV  420.14 nm  f=0.0000  <S**2>=2.000
      96 ->100         0.41482
      97 ->100         0.23843
      97 ->101        -0.11440
      98 ->100         0.35310
      98 ->101        -0.29534
      99 ->100        -0.12953
 This state for optimization and/or second-order correction.
 Total Energy, E(TD-HF/TD-DFT) =  -1604.65626944
 Copying the excited state density for this state as the 1-particle RhoCI density.

 Excited state symmetry could not be determined.
 Excited State   2:      Triplet-?Sym    3.1776 eV  390.18 nm  f=0.0000  <S**2>=2.000
      96 ->100         0.43876
      98 ->100        -0.40816
      98 ->101         0.19595
      99 ->100        -0.24257

 Excited state symmetry could not be determined.
 Excited State   3:      Singlet-?Sym    3.4227 eV  362.24 nm  f=0.0237  <S**2>=0.000
      99 ->100         0.69900

 Excited state symmetry could not be determined.
 Excited State   4:      Singlet-?Sym    4.0509 eV  306.07 nm  f=0.0417  <S**2>=0.000
      96 ->100        -0.11498
      97 ->101         0.10636
      98 ->100         0.66725

 Alpha  occ. eigenvalues --  -88.93022 -19.12851 -19.11135 -14.42373 -14.41552
 Alpha  occ. eigenvalues --  -14.39243 -14.38865 -14.38744 -14.38336 -14.36310
 Alpha  occ. eigenvalues --  -14.33339 -10.31280 -10.30794 -10.27884 -10.26614
 Alpha  occ. eigenvalues --  -10.25762 -10.25030 -10.24100 -10.24000 -10.23548
 Alpha  occ. eigenvalues --  -10.23436 -10.23292 -10.23198 -10.22687 -10.21644
 Alpha  occ. eigenvalues --  -10.18917 -10.17065  -7.99008  -5.95432  -5.95075
 Alpha  occ. eigenvalues --   -5.94669  -1.06592  -1.06123  -1.02887  -1.02637
 Alpha  occ. eigenvalues --   -1.01337  -0.98617  -0.97119  -0.92475  -0.87308
 Alpha  occ. eigenvalues --   -0.84534  -0.80744  -0.79970  -0.79406  -0.77464
 Alpha  occ. eigenvalues --   -0.76229  -0.73936  -0.72395  -0.70243  -0.67100
 Alpha  occ. eigenvalues --   -0.64783  -0.63852  -0.61009  -0.59915  -0.58927
 Alpha  occ. eigenvalues --   -0.58208  -0.57469  -0.54731  -0.53843  -0.52980
 Alpha  occ. eigenvalues --   -0.51637  -0.50624  -0.50075  -0.49691  -0.49095
 Alpha  occ. eigenvalues --   -0.47631  -0.46952  -0.46521  -0.45223  -0.45132
 Alpha  occ. eigenvalues --   -0.44635  -0.43855  -0.43320  -0.42848  -0.42465
 Alpha  occ. eigenvalues --   -0.42238  -0.41907  -0.41423  -0.40916  -0.40465
 Alpha  occ. eigenvalues --   -0.39194  -0.38188  -0.37527  -0.37293  -0.35974
 Alpha  occ. eigenvalues --   -0.33695  -0.32017  -0.31843  -0.31267  -0.29943
 Alpha  occ. eigenvalues --   -0.27552  -0.27191  -0.26988  -0.26635  -0.24263
 Alpha  occ. eigenvalues --   -0.23796  -0.23275  -0.22679  -0.20788
 Alpha virt. eigenvalues --   -0.06009  -0.03503   0.00450   0.00771   0.02535
 Alpha virt. eigenvalues --    0.02635   0.05954   0.06178   0.06824   0.07395
 Alpha virt. eigenvalues --    0.08141   0.10354   0.11283   0.11361   0.11726

 Mulliken charges:
               1
     1  C   -0.346111
     2  N   -0.581928
     3  C    0.505503
     4  N   -0.484506
     5  C    0.118311
     6  C   -0.230036
     7  N   -0.453614
     8  C    0.017203
     9  C    0.025083
    10  N   -0.649708
    11  C    0.770180
    12  O   -0.553991
    13  S    0.282829
    14  C   -0.230357
    15  C    0.062122
    16  C   -0.015748
    17  N   -0.261681
    18  N   -0.319899
    19  C   -0.225172
    20  C    0.373796
    21  C   -0.266760
    22  C    0.035122
    23  N   -0.267865
    24  N   -0.461440
    25  C    0.621570
    26  O   -0.599382
    27  C    0.281642
    28  H    0.177624
    29  H    0.181429
    30  H    0.224720
    31  H    0.208636
    32  H    0.191271
    33  H    0.171624
    34  H    0.169182
    35  H    0.344648
    36  H    0.167895
    37  H    0.189517
    38  H    0.190503
    39  H    0.131540
    40  H    0.136519
    41  H    0.369731
 Sum of Mulliken charges =  -0.00000

 Dipole moment (field-independent basis, Debye):
    X=             -6.0879    Y=              1.8369    Z=              2.8975  Tot=              6.9880
 Quadrupole moment (field-independent basis, Debye-Ang):
   XX=           -160.2403   YY=           -153.0405   ZZ=           -162.5869
   XY=              6.0060   XZ=            -21.6175   YZ=             -0.0972

 Normal termination of Gaussian 16 at Sat Nov  5 11:19:07 2022.
