 Gaussian 16, Revision B.01,
 Gaussian 16:  ES64L-G16RevB.01 20-Dec-2017

 -----------------------------
 #p b3lyp/6-31g(d) opt SCF=XQC
 -----------------------------

 ------------------------------
 Gaussian input prepared by ASE
 ------------------------------
 Symbolic Z-matrix:
 Charge =  0 Multiplicity = 1

 SCF Done:  E(RB3LYP) =  -1900.28108003     A.U. after   15 cycles
 SCF Done:  E(RB3LYP) =  -1900.28924336     A.U. after   12 cycles
 SCF Done:  E(RB3LYP) =  -1900.29036549     A.U. after   11 cycles
 SCF Done:  E(RB3LYP) =  -1900.29060807     A.U. after   11 cycles
 SCF Done:  E(RB3LYP) =  -1900.29061674     A.U. after   11 cycles
 SCF Done:  E(RB3LYP) =  -1900.29077550     A.U. after   11 cycles
 SCF Done:  E(RB3LYP) =  -1900.29080254     A.U. after   10 cycles
 SCF Done:  E(RB3LYP) =  -1900.29080941     A.U. after    9 cycles
 SCF Done:  E(RB3LYP) =  -1900.29081265     A.U. after    9 cycles
 SCF Done:  E(RB3LYP) =  -1900.29081479     A.U. after    9 cycles
 SCF Done:  E(RB3LYP) =  -1900.29081778     A.U. after    9 cycles
 SCF Done:  E(RB3LYP) =  -1900.29081818     A.U. after    8 cycles
 SCF Done:  E(RB3LYP) =  -1900.29081849     A.U. after    8 cycles
 SCF Done:  E(RB3LYP) =  -1900.29081868     A.U. after    7 cycles
 SCF Done:  E(RB3LYP) =  -1900.29081894     A.U. after    8 cycles
 SCF Done:  E(RB3LYP) =  -1900.29081928     A.U. after    9 cycles
 SCF Done:  E(RB3LYP) =  -1900.29081962     A.U. after    9 cycles
 SCF Done:  E(RB3LYP) =  -1900.29081995     A.U. after    9 cycles
 SCF Done:  E(RB3LYP) =  -1900.29082015     A.U. after    8 cycles
 SCF Done:  E(RB3LYP) =  -1900.29082022     A.U. after    7 cycles
 Optimization completed.
    -- Stationary point found.

                         Standard orientation:
 ---------------------------------------------------------------------
 Center     Atomic      Atomic             Coordinates (Angstroms)
 Number     Number       Type             X           Y           Z
 ---------------------------------------------------------------------
      1          8           0        4.775613    0.045805    1.963294
      2          6           0        4.907091   -0.413769    0.837503
      3          6           0        5.867191   -1.554971    0.557436
      4          6           0        6.325475   -2.389987    1.767097
      5          6           0        5.410996   -2.960726    0.762570
      6          9           0        5.843965   -3.916478   -0.093431
      7          9           0        4.108735   -3.187695    1.070196
      8          7           0        4.213895    0.082748   -0.244731
      9          6           0        4.031009   -0.654743   -1.492786
     10          6           0        2.648976   -1.320888   -1.527319
     11          7           0        1.626441   -0.342408   -1.160955
     12          6           0        0.319081   -0.716808   -1.002442
     13          6           0       -0.099872   -2.060968   -1.183546
     14          6           0       -1.443410   -2.316849   -0.990891
     15          7           0       -2.344305   -1.380662   -0.655111
     16          6           0       -1.852666   -0.135795   -0.510744
     17          6           0       -2.769984    0.935665   -0.151202
     18          6           0       -2.511763    2.290108    0.042025
     19          7           0       -3.616120    2.996893    0.369877
     20          6           0       -4.606119    2.102090    0.392644
     21          6           0       -5.977297    2.278241    0.676082
     22          6           0       -6.822530    1.198494    0.639144
     23          6           0       -6.309794   -0.089976    0.315340
     24          6           0       -7.248455   -1.259622    0.278957
     25          9           0       -8.238963   -1.068633   -0.624174
     26          9           0       -6.625327   -2.412500   -0.041553
     27          9           0       -7.853240   -1.443786    1.476048
     28          6           0       -4.981171   -0.272687    0.038755
     29          7           0       -4.140696    0.809558    0.077184
     30          7           0       -0.570840    0.232322   -0.670397
     31          6           0        2.065240    1.039730   -0.998385
     32          6           0        3.217809    1.146790    0.026334
     33          6           0        3.825381    2.525056    0.007842
     34          6           0        3.254105    3.724311    0.506069
     35          7           0        4.035094    4.782074    0.297184
     36          7           0        5.109519    4.271853   -0.338466
     37          6           0        5.032022    2.929891   -0.534223
     38          1           0        6.590433   -1.405593   -0.240774
     39          1           0        7.352479   -2.740661    1.781338
     40          1           0        5.903397   -2.079565    2.718143
     41          1           0        4.153257    0.028600   -2.340471
     42          1           0        4.795794   -1.424674   -1.589863
     43          1           0        2.645592   -2.153315   -0.812865
     44          1           0        2.464583   -1.734705   -2.530870
     45          1           0        0.580555   -2.856395   -1.457030
     46          1           0       -1.829527   -3.327649   -1.111976
     47          1           0       -1.543704    2.762204   -0.052851
     48          1           0       -6.320370    3.277656    0.917324
     49          1           0       -7.879609    1.313873    0.854091
     50          1           0       -4.520289   -1.216231   -0.214743
     51          1           0        2.377877    1.460840   -1.963534
     52          1           0        1.215288    1.623423   -0.650456
     53          1           0        2.813065    0.948508    1.023873
     54          1           0        2.307968    3.853280    1.016564
     55          1           0        5.867477    4.890456   -0.584742
     56          1           0        5.825482    2.373186   -1.010932
 ---------------------------------------------------------------------

 The electronic state is 1-A.
 Alpha  occ. eigenvalues --  -24.72823 -24.72690 -24.72597 -24.71942 -24.71939
 Alpha  occ. eigenvalues --  -19.13032 -14.42401 -14.41474 -14.38259 -14.37918
 Alpha  occ. eigenvalues --  -14.35226 -14.33149 -14.32993 -14.31809 -10.43374
 Alpha  occ. eigenvalues --  -10.37058 -10.30654 -10.28178 -10.27240 -10.25885
 Alpha  occ. eigenvalues --  -10.25527 -10.24812 -10.24757 -10.24572 -10.23901
 Alpha  occ. eigenvalues --  -10.23456 -10.23054 -10.22996 -10.22494 -10.22110
 Alpha  occ. eigenvalues --  -10.21922 -10.21580 -10.21569 -10.21102 -10.20643
 Alpha  occ. eigenvalues --  -10.20082 -10.19391  -1.29959  -1.26761  -1.21496
 Alpha  occ. eigenvalues --   -1.21227  -1.20857  -1.05239  -1.04783  -1.03866
 Alpha  occ. eigenvalues --   -1.00398  -0.97279  -0.94261  -0.91496  -0.89674
 Alpha  occ. eigenvalues --   -0.87996  -0.85141  -0.82488  -0.81656  -0.80607
 Alpha  occ. eigenvalues --   -0.78458  -0.77656  -0.75291  -0.74273  -0.70556
 Alpha  occ. eigenvalues --   -0.69980  -0.68401  -0.66593  -0.65859  -0.64469
 Alpha  occ. eigenvalues --   -0.64369  -0.62926  -0.61352  -0.60920  -0.60497
 Alpha  occ. eigenvalues --   -0.59456  -0.58045  -0.57949  -0.57731  -0.56941
 Alpha  occ. eigenvalues --   -0.56056  -0.55282  -0.55101  -0.53776  -0.53075
 Alpha  occ. eigenvalues --   -0.52348  -0.51656  -0.51125  -0.50144  -0.49538
 Alpha  occ. eigenvalues --   -0.47695  -0.47474  -0.47177  -0.47059  -0.46141
 Alpha  occ. eigenvalues --   -0.45848  -0.45512  -0.45424  -0.45323  -0.45008
 Alpha  occ. eigenvalues --   -0.44606  -0.44400  -0.44188  -0.44073  -0.43444
 Alpha  occ. eigenvalues --   -0.42770  -0.42149  -0.42077  -0.41731  -0.41671
 Alpha  occ. eigenvalues --   -0.41123  -0.40983  -0.40635  -0.40405  -0.40395
 Alpha  occ. eigenvalues --   -0.39717  -0.39549  -0.38599  -0.38413  -0.37544
 Alpha  occ. eigenvalues --   -0.37374  -0.35096  -0.34066  -0.33776  -0.32727
 Alpha  occ. eigenvalues --   -0.30675  -0.30576  -0.30059  -0.29465  -0.27578
 Alpha  occ. eigenvalues --   -0.26760  -0.26153  -0.26009  -0.25610  -0.25241
 Alpha  occ. eigenvalues --   -0.24783  -0.23078  -0.21093
 Alpha virt. eigenvalues --   -0.04969  -0.03723  -0.02292  -0.00160   0.00790
 Alpha virt. eigenvalues --    0.01446   0.05615   0.06322   0.07027   0.07283
 Alpha virt. eigenvalues --    0.08148   0.08964   0.09655   0.10147   0.10598

 Mulliken charges:
               1
     1  O   -0.493346
     2  C    0.606762
     3  C   -0.320259
     4  C   -0.378564
     5  C    0.614361
     6  F   -0.275840
     7  F   -0.266858
     8  N   -0.452483
     9  C   -0.197950
    10  C   -0.117581
    11  N   -0.504286
    12  C    0.584186
    13  C   -0.222985
    14  C    0.067320
    15  N   -0.523294
    16  C    0.482941
    17  C    0.267486
    18  C   -0.035401
    19  N   -0.507127
    20  C    0.528971
    21  C   -0.185864
    22  C   -0.131431
    23  C   -0.079189
    24  C    0.790679
    25  F   -0.267352
    26  F   -0.268165
    27  F   -0.266972
    28  C    0.051003
    29  N   -0.595205
    30  N   -0.597563
    31  C   -0.172911
    32  C   -0.045785
    33  C    0.062851
    34  C    0.013491
    35  N   -0.273499
    36  N   -0.403062
    37  C    0.039460
    38  H    0.185918
    39  H    0.181180
    40  H    0.213211
    41  H    0.168792
    42  H    0.180152
    43  H    0.173991
    44  H    0.152750
    45  H    0.143989
    46  H    0.148706
    47  H    0.159364
    48  H    0.166018
    49  H    0.162350
    50  H    0.233193
    51  H    0.152165
    52  H    0.213320
    53  H    0.189618
    54  H    0.147578
    55  H    0.347771
    56  H    0.153397
 Sum of Mulliken charges =  -0.00000

 Dipole moment (field-independent basis, Debye):
    X=              6.7425    Y=             -2.1362    Z=             -4.1863  Tot=              8.2189
 Quadrupole moment (field-independent basis, Debye-Ang):
   XX=           -180.0128   YY=           -218.3612   ZZ=           -207.5637
   XY=             -4.6366   XZ=            -19.8702   YZ=             -3.8566

 Normal termination of Gaussian 16 at Fri Nov  4 19:02:55 2022.
