 Gaussian 16, Revision B.01,
 Gaussian 16:  ES64L-G16RevB.01 20-Dec-2017

 -------------------------------------------------------------------
 #p b3lyp/6-31g(d) 6D 10F nosymm GFInput td=(50-50,nstate=2) SCF=XQC
 -------------------------------------------------------------------

 ------------------------------
 Gaussian input prepared by ASE
 ------------------------------
 Symbolic Z-matrix:
 Charge =  0 Multiplicity = 1

                          Input orientation:
 ---------------------------------------------------------------------
 Center     Atomic      Atomic             Coordinates (Angstroms)
 Number     Number       Type             X           Y           Z
 ---------------------------------------------------------------------
      1          8           0       -4.338243   -1.178746    1.347823
      2          6           0       -4.442187   -0.329744    0.473585
      3          6           0       -5.533255    0.723751    0.521436
      4          6           0       -6.208098    0.963541    1.884390
      5          6           0       -5.307524    1.974534    1.303055
      6          9           0       -5.804015    3.139581    0.823656
      7          9           0       -4.082874    2.195530    1.844742
      8          7           0       -3.596190   -0.286109   -0.612999
      9          6           0       -3.421062    0.897373   -1.451856
     10          6           0       -2.154074    1.662402   -1.046356
     11          7           0       -1.032570    0.730086   -0.945167
     12          6           0        0.187763    1.144942   -0.483457
     13          6           0        0.417859    2.487492   -0.083833
     14          6           0        1.688465    2.784381    0.369050
     15          7           0        2.686386    1.890159    0.442014
     16          6           0        2.373078    0.645256    0.036676
     17          6           0        3.405128   -0.380200    0.082320
     18          6           0        3.333964   -1.720298   -0.288630
     19          7           0        4.499315   -2.380790   -0.108791
     20          6           0        5.341498   -1.469917    0.383475
     21          6           0        6.695415   -1.600576    0.759421
     22          6           0        7.372637   -0.512223    1.247780
     23          6           0        6.704453    0.739260    1.371165
     24          6           0        7.460484    1.919184    1.906587
     25          9           0        8.539709    2.202247    1.139530
     26          9           0        6.703179    3.034083    1.966846
     27          9           0        7.930274    1.679187    3.153346
     28          6           0        5.390947    0.877615    1.009665
     29          7           0        4.718658   -0.213114    0.522361
     30          7           0        1.177083    0.239228   -0.420285
     31          6           0       -1.275101   -0.641924   -1.378810
     32          6           0       -2.480265   -1.261852   -0.635039
     33          6           0       -2.874709   -2.576566   -1.255556
     34          6           0       -2.176412   -3.809084   -1.177588
     35          7           0       -2.773179   -4.774039   -1.874128
     36          7           0       -3.854591   -4.168990   -2.406320
     37          6           0       -3.959508   -2.857981   -2.066561
     38          1           0       -6.157974    0.826421   -0.362711
     39          1           0       -7.273140    1.172155    1.893154
     40          1           0       -5.825203    0.349563    2.693972
     41          1           0       -3.370729    0.593794   -2.503415
     42          1           0       -4.280138    1.559903   -1.351079
     43          1           0       -2.332465    2.142292   -0.076165
     44          1           0       -1.950080    2.454179   -1.783808
     45          1           0       -0.347206    3.251409   -0.123656
     46          1           0        1.930290    3.795377    0.692889
     47          1           0        2.457164   -2.214361   -0.683772
     48          1           0        7.160669   -2.573048    0.647334
     49          1           0        8.413698   -0.592894    1.542085
     50          1           0        4.818815    1.791685    1.073614
     51          1           0       -1.441286   -0.679414   -2.463967
     52          1           0       -0.380280   -1.224153   -1.167916
     53          1           0       -2.193182   -1.431153    0.407621
     54          1           0       -1.267189   -4.029865   -0.632625
     55          1           0       -4.490200   -4.715644   -2.967562
     56          1           0       -4.784004   -2.243925   -2.398059
 ---------------------------------------------------------------------

 SCF Done:  E(RB3LYP) =  -1900.29081832     A.U. after   14 cycles

 Excitation energies and oscillator strengths:

 Excited state symmetry could not be determined.
 Excited State   1:      Triplet-?Sym    2.8105 eV  441.14 nm  f=0.0000  <S**2>=2.000
     130 ->135        -0.18875
     133 ->134         0.62221
     133 ->135         0.19992
 This state for optimization and/or second-order correction.
 Total Energy, E(TD-HF/TD-DFT) =  -1900.18753330
 Copying the excited state density for this state as the 1-particle RhoCI density.

 Excited state symmetry could not be determined.
 Excited State   2:      Triplet-?Sym    3.1420 eV  394.60 nm  f=0.0000  <S**2>=2.000
     130 ->135        -0.14310
     132 ->135         0.10951
     133 ->134        -0.24801
     133 ->135         0.60127

 Excited state symmetry could not be determined.
 Excited State   3:      Singlet-?Sym    3.9973 eV  310.17 nm  f=0.5148  <S**2>=0.000
     133 ->134         0.65754
     133 ->135        -0.15187
     133 ->136        -0.12245

 Excited state symmetry could not be determined.
 Excited State   4:      Singlet-?Sym    4.0451 eV  306.50 nm  f=0.0241  <S**2>=0.000
     130 ->134         0.18798
     133 ->134         0.15300
     133 ->135         0.64025

 Alpha  occ. eigenvalues --  -24.72823 -24.72690 -24.72597 -24.71942 -24.71939
 Alpha  occ. eigenvalues --  -19.13032 -14.42401 -14.41474 -14.38258 -14.37918
 Alpha  occ. eigenvalues --  -14.35226 -14.33149 -14.32993 -14.31809 -10.43374
 Alpha  occ. eigenvalues --  -10.37058 -10.30654 -10.28178 -10.27240 -10.25885
 Alpha  occ. eigenvalues --  -10.25527 -10.24812 -10.24756 -10.24572 -10.23901
 Alpha  occ. eigenvalues --  -10.23456 -10.23054 -10.22996 -10.22494 -10.22110
 Alpha  occ. eigenvalues --  -10.21922 -10.21580 -10.21569 -10.21102 -10.20643
 Alpha  occ. eigenvalues --  -10.20082 -10.19391  -1.29959  -1.26761  -1.21496
 Alpha  occ. eigenvalues --   -1.21227  -1.20857  -1.05239  -1.04783  -1.03866
 Alpha  occ. eigenvalues --   -1.00398  -0.97279  -0.94261  -0.91496  -0.89674
 Alpha  occ. eigenvalues --   -0.87996  -0.85141  -0.82488  -0.81656  -0.80607
 Alpha  occ. eigenvalues --   -0.78458  -0.77656  -0.75291  -0.74273  -0.70556
 Alpha  occ. eigenvalues --   -0.69980  -0.68401  -0.66593  -0.65859  -0.64469
 Alpha  occ. eigenvalues --   -0.64369  -0.62926  -0.61352  -0.60920  -0.60497
 Alpha  occ. eigenvalues --   -0.59456  -0.58045  -0.57949  -0.57731  -0.56941
 Alpha  occ. eigenvalues --   -0.56056  -0.55282  -0.55101  -0.53776  -0.53075
 Alpha  occ. eigenvalues --   -0.52348  -0.51656  -0.51125  -0.50144  -0.49538
 Alpha  occ. eigenvalues --   -0.47694  -0.47474  -0.47177  -0.47059  -0.46141
 Alpha  occ. eigenvalues --   -0.45848  -0.45512  -0.45424  -0.45323  -0.45008
 Alpha  occ. eigenvalues --   -0.44606  -0.44400  -0.44188  -0.44073  -0.43444
 Alpha  occ. eigenvalues --   -0.42770  -0.42149  -0.42077  -0.41731  -0.41671
 Alpha  occ. eigenvalues --   -0.41123  -0.40983  -0.40635  -0.40404  -0.40395
 Alpha  occ. eigenvalues --   -0.39717  -0.39549  -0.38599  -0.38413  -0.37544
 Alpha  occ. eigenvalues --   -0.37374  -0.35096  -0.34066  -0.33776  -0.32727
 Alpha  occ. eigenvalues --   -0.30675  -0.30576  -0.30059  -0.29465  -0.27578
 Alpha  occ. eigenvalues --   -0.26760  -0.26153  -0.26009  -0.25610  -0.25241
 Alpha  occ. eigenvalues --   -0.24783  -0.23078  -0.21093
 Alpha virt. eigenvalues --   -0.04969  -0.03723  -0.02292  -0.00160   0.00790
 Alpha virt. eigenvalues --    0.01446   0.05615   0.06322   0.07027   0.07283
 Alpha virt. eigenvalues --    0.08148   0.08965   0.09655   0.10147   0.10598

 Mulliken charges:
               1
     1  O   -0.493348
     2  C    0.606779
     3  C   -0.320242
     4  C   -0.378570
     5  C    0.614362
     6  F   -0.275841
     7  F   -0.266863
     8  N   -0.452489
     9  C   -0.197978
    10  C   -0.117583
    11  N   -0.504265
    12  C    0.584146
    13  C   -0.222985
    14  C    0.067314
    15  N   -0.523305
    16  C    0.482944
    17  C    0.267497
    18  C   -0.035405
    19  N   -0.507127
    20  C    0.528969
    21  C   -0.185861
    22  C   -0.131438
    23  C   -0.079165
    24  C    0.790679
    25  F   -0.267357
    26  F   -0.268166
    27  F   -0.266974
    28  C    0.051000
    29  N   -0.595203
    30  N   -0.597540
    31  C   -0.172903
    32  C   -0.045761
    33  C    0.062837
    34  C    0.013483
    35  N   -0.273497
    36  N   -0.403056
    37  C    0.039449
    38  H    0.185914
    39  H    0.181180
    40  H    0.213211
    41  H    0.168797
    42  H    0.180152
    43  H    0.173994
    44  H    0.152751
    45  H    0.143989
    46  H    0.148706
    47  H    0.159359
    48  H    0.166018
    49  H    0.162349
    50  H    0.233196
    51  H    0.152163
    52  H    0.213318
    53  H    0.189612
    54  H    0.147580
    55  H    0.347770
    56  H    0.153405
 Sum of Mulliken charges =  -0.00000

 Dipole moment (field-independent basis, Debye):
    X=             -6.6131    Y=              2.9010    Z=             -3.9244  Tot=              8.2189
 Quadrupole moment (field-independent basis, Debye-Ang):
   XX=           -189.7789   YY=           -220.7964   ZZ=           -203.1666
   XY=             -7.1163   XZ=             16.2441   YZ=             -0.5276

 Normal termination of Gaussian 16 at Sat Nov  5 11:28:46 2022.
