 Gaussian 16, Revision B.01,
 Gaussian 16:  ES64L-G16RevB.01 20-Dec-2017

 -----------------------------
 #p b3lyp/6-31g(d) opt SCF=XQC
 -----------------------------

 ------------------------------
 Gaussian input prepared by ASE
 ------------------------------
 Symbolic Z-matrix:
 Charge =  0 Multiplicity = 1

 SCF Done:  E(RB3LYP) =  -3816.27898830     A.U. after   14 cycles
 SCF Done:  E(RB3LYP) =  -3816.30844153     A.U. after   13 cycles
 SCF Done:  E(RB3LYP) =  -3816.20136236     A.U. after   15 cycles
 SCF Done:  E(RB3LYP) =  -3816.31270188     A.U. after   12 cycles
 SCF Done:  E(RB3LYP) =  -3816.32084319     A.U. after   11 cycles
 SCF Done:  E(RB3LYP) =  -3816.32385697     A.U. after   11 cycles
 SCF Done:  E(RB3LYP) =  -3816.32053826     A.U. after   12 cycles
 SCF Done:  E(RB3LYP) =  -3816.32654651     A.U. after   12 cycles
 SCF Done:  E(RB3LYP) =  -3816.32789871     A.U. after   12 cycles
 SCF Done:  E(RB3LYP) =  -3816.32882078     A.U. after   11 cycles
 SCF Done:  E(RB3LYP) =  -3816.33145002     A.U. after    9 cycles
 SCF Done:  E(RB3LYP) =  -3816.33145906     A.U. after   10 cycles
 SCF Done:  E(RB3LYP) =  -3816.33146420     A.U. after    9 cycles
 SCF Done:  E(RB3LYP) =  -3816.33146530     A.U. after    7 cycles
 SCF Done:  E(RB3LYP) =  -3816.33146613     A.U. after    7 cycles
 SCF Done:  E(RB3LYP) =  -3816.33146646     A.U. after    7 cycles
 SCF Done:  E(RB3LYP) =  -3816.33146655     A.U. after    6 cycles
 SCF Done:  E(RB3LYP) =  -3816.33146658     A.U. after    6 cycles
 SCF Done:  E(RB3LYP) =  -3816.33146660     A.U. after    6 cycles
 SCF Done:  E(RB3LYP) =  -3816.33146660     A.U. after    5 cycles
 Optimization completed.
    -- Stationary point found.

                         Standard orientation:
 ---------------------------------------------------------------------
 Center     Atomic      Atomic             Coordinates (Angstroms)
 Number     Number       Type             X           Y           Z
 ---------------------------------------------------------------------
      1          6           0      -13.420020    3.173758   -3.176762
      2          6           0      -12.279689    3.802824   -2.425481
      3          6           0      -10.971467    3.739312   -2.704487
      4          6           0      -10.306585    3.008862   -3.842913
      5          6           0       -9.487094    1.773001   -3.406071
      6          6           0       -8.294975    2.087459   -2.492674
      7          6           0       -7.460670    0.847404   -2.143780
      8          6           0       -6.262242    1.168568   -1.239141
      9          6           0       -5.358205   -0.033210   -0.916465
     10          6           0       -5.998476   -1.083942   -0.008481
     11          6           0       -5.200093   -2.385579    0.168641
     12          6           0       -3.686507   -2.288599    0.410125
     13          6           0       -3.013723   -3.631085    0.735736
     14          6           0       -3.236205   -4.751652   -0.299260
     15          6           0       -2.810836   -4.452024   -1.748946
     16          6           0       -1.321882   -4.135297   -1.970691
     17          6           0       -0.364146   -5.285755   -1.618073
     18          6           0        1.072940   -5.082714   -2.129894
     19          6           0        1.792031   -3.863363   -1.538677
     20          6           0        3.213246   -3.654266   -2.080091
     21          6           0        3.861632   -2.378798   -1.529152
     22          6           0        5.231915   -2.042483   -2.137397
     23          6           0        5.798724   -0.699982   -1.626185
     24          6           0        6.756009   -0.778496   -0.432407
     25          8           0        6.190024   -1.751882    0.531258
     26         16           0        7.194681   -2.705685    1.358257
     27          8           0        6.352903   -3.402226    2.310715
     28          8           0        8.395415   -1.984682    1.725307
     29          8           0        7.671238   -3.769423    0.210509
     30          6           0        6.903873    0.539929    0.336082
     31          6           0        7.275833    1.762388   -0.498756
     32          8           0        8.663970    1.513203   -0.956171
     33         16           0        9.103474    1.923257   -2.452641
     34          8           0        7.973316    1.810840   -3.354524
     35          8           0       10.371764    1.260016   -2.674283
     36          8           0        9.382425    3.528670   -2.316834
     37          6           0        7.216028    3.081334    0.277500
     38          6           0        5.774817    3.478610    0.636758
     39          6           0        5.657547    4.854028    1.309362
     40          6           0        4.213051    5.213485    1.705628
     41          6           0        3.662504    4.384914    2.877319
     42          6           0        2.198405    4.679601    3.248373
     43          6           0        1.143943    4.320944    2.184134
     44          6           0        1.166872    2.853041    1.724880
     45          6           0       -0.066590    2.447161    0.892890
     46          6           0       -1.329839    2.155877    1.725244
     47          6           0       -1.289875    0.772552    2.415281
     48          6           0       -2.360150    0.628414    3.454255
     49          6           0       -3.386952   -0.233519    3.553178
     50          6           0       -3.798858   -1.332270    2.657319
     51          8           0       -4.581262   -2.204691    3.040106
     52          8           0       -3.294595   -1.291090    1.420565
     53          8           0       -6.206936   -0.418342    1.286511
     54         16           0       -7.548146   -0.789338    2.152673
     55          8           0       -8.407107    0.375084    2.208063
     56          8           0       -8.057608   -2.073766    1.687612
     57          8           0       -6.871813   -0.927036    3.597493
     58          1           0      -13.094774    2.612954   -4.057323
     59          1           0      -13.977732    2.483815   -2.528902
     60          1           0      -14.137188    3.936507   -3.509697
     61          1           0      -12.576222    4.376934   -1.546623
     62          1           0      -10.295371    4.266088   -2.030794
     63          1           0       -9.633063    3.703778   -4.367944
     64          1           0      -11.050915    2.689964   -4.580861
     65          1           0       -9.119698    1.265196   -4.309804
     66          1           0      -10.155835    1.063327   -2.900135
     67          1           0       -7.649042    2.832928   -2.981513
     68          1           0       -8.650571    2.549689   -1.562474
     69          1           0       -8.115202    0.109436   -1.659266
     70          1           0       -7.101622    0.376905   -3.072142
     71          1           0       -5.646400    1.935570   -1.728531
     72          1           0       -6.616617    1.610107   -0.299544
     73          1           0       -4.436138    0.319176   -0.439454
     74          1           0       -5.062773   -0.535428   -1.849462
     75          1           0       -6.981422   -1.364937   -0.393517
     76          1           0       -5.314367   -2.942971   -0.770527
     77          1           0       -5.680972   -2.984918    0.943506
     78          1           0       -3.219096   -1.858969   -0.479948
     79          1           0       -3.384866   -3.975851    1.705829
     80          1           0       -1.939900   -3.438756    0.855473
     81          1           0       -2.698837   -5.638462    0.059564
     82          1           0       -4.296499   -5.034565   -0.300576
     83          1           0       -3.078950   -5.321914   -2.364728
     84          1           0       -3.408200   -3.618005   -2.144357
     85          1           0       -1.184892   -3.877483   -3.030939
     86          1           0       -1.046621   -3.233953   -1.406854
     87          1           0       -0.342560   -5.437333   -0.529578
     88          1           0       -0.758916   -6.218001   -2.047051
     89          1           0        1.659405   -5.986620   -1.912869
     90          1           0        1.050790   -4.990488   -3.226152
     91          1           0        1.207953   -2.956185   -1.745994
     92          1           0        1.828740   -3.957061   -0.442876
     93          1           0        3.177847   -3.601390   -3.178504
     94          1           0        3.835753   -4.528776   -1.838047
     95          1           0        3.185038   -1.532959   -1.724601
     96          1           0        3.949570   -2.450331   -0.438013
     97          1           0        5.947972   -2.852167   -1.943949
     98          1           0        5.127275   -1.985154   -3.228411
     99          1           0        4.961476   -0.035347   -1.371324
    100          1           0        6.354070   -0.199671   -2.428001
    101          1           0        7.728501   -1.159470   -0.754761
    102          1           0        6.986885   -4.462951    0.150121
    103          1           0        5.938681    0.738283    0.814639
    104          1           0        7.643481    0.411643    1.133022
    105          1           0        6.650906    1.833648   -1.391904
    106          1           0       10.292331    3.640774   -1.980419
    107          1           0        7.827297    2.996244    1.185550
    108          1           0        7.667161    3.864548   -0.342552
    109          1           0        5.161886    3.479015   -0.277187
    110          1           0        5.340380    2.719400    1.297019
    111          1           0        6.047562    5.619783    0.625084
    112          1           0        6.299674    4.882982    2.201846
    113          1           0        4.169697    6.277459    1.976529
    114          1           0        3.566622    5.099627    0.823758
    115          1           0        3.766193    3.313579    2.663347
    116          1           0        4.289330    4.573362    3.760471
    117          1           0        2.097746    5.745276    3.498594
    118          1           0        1.961793    4.128903    4.169954
    119          1           0        1.258260    4.968295    1.303457
    120          1           0        0.155171    4.559747    2.599369
    121          1           0        1.256296    2.195399    2.602391
    122          1           0        2.071016    2.674732    1.128784
    123          1           0       -0.286296    3.247846    0.173472
    124          1           0        0.170031    1.558150    0.291956
    125          1           0       -2.218501    2.195893    1.083530
    126          1           0       -1.466213    2.942372    2.480365
    127          1           0       -1.351481   -0.018570    1.666060
    128          1           0       -0.323684    0.662607    2.930562
    129          1           0       -2.274209    1.341188    4.276648
    130          1           0       -4.021847   -0.182953    4.433055
    131          1           0       -6.095086   -1.553238    3.539370
 ---------------------------------------------------------------------

 The electronic state is 1-A.
 Alpha  occ. eigenvalues --  -89.18330 -89.17933 -89.15353 -19.23316 -19.22953
 Alpha  occ. eigenvalues --  -19.22484 -19.22134 -19.21043 -19.19602 -19.19383
 Alpha  occ. eigenvalues --  -19.18265 -19.18062 -19.17769 -19.17748 -19.15620
 Alpha  occ. eigenvalues --  -19.15154 -19.14880 -10.34034 -10.27986 -10.27752
 Alpha  occ. eigenvalues --  -10.26731 -10.26260 -10.22640 -10.21284 -10.21070
 Alpha  occ. eigenvalues --  -10.20749 -10.20536 -10.20311 -10.20242 -10.20123
 Alpha  occ. eigenvalues --  -10.19843 -10.19696 -10.19671 -10.19603 -10.19592
 Alpha  occ. eigenvalues --  -10.19531 -10.19391 -10.19338 -10.19159 -10.19120
 Alpha  occ. eigenvalues --  -10.19024 -10.18907 -10.18887 -10.18869 -10.18856
 Alpha  occ. eigenvalues --  -10.18828 -10.18779 -10.18733 -10.18689 -10.18243
 Alpha  occ. eigenvalues --  -10.17957 -10.17777 -10.17609 -10.17583 -10.17503
 Alpha  occ. eigenvalues --  -10.17408 -10.17153  -8.20193  -8.19798  -8.17194
 Alpha  occ. eigenvalues --   -6.16769  -6.16677  -6.16525  -6.16375  -6.16281
 Alpha  occ. eigenvalues --   -6.16128  -6.13768  -6.13693  -6.13517  -1.19444
 Alpha  occ. eigenvalues --   -1.19092  -1.16307  -1.11809  -1.07708  -1.07296
 Alpha  occ. eigenvalues --   -1.05852  -1.05569  -1.04585  -1.04452  -1.04213
 Alpha  occ. eigenvalues --   -1.03373  -1.02590  -1.01113  -0.84866  -0.84102
 Alpha  occ. eigenvalues --   -0.83090  -0.82726  -0.82051  -0.81540  -0.81214
 Alpha  occ. eigenvalues --   -0.80283  -0.79686  -0.79308  -0.78014  -0.77248
 Alpha  occ. eigenvalues --   -0.76696  -0.75143  -0.74337  -0.73785  -0.72038
 Alpha  occ. eigenvalues --   -0.71536  -0.70579  -0.69202  -0.68861  -0.68418
 Alpha  occ. eigenvalues --   -0.67735  -0.66910  -0.66708  -0.65186  -0.64879
 Alpha  occ. eigenvalues --   -0.64019  -0.63594  -0.62435  -0.61802  -0.61655
 Alpha  occ. eigenvalues --   -0.60675  -0.59908  -0.59393  -0.58948  -0.58728
 Alpha  occ. eigenvalues --   -0.58589  -0.58173  -0.57982  -0.57617  -0.57027
 Alpha  occ. eigenvalues --   -0.56212  -0.55951  -0.54199  -0.53553  -0.53094
 Alpha  occ. eigenvalues --   -0.51665  -0.51561  -0.51422  -0.51289  -0.51194
 Alpha  occ. eigenvalues --   -0.50305  -0.49842  -0.49029  -0.48942  -0.48626
 Alpha  occ. eigenvalues --   -0.48340  -0.48173  -0.48032  -0.47728  -0.47594
 Alpha  occ. eigenvalues --   -0.47290  -0.47257  -0.46801  -0.46595  -0.46461
 Alpha  occ. eigenvalues --   -0.46335  -0.45936  -0.45640  -0.45099  -0.44819
 Alpha  occ. eigenvalues --   -0.44625  -0.44499  -0.44327  -0.44066  -0.43990
 Alpha  occ. eigenvalues --   -0.43728  -0.43284  -0.43093  -0.42470  -0.42356
 Alpha  occ. eigenvalues --   -0.42032  -0.41708  -0.41592  -0.41251  -0.40921
 Alpha  occ. eigenvalues --   -0.40709  -0.40597  -0.40303  -0.40219  -0.40020
 Alpha  occ. eigenvalues --   -0.39820  -0.39787  -0.39388  -0.39139  -0.38843
 Alpha  occ. eigenvalues --   -0.38677  -0.38570  -0.38468  -0.38309  -0.38126
 Alpha  occ. eigenvalues --   -0.37873  -0.37717  -0.37673  -0.37346  -0.37189
 Alpha  occ. eigenvalues --   -0.37141  -0.36875  -0.36576  -0.36382  -0.36039
 Alpha  occ. eigenvalues --   -0.36013  -0.35832  -0.35678  -0.35628  -0.35424
 Alpha  occ. eigenvalues --   -0.35125  -0.35049  -0.34726  -0.34615  -0.34567
 Alpha  occ. eigenvalues --   -0.34394  -0.34322  -0.34260  -0.34199  -0.33953
 Alpha  occ. eigenvalues --   -0.33833  -0.33681  -0.33525  -0.33439  -0.33147
 Alpha  occ. eigenvalues --   -0.33058  -0.32965  -0.32892  -0.32710  -0.32626
 Alpha  occ. eigenvalues --   -0.32436  -0.32243  -0.32081  -0.32000  -0.31871
 Alpha  occ. eigenvalues --   -0.31635  -0.31591  -0.31155  -0.31063  -0.31010
 Alpha  occ. eigenvalues --   -0.30833  -0.30508  -0.29954  -0.29330  -0.28693
 Alpha  occ. eigenvalues --   -0.27738  -0.23141
 Alpha virt. eigenvalues --   -0.06022   0.00441   0.00830   0.03435   0.03694
 Alpha virt. eigenvalues --    0.04444   0.04771   0.05295   0.05726   0.06016
 Alpha virt. eigenvalues --    0.06705   0.06898   0.07319   0.07466   0.07793

 Mulliken charges:
               1
     1  C   -0.487927
     2  C   -0.096840
     3  C   -0.094647
     4  C   -0.308020
     5  C   -0.249779
     6  C   -0.256408
     7  C   -0.263425
     8  C   -0.269740
     9  C   -0.285185
    10  C    0.107539
    11  C   -0.328723
    12  C    0.132536
    13  C   -0.296032
    14  C   -0.278647
    15  C   -0.270123
    16  C   -0.259430
    17  C   -0.257213
    18  C   -0.257364
    19  C   -0.256020
    20  C   -0.252937
    21  C   -0.267068
    22  C   -0.259680
    23  C   -0.313268
    24  C    0.098925
    25  O   -0.529043
    26  S    1.328660
    27  O   -0.480922
    28  O   -0.493156
    29  O   -0.628294
    30  C   -0.305036
    31  C    0.080202
    32  O   -0.530024
    33  S    1.326286
    34  O   -0.501690
    35  O   -0.474169
    36  O   -0.624679
    37  C   -0.279200
    38  C   -0.279329
    39  C   -0.257912
    40  C   -0.259390
    41  C   -0.263079
    42  C   -0.260597
    43  C   -0.260500
    44  C   -0.262180
    45  C   -0.261681
    46  C   -0.268946
    47  C   -0.313672
    48  C   -0.075708
    49  C   -0.179396
    50  C    0.672826
    51  O   -0.558101
    52  O   -0.493747
    53  O   -0.563590
    54  S    1.302077
    55  O   -0.469135
    56  O   -0.519121
    57  O   -0.638551
    58  H    0.152083
    59  H    0.157249
    60  H    0.153027
    61  H    0.121030
    62  H    0.120881
    63  H    0.133855
    64  H    0.135544
    65  H    0.123075
    66  H    0.140062
    67  H    0.122213
    68  H    0.147988
    69  H    0.143029
    70  H    0.121134
    71  H    0.129047
    72  H    0.168900
    73  H    0.156128
    74  H    0.133707
    75  H    0.176815
    76  H    0.155629
    77  H    0.201768
    78  H    0.151776
    79  H    0.174935
    80  H    0.144736
    81  H    0.147228
    82  H    0.146604
    83  H    0.137279
    84  H    0.126352
    85  H    0.131204
    86  H    0.133800
    87  H    0.133424
    88  H    0.130831
    89  H    0.129435
    90  H    0.128332
    91  H    0.131436
    92  H    0.130238
    93  H    0.129774
    94  H    0.120379
    95  H    0.125236
    96  H    0.155553
    97  H    0.131864
    98  H    0.142411
    99  H    0.140176
   100  H    0.182603
   101  H    0.191395
   102  H    0.444257
   103  H    0.167923
   104  H    0.193331
   105  H    0.185249
   106  H    0.446604
   107  H    0.150372
   108  H    0.162995
   109  H    0.137067
   110  H    0.147845
   111  H    0.135505
   112  H    0.133745
   113  H    0.134183
   114  H    0.133025
   115  H    0.136596
   116  H    0.132066
   117  H    0.131020
   118  H    0.129429
   119  H    0.134688
   120  H    0.134718
   121  H    0.130868
   122  H    0.132393
   123  H    0.136235
   124  H    0.129462
   125  H    0.150699
   126  H    0.140244
   127  H    0.168605
   128  H    0.154588
   129  H    0.148522
   130  H    0.162308
   131  H    0.475561
 Sum of Mulliken charges =  -0.00000

 Dipole moment (field-independent basis, Debye):
    X=              4.8963    Y=              2.1859    Z=             -3.2035  Tot=              6.2461
 Quadrupole moment (field-independent basis, Debye-Ang):
   XX=           -475.4030   YY=           -348.7236   ZZ=           -388.4508
   XY=             26.2421   XZ=             35.1985   YZ=             21.9784

 Normal termination of Gaussian 16 at Fri Nov  4 20:38:59 2022.
