 Gaussian 16, Revision B.01,
 Gaussian 16:  ES64L-G16RevB.01 20-Dec-2017

 -------------------------------------------------------------------
 #p b3lyp/6-31g(d) 6D 10F nosymm GFInput td=(50-50,nstate=2) SCF=XQC
 -------------------------------------------------------------------

 ------------------------------
 Gaussian input prepared by ASE
 ------------------------------
 Symbolic Z-matrix:
 Charge =  0 Multiplicity = 1

                          Input orientation:
 ---------------------------------------------------------------------
 Center     Atomic      Atomic             Coordinates (Angstroms)
 Number     Number       Type             X           Y           Z
 ---------------------------------------------------------------------
      1          6           0       13.017859    2.209085    2.747172
      2          6           0       11.799617    3.025132    2.414825
      3          6           0       10.528395    2.792631    2.765913
      4          6           0        9.992830    1.642291    3.579257
      5          6           0        9.143139    0.637863    2.767532
      6          6           0        7.859226    1.225943    2.167489
      7          6           0        7.004045    0.182437    1.435855
      8          6           0        5.714714    0.772930    0.847050
      9          6           0        4.792590   -0.249150    0.160965
     10          6           0        5.343634   -0.826514   -1.143421
     11          6           0        4.542701   -1.992177   -1.745737
     12          6           0        3.011352   -1.883288   -1.787876
     13          6           0        2.320147   -3.022022   -2.553677
     14          6           0        2.659680   -4.446228   -2.071245
     15          6           0        2.385720   -4.760609   -0.588539
     16          6           0        0.925393   -4.630326   -0.122767
     17          6           0       -0.053722   -5.596181   -0.810959
     18          6           0       -1.431098   -5.681524   -0.129818
     19          6           0       -2.218926   -4.365201   -0.121626
     20          6           0       -3.577476   -4.455803    0.587483
     21          6           0       -4.291273   -3.100231    0.648112
     22          6           0       -5.593309   -3.097666    1.463858
     23          6           0       -6.222420   -1.692066    1.579728
     24          6           0       -7.298650   -1.343366    0.546382
     25          8           0       -6.827996   -1.831521   -0.771442
     26         16           0       -7.905169   -2.433012   -1.811111
     27          8           0       -7.161537   -2.657619   -3.034835
     28          8           0       -9.144086   -1.686199   -1.750377
     29          8           0       -8.249513   -3.883830   -1.138412
     30          6           0       -7.537844    0.161753    0.378794
     31          6           0       -7.831243    0.938821    1.659340
     32          8           0       -9.161614    0.461845    2.107503
     33         16           0       -9.445716    0.229849    3.677916
     34          8           0       -8.226421   -0.171197    4.353024
     35          8           0      -10.677898   -0.529060    3.735866
     36          8           0       -9.751609    1.743962    4.214106
     37          6           0       -7.864734    2.457741    1.465620
     38          6           0       -6.472626    3.034877    1.160771
     39          6           0       -6.438625    4.567863    1.078774
     40          6           0       -5.046787    5.124936    0.724852
     41          6           0       -4.614545    4.850622   -0.724427
     42          6           0       -3.199998    5.339283   -1.082720
     43          6           0       -2.036799    4.644633   -0.349535
     44          6           0       -1.998488    3.115038   -0.507812
     45          6           0       -0.681167    2.476954   -0.022127
     46          6           0        0.490572    2.598350   -1.014976
     47          6           0        0.390909    1.596344   -2.188597
     48          6           0        1.347809    1.924386   -3.294247
     49          6           0        2.366241    1.222265   -3.820422
     50          6           0        2.879395   -0.117960   -3.474076
     51          8           0        3.625165   -0.730480   -4.241178
     52          8           0        2.506990   -0.590133   -2.280801
     53          8           0        5.409493    0.303074   -2.083194
     54         16           0        6.655932    0.368368   -3.145666
     55          8           0        7.493993    1.502179   -2.815686
     56          8           0        7.222666   -0.968628   -3.275450
     57          8           0        5.833354    0.775063   -4.457861
     58          1           0       12.791556    1.332514    3.360429
     59          1           0       13.510817    1.857021    1.830750
     60          1           0       13.759124    2.814625    3.286442
     61          1           0       11.997427    3.911836    1.811043
     62          1           0        9.780849    3.507262    2.421039
     63          1           0        9.371804    2.041365    4.396119
     64          1           0       10.813109    1.096784    4.058687
     65          1           0        8.876873   -0.201199    3.426815
     66          1           0        9.761541    0.217507    1.962731
     67          1           0        7.261399    1.687012    2.968698
     68          1           0        8.111393    2.032939    1.467098
     69          1           0        7.610809   -0.273013    0.640766
     70          1           0        6.748325   -0.631604    2.131617
     71          1           0        5.146677    1.255051    1.654485
     72          1           0        5.964868    1.564545    0.130008
     73          1           0        3.822569    0.215985   -0.050291
     74          1           0        4.600902   -1.090997    0.842534
     75          1           0        6.363938   -1.186989   -0.993649
     76          1           0        4.759589   -2.866850   -1.118291
     77          1           0        4.945153   -2.215008   -2.735305
     78          1           0        2.635860   -1.860860   -0.761334
     79          1           0        2.590775   -2.939878   -3.610892
     80          1           0        1.238022   -2.851536   -2.487610
     81          1           0        2.095614   -5.146672   -2.699861
     82          1           0        3.716761   -4.654145   -2.280082
     83          1           0        2.724530   -5.787884   -0.394391
     84          1           0        3.013748   -4.120035    0.047093
     85          1           0        0.897833   -4.816111    0.960786
     86          1           0        0.584633   -3.594884   -0.256349
     87          1           0       -0.187759   -5.309582   -1.863651
     88          1           0        0.392048   -6.601203   -0.823911
     89          1           0       -2.028996   -6.455714   -0.631050
     90          1           0       -1.295159   -6.025657    0.906460
     91          1           0       -1.624446   -3.584317    0.372248
     92          1           0       -2.369282   -4.023320   -1.156719
     93          1           0       -3.427785   -4.836270    1.608952
     94          1           0       -4.214097   -5.194963    0.078343
     95          1           0       -3.605487   -2.366457    1.098328
     96          1           0       -4.492285   -2.742354   -0.369214
     97          1           0       -6.318454   -3.800968    1.033416
     98          1           0       -5.375575   -3.467715    2.473910
     99          1           0       -5.422385   -0.940178    1.531904
    100          1           0       -6.695226   -1.574452    2.561690
    101          1           0       -8.228639   -1.867858    0.780521
    102          1           0       -7.556460   -4.510690   -1.420709
    103          1           0       -6.629840    0.579400   -0.069596
    104          1           0       -8.355626    0.319869   -0.331714
    105          1           0       -7.116931    0.684916    2.445861
    106          1           0      -10.692687    1.933847    4.035256
    107          1           0       -8.566900    2.705463    0.658748
    108          1           0       -8.255442    2.911661    2.383615
    109          1           0       -5.767438    2.707138    1.939410
    110          1           0       -6.102944    2.617950    0.217062
    111          1           0       -6.761675    4.983579    2.042904
    112          1           0       -7.170862    4.912707    0.334057
    113          1           0       -5.041483    6.210641    0.893741
    114          1           0       -4.310627    4.706478    1.425917
    115          1           0       -4.685743    3.777497   -0.942663
    116          1           0       -5.332007    5.339067   -1.399000
    117          1           0       -3.135557    6.421276   -0.899570
    118          1           0       -3.056249    5.206584   -2.164521
    119          1           0       -2.064070    4.888206    0.721750
    120          1           0       -1.099077    5.075767   -0.726254
    121          1           0       -2.173409    2.850687   -1.561394
    122          1           0       -2.833660    2.672726    0.050265
    123          1           0       -0.394502    2.941147    0.931433
    124          1           0       -0.845684    1.412961    0.197656
    125          1           0        1.441123    2.427408   -0.495024
    126          1           0        0.540171    3.623687   -1.406900
    127          1           0        0.537619    0.578869   -1.822237
    128          1           0       -0.622888    1.649631   -2.613454
    129          1           0        1.169938    2.897388   -3.756190
    130          1           0        2.905089    1.645211   -4.663388
    131          1           0        5.072572    0.138632   -4.580256
 ---------------------------------------------------------------------

 SCF Done:  E(RB3LYP) =  -3816.33144347     A.U. after   14 cycles

 Excitation energies and oscillator strengths:

 Excited state symmetry could not be determined.
 Excited State   1:      Triplet-?Sym    3.4447 eV  359.93 nm  f=0.0000  <S**2>=2.000
     235 -> 238       -0.21817
     236 -> 238        0.64077
 This state for optimization and/or second-order correction.
 Total Energy, E(TD-HF/TD-DFT) =  -3816.20485285
 Copying the excited state density for this state as the 1-particle RhoCI density.

 Excited state symmetry could not be determined.
 Excited State   2:      Triplet-?Sym    4.3961 eV  282.04 nm  f=0.0000  <S**2>=2.000
     237 -> 238        0.70707

 Excited state symmetry could not be determined.
 Excited State   3:      Singlet-?Sym    4.3961 eV  282.03 nm  f=0.0000  <S**2>=0.000
     237 -> 238        0.70708

 Excited state symmetry could not be determined.
 Excited State   4:      Singlet-?Sym    4.8772 eV  254.21 nm  f=0.0087  <S**2>=0.000
     233 -> 238        0.16085
     234 -> 238        0.54477
     235 -> 238        0.19009
     236 -> 238        0.34441

 Alpha  occ. eigenvalues --  -89.18330 -89.17933 -89.15353 -19.23316 -19.22953
 Alpha  occ. eigenvalues --  -19.22485 -19.22134 -19.21043 -19.19602 -19.19383
 Alpha  occ. eigenvalues --  -19.18265 -19.18062 -19.17769 -19.17748 -19.15620
 Alpha  occ. eigenvalues --  -19.15154 -19.14880 -10.34035 -10.27986 -10.27752
 Alpha  occ. eigenvalues --  -10.26731 -10.26260 -10.22641 -10.21284 -10.21070
 Alpha  occ. eigenvalues --  -10.20750 -10.20536 -10.20311 -10.20242 -10.20123
 Alpha  occ. eigenvalues --  -10.19844 -10.19696 -10.19671 -10.19603 -10.19591
 Alpha  occ. eigenvalues --  -10.19531 -10.19392 -10.19338 -10.19159 -10.19120
 Alpha  occ. eigenvalues --  -10.19024 -10.18907 -10.18887 -10.18869 -10.18856
 Alpha  occ. eigenvalues --  -10.18828 -10.18779 -10.18733 -10.18689 -10.18243
 Alpha  occ. eigenvalues --  -10.17957 -10.17777 -10.17609 -10.17583 -10.17503
 Alpha  occ. eigenvalues --  -10.17408 -10.17153  -8.20193  -8.19798  -8.17194
 Alpha  occ. eigenvalues --   -6.16769  -6.16677  -6.16525  -6.16375  -6.16281
 Alpha  occ. eigenvalues --   -6.16128  -6.13768  -6.13693  -6.13517  -1.19444
 Alpha  occ. eigenvalues --   -1.19091  -1.16307  -1.11809  -1.07708  -1.07296
 Alpha  occ. eigenvalues --   -1.05853  -1.05569  -1.04585  -1.04452  -1.04213
 Alpha  occ. eigenvalues --   -1.03373  -1.02590  -1.01113  -0.84866  -0.84102
 Alpha  occ. eigenvalues --   -0.83090  -0.82726  -0.82051  -0.81540  -0.81214
 Alpha  occ. eigenvalues --   -0.80283  -0.79686  -0.79308  -0.78014  -0.77248
 Alpha  occ. eigenvalues --   -0.76696  -0.75143  -0.74337  -0.73785  -0.72038
 Alpha  occ. eigenvalues --   -0.71536  -0.70579  -0.69202  -0.68861  -0.68418
 Alpha  occ. eigenvalues --   -0.67735  -0.66910  -0.66708  -0.65186  -0.64879
 Alpha  occ. eigenvalues --   -0.64019  -0.63594  -0.62435  -0.61802  -0.61655
 Alpha  occ. eigenvalues --   -0.60675  -0.59908  -0.59393  -0.58948  -0.58728
 Alpha  occ. eigenvalues --   -0.58589  -0.58173  -0.57982  -0.57617  -0.57027
 Alpha  occ. eigenvalues --   -0.56212  -0.55951  -0.54199  -0.53553  -0.53094
 Alpha  occ. eigenvalues --   -0.51665  -0.51561  -0.51422  -0.51289  -0.51194
 Alpha  occ. eigenvalues --   -0.50305  -0.49842  -0.49029  -0.48942  -0.48626
 Alpha  occ. eigenvalues --   -0.48340  -0.48173  -0.48032  -0.47728  -0.47594
 Alpha  occ. eigenvalues --   -0.47290  -0.47257  -0.46801  -0.46595  -0.46461
 Alpha  occ. eigenvalues --   -0.46335  -0.45936  -0.45639  -0.45099  -0.44819
 Alpha  occ. eigenvalues --   -0.44625  -0.44499  -0.44327  -0.44066  -0.43990
 Alpha  occ. eigenvalues --   -0.43728  -0.43284  -0.43092  -0.42470  -0.42356
 Alpha  occ. eigenvalues --   -0.42032  -0.41708  -0.41592  -0.41251  -0.40921
 Alpha  occ. eigenvalues --   -0.40709  -0.40597  -0.40303  -0.40219  -0.40020
 Alpha  occ. eigenvalues --   -0.39820  -0.39787  -0.39388  -0.39139  -0.38843
 Alpha  occ. eigenvalues --   -0.38677  -0.38570  -0.38468  -0.38309  -0.38126
 Alpha  occ. eigenvalues --   -0.37873  -0.37717  -0.37673  -0.37346  -0.37189
 Alpha  occ. eigenvalues --   -0.37141  -0.36875  -0.36576  -0.36382  -0.36039
 Alpha  occ. eigenvalues --   -0.36013  -0.35832  -0.35678  -0.35628  -0.35424
 Alpha  occ. eigenvalues --   -0.35125  -0.35049  -0.34726  -0.34615  -0.34567
 Alpha  occ. eigenvalues --   -0.34394  -0.34322  -0.34260  -0.34199  -0.33953
 Alpha  occ. eigenvalues --   -0.33833  -0.33681  -0.33525  -0.33439  -0.33147
 Alpha  occ. eigenvalues --   -0.33058  -0.32965  -0.32892  -0.32710  -0.32626
 Alpha  occ. eigenvalues --   -0.32436  -0.32243  -0.32081  -0.32000  -0.31871
 Alpha  occ. eigenvalues --   -0.31635  -0.31591  -0.31155  -0.31063  -0.31010
 Alpha  occ. eigenvalues --   -0.30833  -0.30508  -0.29954  -0.29330  -0.28693
 Alpha  occ. eigenvalues --   -0.27738  -0.23141
 Alpha virt. eigenvalues --   -0.06022   0.00441   0.00830   0.03435   0.03694
 Alpha virt. eigenvalues --    0.04444   0.04771   0.05295   0.05726   0.06016
 Alpha virt. eigenvalues --    0.06705   0.06898   0.07319   0.07466   0.07793

 Mulliken charges:
               1
     1  C   -0.487925
     2  C   -0.096838
     3  C   -0.094651
     4  C   -0.308012
     5  C   -0.249787
     6  C   -0.256393
     7  C   -0.263435
     8  C   -0.269723
     9  C   -0.285217
    10  C    0.107586
    11  C   -0.328746
    12  C    0.132555
    13  C   -0.296016
    14  C   -0.278645
    15  C   -0.270109
    16  C   -0.259435
    17  C   -0.257196
    18  C   -0.257367
    19  C   -0.256011
    20  C   -0.252928
    21  C   -0.267054
    22  C   -0.259695
    23  C   -0.313272
    24  C    0.098931
    25  O   -0.529044
    26  S    1.328669
    27  O   -0.480927
    28  O   -0.493159
    29  O   -0.628293
    30  C   -0.305018
    31  C    0.080182
    32  O   -0.530018
    33  S    1.326285
    34  O   -0.501693
    35  O   -0.474168
    36  O   -0.624680
    37  C   -0.279198
    38  C   -0.279331
    39  C   -0.257908
    40  C   -0.259396
    41  C   -0.263044
    42  C   -0.260617
    43  C   -0.260487
    44  C   -0.262195
    45  C   -0.261678
    46  C   -0.268950
    47  C   -0.313648
    48  C   -0.075715
    49  C   -0.179417
    50  C    0.672836
    51  O   -0.558100
    52  O   -0.493758
    53  O   -0.563597
    54  S    1.302057
    55  O   -0.469119
    56  O   -0.519120
    57  O   -0.638557
    58  H    0.152083
    59  H    0.157247
    60  H    0.153026
    61  H    0.121029
    62  H    0.120882
    63  H    0.133853
    64  H    0.135542
    65  H    0.123075
    66  H    0.140061
    67  H    0.122210
    68  H    0.147987
    69  H    0.143029
    70  H    0.121134
    71  H    0.129042
    72  H    0.168899
    73  H    0.156142
    74  H    0.133708
    75  H    0.176815
    76  H    0.155628
    77  H    0.201767
    78  H    0.151773
    79  H    0.174933
    80  H    0.144731
    81  H    0.147225
    82  H    0.146600
    83  H    0.137276
    84  H    0.126345
    85  H    0.131202
    86  H    0.133797
    87  H    0.133419
    88  H    0.130828
    89  H    0.129433
    90  H    0.128331
    91  H    0.131432
    92  H    0.130237
    93  H    0.129772
    94  H    0.120375
    95  H    0.125231
    96  H    0.155550
    97  H    0.131869
    98  H    0.142413
    99  H    0.140174
   100  H    0.182605
   101  H    0.191395
   102  H    0.444255
   103  H    0.167919
   104  H    0.193330
   105  H    0.185249
   106  H    0.446605
   107  H    0.150372
   108  H    0.162993
   109  H    0.137068
   110  H    0.147845
   111  H    0.135505
   112  H    0.133743
   113  H    0.134182
   114  H    0.133022
   115  H    0.136590
   116  H    0.132062
   117  H    0.131022
   118  H    0.129429
   119  H    0.134686
   120  H    0.134717
   121  H    0.130870
   122  H    0.132398
   123  H    0.136236
   124  H    0.129465
   125  H    0.150692
   126  H    0.140247
   127  H    0.168599
   128  H    0.154584
   129  H    0.148524
   130  H    0.162313
   131  H    0.475560
 Sum of Mulliken charges =  -0.00000

 Dipole moment (field-independent basis, Debye):
    X=             -4.5536    Y=              0.5093    Z=              4.2451  Tot=              6.2463
 Quadrupole moment (field-independent basis, Debye-Ang):
   XX=           -460.8530   YY=           -343.1883   ZZ=           -404.3260
   XY=            -44.0540   XZ=             26.5316   YZ=              3.7540

 Normal termination of Gaussian 16 at Sat Nov  5 11:37:54 2022.
