 Gaussian 16, Revision B.01,
 Gaussian 16:  ES64L-G16RevB.01 20-Dec-2017

 -------------------------------------------------------------------
 #p b3lyp/6-31g(d) 6D 10F nosymm GFInput td=(50-50,nstate=2) SCF=XQC
 -------------------------------------------------------------------

 ------------------------------
 Gaussian input prepared by ASE
 ------------------------------
 Symbolic Z-matrix:
 Charge =  0 Multiplicity = 1

                          Input orientation:
 ---------------------------------------------------------------------
 Center     Atomic      Atomic             Coordinates (Angstroms)
 Number     Number       Type             X           Y           Z
 ---------------------------------------------------------------------
      1          6           0        5.016422    0.525436    0.112718
      2          6           0        4.011831   -0.312353    0.924075
      3          6           0        2.617198   -0.338371    0.322025
      4          6           0        2.176696   -1.459772   -0.272379
      5          6           0        0.838853   -1.753095   -0.918425
      6          6           0        0.245838   -0.633647   -1.789926
      7          7           0       -0.118839    0.567037   -1.050947
      8          6           0       -1.331598    0.684835   -0.402011
      9          6           0       -2.384541   -0.246788   -0.582514
     10          6           0       -3.595267   -0.037836    0.062609
     11          6           0       -4.673438   -1.068479   -0.158164
     12          7           0       -5.710800   -1.053431    0.741326
     13          8           0       -4.637490   -1.858740   -1.092528
     14          6           0       -3.755995    1.096156    0.875310
     15          6           0       -2.661772    1.944511    1.003676
     16          7           0       -1.482349    1.754386    0.408852
     17          6           0        0.989384    1.445605   -0.686183
     18          6           0        1.822158    0.946831    0.505717
     19          1           0        5.142935    0.110396   -0.893452
     20          1           0        5.997356    0.539433    0.601692
     21          1           0        4.686768    1.565512    0.004986
     22          1           0        4.394103   -1.335984    1.016085
     23          1           0        3.956913    0.092690    1.945720
     24          1           0        2.861709   -2.308504   -0.269518
     25          1           0        0.946995   -2.644328   -1.550348
     26          1           0        0.100777   -2.024649   -0.147488
     27          1           0        0.980318   -0.338109   -2.548247
     28          1           0       -0.626986   -1.006352   -2.332701
     29          1           0       -2.292275   -1.125141   -1.206934
     30          1           0       -5.591706   -0.637635    1.653462
     31          1           0       -6.361250   -1.824771    0.672237
     32          1           0       -4.694877    1.335063    1.363122
     33          1           0       -2.732231    2.835085    1.627546
     34          1           0        0.574692    2.424222   -0.443632
     35          1           0        1.629882    1.549850   -1.570267
     36          1           0        2.513009    1.755460    0.777923
     37          1           0        1.147576    0.835479    1.367364
 ---------------------------------------------------------------------

 SCF Done:  E(RB3LYP) =  -784.413992124     A.U. after   15 cycles

 Excitation energies and oscillator strengths:

 Excited state symmetry could not be determined.
 Excited State   1:      Triplet-?Sym    2.8285 eV  438.34 nm  f=0.0000  <S**2>=2.000
      66 -> 67         0.69212
 This state for optimization and/or second-order correction.
 Total Energy, E(TD-HF/TD-DFT) =  -784.310046413
 Copying the excited state density for this state as the 1-particle RhoCI density.

 Excited state symmetry could not be determined.
 Excited State   2:      Triplet-?Sym    3.5205 eV  352.18 nm  f=0.0000  <S**2>=2.000
      60 -> 68         0.11798
      61 -> 67         0.23610
      62 -> 67        -0.15251
      63 -> 67         0.11616
      65 -> 68         0.11661
      66 -> 68         0.58640

 Excited state symmetry could not be determined.
 Excited State   3:      Singlet-?Sym    3.6257 eV  341.96 nm  f=0.0459  <S**2>=0.000
      66 -> 67         0.69783

 Excited state symmetry could not be determined.
 Excited State   4:      Singlet-?Sym    4.4234 eV  280.29 nm  f=0.0009  <S**2>=0.000
      62 -> 67         0.13982
      63 -> 67         0.17855
      64 -> 67         0.63551
      65 -> 67        -0.17211

 Alpha  occ. eigenvalues --  -19.11483 -14.35912 -14.35110 -14.31900 -10.29281
 Alpha  occ. eigenvalues --  -10.25818 -10.22027 -10.21948 -10.21003 -10.20927
 Alpha  occ. eigenvalues --  -10.18851 -10.18850 -10.18829 -10.18704 -10.18381
 Alpha  occ. eigenvalues --  -10.18324 -10.17702 -10.17609  -1.03294  -0.96982
 Alpha  occ. eigenvalues --   -0.91130  -0.90514  -0.81591  -0.80556  -0.77642
 Alpha  occ. eigenvalues --   -0.76157  -0.73734  -0.68969  -0.66984  -0.65215
 Alpha  occ. eigenvalues --   -0.63424  -0.60721  -0.59543  -0.56821  -0.54606
 Alpha  occ. eigenvalues --   -0.51842  -0.50971  -0.49277  -0.48010  -0.47421
 Alpha  occ. eigenvalues --   -0.46248  -0.45387  -0.44180  -0.43128  -0.42660
 Alpha  occ. eigenvalues --   -0.42381  -0.41500  -0.41091  -0.40087  -0.39081
 Alpha  occ. eigenvalues --   -0.38412  -0.37445  -0.36974  -0.36806  -0.36072
 Alpha  occ. eigenvalues --   -0.35442  -0.35008  -0.33355  -0.31001  -0.29344
 Alpha  occ. eigenvalues --   -0.27687  -0.27304  -0.25677  -0.24963  -0.23425
 Alpha  occ. eigenvalues --   -0.19607
 Alpha virt. eigenvalues --   -0.04200   0.00475   0.02232   0.05916   0.07996
 Alpha virt. eigenvalues --    0.08822   0.10580   0.11300   0.12022   0.12417
 Alpha virt. eigenvalues --    0.13577   0.14123   0.14649   0.15279   0.15625

 Mulliken charges:
               1
     1  C   -0.441032
     2  C   -0.330288
     3  C    0.200108
     4  C   -0.199597
     5  C   -0.291419
     6  C   -0.156231
     7  N   -0.461685
     8  C    0.530273
     9  C   -0.235512
    10  C    0.105012
    11  C    0.537477
    12  N   -0.752656
    13  O   -0.501670
    14  C   -0.223938
    15  C    0.042527
    16  N   -0.513247
    17  C   -0.140587
    18  C   -0.342113
    19  H    0.148099
    20  H    0.144659
    21  H    0.144938
    22  H    0.139531
    23  H    0.138376
    24  H    0.117406
    25  H    0.140244
    26  H    0.159615
    27  H    0.149534
    28  H    0.161470
    29  H    0.165093
    30  H    0.335660
    31  H    0.341675
    32  H    0.125465
    33  H    0.135116
    34  H    0.180876
    35  H    0.138613
    36  H    0.139223
    37  H    0.168985
 Sum of Mulliken charges =  -0.00000

 Dipole moment (field-independent basis, Debye):
    X=              0.5158    Y=              0.0319    Z=              2.4164  Tot=              2.4711
 Quadrupole moment (field-independent basis, Debye-Ang):
   XX=            -96.0642   YY=           -108.8612   ZZ=           -104.9810
   XY=             -1.5635   XZ=            -17.5701   YZ=             -1.8793

 Normal termination of Gaussian 16 at Sat Nov  5 11:18:18 2022.
