 Gaussian 16, Revision B.01,
 Gaussian 16:  ES64L-G16RevB.01 20-Dec-2017

 -----------------------------
 #p b3lyp/6-31g(d) opt SCF=XQC
 -----------------------------

 ------------------------------
 Gaussian input prepared by ASE
 ------------------------------
 Symbolic Z-matrix:
 Charge =  0 Multiplicity = 1

 SCF Done:  E(RB3LYP) =  -784.407606954     A.U. after   15 cycles
 SCF Done:  E(RB3LYP) =  -784.412083756     A.U. after   12 cycles
 SCF Done:  E(RB3LYP) =  -784.412807463     A.U. after   12 cycles
 SCF Done:  E(RB3LYP) =  -784.413308139     A.U. after   11 cycles
 SCF Done:  E(RB3LYP) =  -784.413564175     A.U. after   12 cycles
 SCF Done:  E(RB3LYP) =  -784.413813617     A.U. after   11 cycles
 SCF Done:  E(RB3LYP) =  -784.413949979     A.U. after   12 cycles
 SCF Done:  E(RB3LYP) =  -784.413983921     A.U. after   11 cycles
 SCF Done:  E(RB3LYP) =  -784.413993119     A.U. after    9 cycles
 SCF Done:  E(RB3LYP) =  -784.413994562     A.U. after   10 cycles
 SCF Done:  E(RB3LYP) =  -784.413994778     A.U. after    8 cycles
 SCF Done:  E(RB3LYP) =  -784.413994916     A.U. after    8 cycles
 SCF Done:  E(RB3LYP) =  -784.413994959     A.U. after    7 cycles
 Optimization completed.
    -- Stationary point found.

                         Standard orientation:
 ---------------------------------------------------------------------
 Center     Atomic      Atomic             Coordinates (Angstroms)
 Number     Number       Type             X           Y           Z
 ---------------------------------------------------------------------
      1          6           0       -5.640303    0.299922   -0.154985
      2          6           0       -4.581714   -0.069938   -1.209491
      3          6           0       -3.193073   -0.276839   -0.628965
      4          6           0       -2.692908   -1.520816   -0.543788
      5          6           0       -1.345729   -1.991305   -0.036849
      6          6           0       -0.826440   -1.312274    1.241275
      7          7           0       -0.526234    0.103991    1.083826
      8          6           0        0.683020    0.542711    0.582816
      9          6           0        1.786978   -0.325472    0.391180
     10          6           0        2.988850    0.194191   -0.068339
     11          6           0        4.123432   -0.779391   -0.263985
     12          7           0        5.165705   -0.337505   -1.041050
     13          8           0        4.125779   -1.889180    0.252934
     14          6           0        3.089977    1.570799   -0.327142
     15          6           0        1.949230    2.339601   -0.124293
     16          7           0        0.777932    1.859632    0.298431
     17          6           0       -1.680724    0.998555    1.084221
     18          6           0       -2.472874    1.004642   -0.233115
     19          1           0       -5.750869   -0.504256    0.581029
     20          1           0       -6.616218    0.469001   -0.624586
     21          1           0       -5.372835    1.214028    0.388070
     22          1           0       -4.902801   -0.978326   -1.733088
     23          1           0       -4.541904    0.728120   -1.966031
     24          1           0       -3.327170   -2.322969   -0.923075
     25          1           0       -1.407004   -3.069466    0.160962
     26          1           0       -0.586579   -1.877928   -0.826582
     27          1           0       -1.583293   -1.398441    2.029693
     28          1           0        0.062035   -1.834455    1.606345
     29          1           0        1.740864   -1.388028    0.588071
     30          1           0        5.030254    0.415805   -1.699258
     31          1           0        5.859458   -1.033593   -1.279783
     32          1           0        4.017401    2.038252   -0.640046
     33          1           0        1.972857    3.411927   -0.316278
     34          1           0       -1.321820    2.007935    1.286291
     35          1           0       -2.333656    0.690906    1.909896
     36          1           0       -3.207418    1.817655   -0.164510
     37          1           0       -1.785692    1.298131   -1.040296
 ---------------------------------------------------------------------

 The electronic state is 1-A.
 Alpha  occ. eigenvalues --  -19.11483 -14.35913 -14.35110 -14.31900 -10.29281
 Alpha  occ. eigenvalues --  -10.25818 -10.22027 -10.21948 -10.21003 -10.20927
 Alpha  occ. eigenvalues --  -10.18851 -10.18851 -10.18829 -10.18703 -10.18381
 Alpha  occ. eigenvalues --  -10.18324 -10.17702 -10.17609  -1.03294  -0.96982
 Alpha  occ. eigenvalues --   -0.91131  -0.90515  -0.81591  -0.80556  -0.77642
 Alpha  occ. eigenvalues --   -0.76157  -0.73734  -0.68969  -0.66984  -0.65215
 Alpha  occ. eigenvalues --   -0.63424  -0.60721  -0.59543  -0.56821  -0.54606
 Alpha  occ. eigenvalues --   -0.51842  -0.50971  -0.49277  -0.48010  -0.47421
 Alpha  occ. eigenvalues --   -0.46248  -0.45387  -0.44180  -0.43128  -0.42660
 Alpha  occ. eigenvalues --   -0.42381  -0.41500  -0.41091  -0.40087  -0.39081
 Alpha  occ. eigenvalues --   -0.38413  -0.37445  -0.36974  -0.36806  -0.36072
 Alpha  occ. eigenvalues --   -0.35442  -0.35008  -0.33354  -0.31001  -0.29344
 Alpha  occ. eigenvalues --   -0.27687  -0.27304  -0.25677  -0.24963  -0.23425
 Alpha  occ. eigenvalues --   -0.19607
 Alpha virt. eigenvalues --   -0.04200   0.00475   0.02232   0.05916   0.07996
 Alpha virt. eigenvalues --    0.08822   0.10580   0.11300   0.12022   0.12417
 Alpha virt. eigenvalues --    0.13577   0.14123   0.14649   0.15279   0.15625

 Mulliken charges:
               1
     1  C   -0.441029
     2  C   -0.330300
     3  C    0.200123
     4  C   -0.199566
     5  C   -0.291422
     6  C   -0.156247
     7  N   -0.461671
     8  C    0.530265
     9  C   -0.235511
    10  C    0.105017
    11  C    0.537472
    12  N   -0.752653
    13  O   -0.501670
    14  C   -0.223947
    15  C    0.042536
    16  N   -0.513249
    17  C   -0.140582
    18  C   -0.342163
    19  H    0.148100
    20  H    0.144659
    21  H    0.144937
    22  H    0.139532
    23  H    0.138377
    24  H    0.117401
    25  H    0.140243
    26  H    0.159615
    27  H    0.149538
    28  H    0.161473
    29  H    0.165092
    30  H    0.335660
    31  H    0.341675
    32  H    0.125465
    33  H    0.135116
    34  H    0.180878
    35  H    0.138615
    36  H    0.139228
    37  H    0.168991
 Sum of Mulliken charges =  -0.00000

 Dipole moment (field-independent basis, Debye):
    X=             -0.4963    Y=              1.0160    Z=             -2.1971  Tot=              2.4710
 Quadrupole moment (field-independent basis, Debye-Ang):
   XX=            -95.3944   YY=           -108.6583   ZZ=           -104.7175
   XY=              8.8203   XZ=            -13.6165   YZ=             -0.8795

 Normal termination of Gaussian 16 at Fri Nov  4 18:25:38 2022.
