 Gaussian 16, Revision B.01,
 Gaussian 16:  ES64L-G16RevB.01 20-Dec-2017

 -------------------------------------------------------------------
 #p b3lyp/6-31g(d) 6D 10F nosymm GFInput td=(50-50,nstate=2) SCF=XQC
 -------------------------------------------------------------------

 ------------------------------
 Gaussian input prepared by ASE
 ------------------------------
 Symbolic Z-matrix:
 Charge =  0 Multiplicity = 1

                          Input orientation:
 ---------------------------------------------------------------------
 Center     Atomic      Atomic             Coordinates (Angstroms)
 Number     Number       Type             X           Y           Z
 ---------------------------------------------------------------------
      1          6           0       -0.777616    1.897402    3.685564
      2          6           0       -0.599305    2.205227    2.220081
      3          7           0        0.652649    2.163390    1.748551
      4          6           0        0.818278    2.529072    0.463153
      5          7           0        2.109516    2.572676   -0.007675
      6          6           0        3.245409    2.140847    0.785962
      7          6           0        3.375922    0.605428    0.929730
      8          7           0        4.280532    0.249026    2.013882
      9          6           0        5.630754    0.349115    1.822835
     10          8           0        6.155642    0.953626    0.901869
     11          8           0        6.289057   -0.304052    2.814337
     12          6           0        7.727189   -0.365729    2.708668
     13          6           0        8.191386   -1.772823    2.411427
     14          6           0        9.279813   -2.309373    3.106929
     15          6           0        9.754568   -3.588578    2.810785
     16          6           0        9.133567   -4.350138    1.820837
     17          6           0        8.039520   -3.824282    1.128831
     18          6           0        7.571769   -2.542789    1.417540
     19          6           0        3.782588   -0.158814   -0.350662
     20          8           0        4.228704   -1.286463   -0.317957
     21          8           0        3.542585    0.553460   -1.464703
     22          6           0        3.899875    0.036704   -2.808459
     23          6           0        3.069322   -1.211268   -3.121093
     24          6           0        5.407513   -0.223797   -2.877652
     25          6           0        3.507851    1.197317   -3.725871
     26          6           0       -0.257797    2.911804   -0.373103
     27          6           0        0.001548    3.529284   -1.723474
     28          6           0       -1.533994    2.785306    0.205231
     29          7           0       -2.697345    3.048482   -0.519974
     30          6           0       -2.938368    2.363476   -1.795996
     31          6           0       -3.709277    1.044609   -1.609534
     32          6           0       -5.036396    1.273588   -0.855022
     33          6           0       -5.815406   -0.013848   -0.646391
     34          7           0       -6.976677   -0.094520   -1.186951
     35          6           0       -7.793304   -1.291253   -0.971556
     36          7           0       -8.847949   -0.918701   -0.024806
     37          6           0       -9.991628   -1.835161   -0.073087
     38          6           0       -9.489746   -3.301572   -0.050639
     39          6           0       -8.056188   -3.372299    0.487585
     40          6           0       -7.093230   -2.582929   -0.437504
     41          6           0       -5.797172   -2.282329    0.260219
     42          6           0       -5.201884   -1.088500    0.161984
     43          6           0       -4.762399    2.021032    0.468420
     44          6           0       -3.943878    3.295348    0.215557
     45          7           0       -1.695761    2.469475    1.512460
     46          1           0       -1.838268    1.859665    3.940873
     47          1           0       -0.304884    0.941807    3.937545
     48          1           0       -0.288868    2.665959    4.296236
     49          1           0        2.230041    2.494106   -1.006039
     50          1           0        3.132115    2.544092    1.793114
     51          1           0        4.155971    2.549398    0.344549
     52          1           0        2.387459    0.233979    1.220312
     53          1           0        3.982839   -0.461699    2.667552
     54          1           0        8.120417   -0.022269    3.669838
     55          1           0        8.037850    0.333962    1.927562
     56          1           0        9.759776   -1.723150    3.887929
     57          1           0       10.601194   -3.991411    3.360587
     58          1           0        9.495698   -5.349060    1.592320
     59          1           0        7.547748   -4.414070    0.359663
     60          1           0        6.717256   -2.147009    0.875140
     61          1           0        3.333182   -2.036706   -2.458456
     62          1           0        3.251467   -1.519883   -4.156695
     63          1           0        2.000002   -0.997368   -3.014529
     64          1           0        5.690890   -0.437771   -3.914435
     65          1           0        5.694011   -1.070696   -2.253276
     66          1           0        5.961867    0.658814   -2.542885
     67          1           0        3.724253    0.940963   -4.768087
     68          1           0        2.437135    1.415671   -3.644183
     69          1           0        4.070569    2.101310   -3.470632
     70          1           0        0.888880    4.172993   -1.678978
     71          1           0       -0.843742    4.152857   -2.027904
     72          1           0        0.175962    2.796476   -2.526581
     73          1           0       -3.515807    3.038118   -2.444408
     74          1           0       -1.989800    2.167296   -2.295497
     75          1           0       -3.908548    0.599251   -2.593094
     76          1           0       -3.073335    0.339238   -1.058212
     77          1           0       -5.678404    1.906637   -1.481319
     78          1           0       -8.217322   -1.523989   -1.966239
     79          1           0       -9.135083    0.037044   -0.226425
     80          1           0      -10.630487   -1.683820   -0.963200
     81          1           0      -10.614339   -1.632750    0.806873
     82          1           0       -9.508921   -3.720549   -1.065600
     83          1           0      -10.163814   -3.921754    0.551007
     84          1           0       -8.022965   -2.943804    1.495435
     85          1           0       -7.719936   -4.413886    0.565628
     86          1           0       -6.864464   -3.224234   -1.304322
     87          1           0       -5.349721   -3.079162    0.854088
     88          1           0       -4.261668   -0.888133    0.667318
     89          1           0       -5.712965    2.283278    0.950175
     90          1           0       -4.201835    1.390082    1.166971
     91          1           0       -4.535593    3.998660   -0.388974
     92          1           0       -3.696046    3.781995    1.158929
 ---------------------------------------------------------------------

 SCF Done:  E(RB3LYP) =  -2008.11799097     A.U. after   14 cycles

 Excitation energies and oscillator strengths:

 Excited state symmetry could not be determined.
 Excited State   1:      Triplet-?Sym    2.8457 eV  435.69 nm  f=0.0000  <S**2>=2.000
     161 ->167         0.61114
     162 ->167         0.12727
     163 ->167         0.17437
     165 ->167         0.26254
     161 <-167         0.11188
 This state for optimization and/or second-order correction.
 Total Energy, E(TD-HF/TD-DFT) =  -2008.01341388
 Copying the excited state density for this state as the 1-particle RhoCI density.

 Excited state symmetry could not be determined.
 Excited State   2:      Triplet-?Sym    3.4722 eV  357.08 nm  f=0.0000  <S**2>=2.000
     163 ->167         0.60671
     164 ->167         0.11089
     165 ->167        -0.25145
     166 ->167        -0.17065

 Excited state symmetry could not be determined.
 Excited State   3:      Singlet-?Sym    3.8175 eV  324.78 nm  f=0.0085  <S**2>=0.000
     163 ->167        -0.18785
     165 ->167         0.66450
     166 ->167         0.13811

 Excited state symmetry could not be determined.
 Excited State   4:      Singlet-?Sym    3.9454 eV  314.25 nm  f=0.0025  <S**2>=0.000
     163 ->167        -0.19812
     164 ->167        -0.12702
     165 ->167        -0.19450
     166 ->167         0.63264

 Alpha  occ. eigenvalues --  -19.19429 -19.18526 -19.13742 -19.12219 -14.36145
 Alpha  occ. eigenvalues --  -14.34820 -14.34257 -14.30848 -14.30654 -14.30591
 Alpha  occ. eigenvalues --  -14.30511 -10.33187 -10.31959 -10.26535 -10.25540
 Alpha  occ. eigenvalues --  -10.25193 -10.24370 -10.24055 -10.24016 -10.22876
 Alpha  occ. eigenvalues --  -10.22428 -10.21838 -10.21503 -10.20557 -10.20302
 Alpha  occ. eigenvalues --  -10.19667 -10.19373 -10.19027 -10.19010 -10.18822
 Alpha  occ. eigenvalues --  -10.18753 -10.18689 -10.18644 -10.18592 -10.18573
 Alpha  occ. eigenvalues --  -10.18543 -10.18525 -10.18494 -10.18271 -10.18238
 Alpha  occ. eigenvalues --  -10.18186 -10.18143 -10.17742 -10.17572 -10.17042
 Alpha  occ. eigenvalues --   -1.10279  -1.09787  -1.01815  -1.00939  -0.98189
 Alpha  occ. eigenvalues --   -0.94982  -0.93429  -0.93143  -0.91608  -0.88000
 Alpha  occ. eigenvalues --   -0.85060  -0.84813  -0.82064  -0.80637  -0.80443
 Alpha  occ. eigenvalues --   -0.78865  -0.77456  -0.75789  -0.75579  -0.74905
 Alpha  occ. eigenvalues --   -0.73935  -0.73714  -0.73162  -0.70260  -0.69761
 Alpha  occ. eigenvalues --   -0.69490  -0.68331  -0.67327  -0.65301  -0.63791
 Alpha  occ. eigenvalues --   -0.63290  -0.63206  -0.62722  -0.60966  -0.60470
 Alpha  occ. eigenvalues --   -0.60119  -0.59011  -0.58509  -0.57591  -0.55985
 Alpha  occ. eigenvalues --   -0.55297  -0.54491  -0.53265  -0.52507  -0.51775
 Alpha  occ. eigenvalues --   -0.51261  -0.51101  -0.50240  -0.49554  -0.49332
 Alpha  occ. eigenvalues --   -0.48812  -0.47896  -0.47424  -0.47190  -0.46637
 Alpha  occ. eigenvalues --   -0.46079  -0.45557  -0.45464  -0.45116  -0.45050
 Alpha  occ. eigenvalues --   -0.44753  -0.44405  -0.43865  -0.43405  -0.42998
 Alpha  occ. eigenvalues --   -0.42902  -0.42237  -0.42058  -0.41921  -0.41746
 Alpha  occ. eigenvalues --   -0.41575  -0.41512  -0.41317  -0.41093  -0.40336
 Alpha  occ. eigenvalues --   -0.40263  -0.40206  -0.39822  -0.39757  -0.39119
 Alpha  occ. eigenvalues --   -0.38891  -0.38808  -0.38336  -0.38100  -0.38032
 Alpha  occ. eigenvalues --   -0.37846  -0.37540  -0.37356  -0.37083  -0.36844
 Alpha  occ. eigenvalues --   -0.35915  -0.35812  -0.35217  -0.35094  -0.34906
 Alpha  occ. eigenvalues --   -0.34493  -0.34185  -0.33971  -0.33750  -0.33627
 Alpha  occ. eigenvalues --   -0.33503  -0.32781  -0.32296  -0.31811  -0.31013
 Alpha  occ. eigenvalues --   -0.30266  -0.30159  -0.29354  -0.28190  -0.27979
 Alpha  occ. eigenvalues --   -0.27608  -0.27294  -0.26035  -0.24556  -0.23948
 Alpha  occ. eigenvalues --   -0.23687  -0.23637  -0.23475  -0.21900  -0.21001
 Alpha  occ. eigenvalues --   -0.20031
 Alpha virt. eigenvalues --   -0.03596  -0.00311  -0.00131   0.00371   0.00586
 Alpha virt. eigenvalues --    0.01164   0.05013   0.05736   0.07873   0.08425
 Alpha virt. eigenvalues --    0.08480   0.08653   0.09580   0.09891   0.10098

 Mulliken charges:
               1
     1  C   -0.503800
     2  C    0.429921
     3  N   -0.553257
     4  C    0.481556
     5  N   -0.651073
     6  C   -0.123828
     7  C   -0.070814
     8  N   -0.608878
     9  C    0.814348
    10  O   -0.526034
    11  O   -0.493594
    12  C   -0.138443
    13  C    0.159252
    14  C   -0.187520
    15  C   -0.127613
    16  C   -0.128243
    17  C   -0.132518
    18  C   -0.189576
    19  C    0.672797
    20  O   -0.494103
    21  O   -0.510272
    22  C    0.307091
    23  C   -0.464573
    24  C   -0.466337
    25  C   -0.462800
    26  C    0.087127
    27  C   -0.568536
    28  C    0.434046
    29  N   -0.465324
    30  C   -0.161900
    31  C   -0.271354
    32  C   -0.158580
    33  C    0.320607
    34  N   -0.490954
    35  C    0.151495
    36  N   -0.564882
    37  C   -0.114812
    38  C   -0.291337
    39  C   -0.262557
    40  C   -0.128003
    41  C   -0.095652
    42  C   -0.153660
    43  C   -0.279146
    44  C   -0.135129
    45  N   -0.540834
    46  H    0.164061
    47  H    0.158334
    48  H    0.166211
    49  H    0.338137
    50  H    0.183867
    51  H    0.178491
    52  H    0.193069
    53  H    0.345600
    54  H    0.154173
    55  H    0.197080
    56  H    0.122933
    57  H    0.128606
    58  H    0.127956
    59  H    0.131950
    60  H    0.165661
    61  H    0.188081
    62  H    0.146553
    63  H    0.145541
    64  H    0.142211
    65  H    0.188024
    66  H    0.166532
    67  H    0.153361
    68  H    0.149294
    69  H    0.159019
    70  H    0.163186
    71  H    0.179813
    72  H    0.150337
    73  H    0.142761
    74  H    0.156089
    75  H    0.142113
    76  H    0.142182
    77  H    0.138023
    78  H    0.112667
    79  H    0.303750
    80  H    0.115532
    81  H    0.139321
    82  H    0.135969
    83  H    0.140351
    84  H    0.157778
    85  H    0.128273
    86  H    0.136624
    87  H    0.133196
    88  H    0.135209
    89  H    0.141875
    90  H    0.162648
    91  H    0.133929
    92  H    0.171322
 Sum of Mulliken charges =  -0.00000

 Dipole moment (field-independent basis, Debye):
    X=             -0.4169    Y=             -1.6621    Z=             -2.4025  Tot=              2.9510
 Quadrupole moment (field-independent basis, Debye-Ang):
   XX=           -263.2180   YY=           -261.2170   ZZ=           -252.8022
   XY=              4.5879   XZ=              0.7165   YZ=             -4.6140

 Normal termination of Gaussian 16 at Sat Nov  5 11:39:16 2022.
