 Gaussian 16, Revision B.01,
 Gaussian 16:  ES64L-G16RevB.01 20-Dec-2017

 -----------------------------
 #p b3lyp/6-31g(d) opt SCF=XQC
 -----------------------------

 ------------------------------
 Gaussian input prepared by ASE
 ------------------------------
 Symbolic Z-matrix:
 Charge =  0 Multiplicity = 1

 SCF Done:  E(RB3LYP) =  -2008.10303036     A.U. after   14 cycles
 SCF Done:  E(RB3LYP) =  -2008.11467359     A.U. after   14 cycles
 SCF Done:  E(RB3LYP) =  -2008.11591238     A.U. after   12 cycles
 SCF Done:  E(RB3LYP) =  -2008.11623919     A.U. after   12 cycles
 SCF Done:  E(RB3LYP) =  -2008.11740083     A.U. after   12 cycles
 SCF Done:  E(RB3LYP) =  -2008.11760397     A.U. after   12 cycles
 SCF Done:  E(RB3LYP) =  -2008.11771408     A.U. after   12 cycles
 SCF Done:  E(RB3LYP) =  -2008.11783948     A.U. after   10 cycles
 SCF Done:  E(RB3LYP) =  -2008.11790412     A.U. after   11 cycles
 SCF Done:  E(RB3LYP) =  -2008.11793628     A.U. after   10 cycles
 SCF Done:  E(RB3LYP) =  -2008.11799444     A.U. after    9 cycles
 SCF Done:  E(RB3LYP) =  -2008.11799681     A.U. after    9 cycles
 SCF Done:  E(RB3LYP) =  -2008.11799966     A.U. after    9 cycles
 SCF Done:  E(RB3LYP) =  -2008.11800116     A.U. after    9 cycles
 SCF Done:  E(RB3LYP) =  -2008.11800148     A.U. after    8 cycles
 SCF Done:  E(RB3LYP) =  -2008.11800173     A.U. after    7 cycles
 SCF Done:  E(RB3LYP) =  -2008.11800214     A.U. after    8 cycles
 SCF Done:  E(RB3LYP) =  -2008.11800234     A.U. after    8 cycles
 SCF Done:  E(RB3LYP) =  -2008.11800244     A.U. after    8 cycles
 SCF Done:  E(RB3LYP) =  -2008.11800249     A.U. after    7 cycles
 Optimization completed.
    -- Stationary point found.

                         Standard orientation:
 ---------------------------------------------------------------------
 Center     Atomic      Atomic             Coordinates (Angstroms)
 Number     Number       Type             X           Y           Z
 ---------------------------------------------------------------------
      1          6           0       -0.834876   -0.769042   -3.930024
      2          6           0       -0.820768   -1.454822   -2.587005
      3          7           0        0.377496   -1.625542   -2.015608
      4          6           0        0.394537   -2.319933   -0.861947
      5          7           0        1.627889   -2.575644   -0.310284
      6          6           0        2.857464   -2.037299   -0.862478
      7          6           0        3.074029   -0.529929   -0.586525
      8          7           0        4.099676    0.026935   -1.457546
      9          6           0        5.417350   -0.215618   -1.184565
     10          8           0        5.817105   -1.072436   -0.413088
     11          8           0        6.202812    0.621179   -1.909745
     12          6           0        7.624119    0.550141   -1.668842
     13          6           0        8.121518    1.796617   -0.974120
     14          6           0        9.298904    2.414105   -1.408575
     15          6           0        9.800885    3.536844   -0.747566
     16          6           0        9.119257    4.061278    0.350599
     17          6           0        7.937145    3.455398    0.784018
     18          6           0        7.441263    2.328041    0.130156
     19          6           0        3.384302   -0.151338    0.879506
     20          8           0        3.884031    0.911827    1.182217
     21          8           0        2.999311   -1.106626    1.742772
     22          6           0        3.242441   -0.979282    3.200526
     23          6           0        2.444153    0.202924    3.757406
     24          6           0        4.745878   -0.854323    3.464502
     25          6           0        2.705209   -2.305266    3.744123
     26          6           0       -0.777604   -2.826201   -0.250782
     27          6           0       -0.685879   -3.786692    0.907271
     28          6           0       -1.981205   -2.464074   -0.882731
     29          7           0       -3.223187   -2.820327   -0.354399
     30          6           0       -3.559829   -2.470436    1.031172
     31          6           0       -4.244903   -1.096037    1.132065
     32          6           0       -5.497981   -1.027623    0.233132
     33          6           0       -6.190337    0.322757    0.303775
     34          7           0       -7.395341    0.345165    0.745056
     35          6           0       -8.128662    1.612566    0.782172
     36          7           0       -9.098242    1.572384   -0.315876
     37          6           0      -10.196497    2.525459   -0.126892
     38          6           0       -9.626443    3.908480    0.279359
     39          6           0       -8.143967    4.011823   -0.096625
     40          6           0       -7.318011    2.944297    0.667813
     41          6           0       -5.973485    2.740591    0.029302
     42          6           0       -5.448098    1.521978   -0.138614
     43          6           0       -5.126703   -1.427886   -1.211579
     44          6           0       -4.398950   -2.779817   -1.232881
     45          7           0       -1.994542   -1.812401   -2.070127
     46          1           0       -1.861216   -0.590895   -4.256337
     47          1           0       -0.294566    0.182687   -3.880942
     48          1           0       -0.323459   -1.388100   -4.676814
     49          1           0        1.650129   -2.764924    0.680225
     50          1           0        2.828015   -2.159203   -1.946023
     51          1           0        3.698325   -2.609836   -0.467464
     52          1           0        2.138714   -0.026281   -0.852978
     53          1           0        3.903591    0.901163   -1.924783
     54          1           0        8.096168    0.437652   -2.649126
     55          1           0        7.820689   -0.347105   -1.075114
     56          1           0        9.827447    2.015146   -2.271973
     57          1           0       10.716918    4.005422   -1.097782
     58          1           0        9.502980    4.939339    0.863406
     59          1           0        7.398234    3.861680    1.635970
     60          1           0        6.518475    1.868729    0.474433
     61          1           0        2.812412    1.149660    3.359745
     62          1           0        2.534682    0.221371    4.849356
     63          1           0        1.382270    0.100975    3.507277
     64          1           0        4.932430   -0.934668    4.541419
     65          1           0        5.133764    0.101647    3.111185
     66          1           0        5.289145   -1.658863    2.958581
     67          1           0        2.826650   -2.341349    4.831648
     68          1           0        1.639207   -2.417796    3.516613
     69          1           0        3.247717   -3.151436    3.309745
     70          1           0        0.170096   -4.459440    0.771554
     71          1           0       -1.586097   -4.405112    0.963833
     72          1           0       -0.559486   -3.299156    1.886424
     73          1           0       -4.231158   -3.245648    1.427884
     74          1           0       -2.658617   -2.477780    1.643979
     75          1           0       -4.521684   -0.905025    2.177221
     76          1           0       -3.523836   -0.320343    0.841745
     77          1           0       -6.229273   -1.752429    0.613975
     78          1           0       -8.639920    1.611948    1.762971
     79          1           0       -9.449019    0.620104   -0.397507
     80          1           0      -10.928731    2.196957    0.634205
     81          1           0      -10.735612    2.601068   -1.079103
     82          1           0       -9.728682    4.053061    1.363194
     83          1           0      -10.206081    4.709133   -0.193870
     84          1           0       -8.028937    3.855233   -1.174921
     85          1           0       -7.752869    5.011577    0.130515
     86          1           0       -7.148375    3.323378    1.688843
     87          1           0       -5.431107    3.628907   -0.294050
     88          1           0       -4.471972    1.391049   -0.596381
     89          1           0       -6.034810   -1.488629   -1.824839
     90          1           0       -4.469117   -0.680697   -1.669393
     91          1           0       -5.081367   -3.570368   -0.887092
     92          1           0       -4.079931   -3.024432   -2.246089
 ---------------------------------------------------------------------

 The electronic state is 1-A.
 Alpha  occ. eigenvalues --  -19.19429 -19.18526 -19.13742 -19.12220 -14.36145
 Alpha  occ. eigenvalues --  -14.34820 -14.34257 -14.30848 -14.30654 -14.30591
 Alpha  occ. eigenvalues --  -14.30511 -10.33187 -10.31959 -10.26535 -10.25540
 Alpha  occ. eigenvalues --  -10.25193 -10.24370 -10.24055 -10.24016 -10.22876
 Alpha  occ. eigenvalues --  -10.22428 -10.21838 -10.21503 -10.20557 -10.20302
 Alpha  occ. eigenvalues --  -10.19667 -10.19373 -10.19027 -10.19010 -10.18822
 Alpha  occ. eigenvalues --  -10.18753 -10.18689 -10.18644 -10.18592 -10.18573
 Alpha  occ. eigenvalues --  -10.18543 -10.18525 -10.18494 -10.18271 -10.18238
 Alpha  occ. eigenvalues --  -10.18186 -10.18143 -10.17742 -10.17572 -10.17042
 Alpha  occ. eigenvalues --   -1.10279  -1.09787  -1.01815  -1.00939  -0.98189
 Alpha  occ. eigenvalues --   -0.94982  -0.93429  -0.93143  -0.91608  -0.88000
 Alpha  occ. eigenvalues --   -0.85060  -0.84813  -0.82064  -0.80637  -0.80443
 Alpha  occ. eigenvalues --   -0.78865  -0.77456  -0.75789  -0.75579  -0.74905
 Alpha  occ. eigenvalues --   -0.73935  -0.73714  -0.73162  -0.70260  -0.69761
 Alpha  occ. eigenvalues --   -0.69490  -0.68331  -0.67327  -0.65301  -0.63791
 Alpha  occ. eigenvalues --   -0.63290  -0.63206  -0.62722  -0.60966  -0.60470
 Alpha  occ. eigenvalues --   -0.60119  -0.59011  -0.58509  -0.57591  -0.55985
 Alpha  occ. eigenvalues --   -0.55297  -0.54491  -0.53265  -0.52508  -0.51775
 Alpha  occ. eigenvalues --   -0.51261  -0.51101  -0.50240  -0.49554  -0.49332
 Alpha  occ. eigenvalues --   -0.48812  -0.47896  -0.47424  -0.47190  -0.46637
 Alpha  occ. eigenvalues --   -0.46079  -0.45557  -0.45465  -0.45116  -0.45050
 Alpha  occ. eigenvalues --   -0.44753  -0.44405  -0.43866  -0.43405  -0.42998
 Alpha  occ. eigenvalues --   -0.42902  -0.42237  -0.42058  -0.41921  -0.41746
 Alpha  occ. eigenvalues --   -0.41575  -0.41512  -0.41317  -0.41093  -0.40336
 Alpha  occ. eigenvalues --   -0.40263  -0.40206  -0.39822  -0.39757  -0.39119
 Alpha  occ. eigenvalues --   -0.38891  -0.38808  -0.38336  -0.38100  -0.38032
 Alpha  occ. eigenvalues --   -0.37846  -0.37540  -0.37356  -0.37083  -0.36844
 Alpha  occ. eigenvalues --   -0.35915  -0.35812  -0.35217  -0.35094  -0.34906
 Alpha  occ. eigenvalues --   -0.34493  -0.34185  -0.33971  -0.33750  -0.33627
 Alpha  occ. eigenvalues --   -0.33503  -0.32781  -0.32296  -0.31811  -0.31013
 Alpha  occ. eigenvalues --   -0.30266  -0.30159  -0.29354  -0.28190  -0.27979
 Alpha  occ. eigenvalues --   -0.27608  -0.27294  -0.26036  -0.24556  -0.23948
 Alpha  occ. eigenvalues --   -0.23687  -0.23637  -0.23475  -0.21900  -0.21001
 Alpha  occ. eigenvalues --   -0.20031
 Alpha virt. eigenvalues --   -0.03596  -0.00311  -0.00131   0.00371   0.00585
 Alpha virt. eigenvalues --    0.01164   0.05013   0.05736   0.07873   0.08425
 Alpha virt. eigenvalues --    0.08480   0.08653   0.09580   0.09891   0.10098

 Mulliken charges:
               1
     1  C   -0.503808
     2  C    0.429970
     3  N   -0.553289
     4  C    0.481603
     5  N   -0.651067
     6  C   -0.123838
     7  C   -0.070822
     8  N   -0.608881
     9  C    0.814365
    10  O   -0.526045
    11  O   -0.493594
    12  C   -0.138441
    13  C    0.159241
    14  C   -0.187518
    15  C   -0.127600
    16  C   -0.128261
    17  C   -0.132504
    18  C   -0.189578
    19  C    0.672786
    20  O   -0.494098
    21  O   -0.510264
    22  C    0.307079
    23  C   -0.464568
    24  C   -0.466336
    25  C   -0.462788
    26  C    0.087070
    27  C   -0.568527
    28  C    0.434064
    29  N   -0.465343
    30  C   -0.161899
    31  C   -0.271367
    32  C   -0.158587
    33  C    0.320596
    34  N   -0.490957
    35  C    0.151566
    36  N   -0.564884
    37  C   -0.114835
    38  C   -0.291341
    39  C   -0.262543
    40  C   -0.128044
    41  C   -0.095635
    42  C   -0.153671
    43  C   -0.279154
    44  C   -0.135113
    45  N   -0.540858
    46  H    0.164063
    47  H    0.158334
    48  H    0.166212
    49  H    0.338137
    50  H    0.183867
    51  H    0.178499
    52  H    0.193071
    53  H    0.345600
    54  H    0.154174
    55  H    0.197080
    56  H    0.122933
    57  H    0.128605
    58  H    0.127957
    59  H    0.131947
    60  H    0.165666
    61  H    0.188080
    62  H    0.146552
    63  H    0.145542
    64  H    0.142212
    65  H    0.188028
    66  H    0.166526
    67  H    0.153359
    68  H    0.149293
    69  H    0.159016
    70  H    0.163185
    71  H    0.179814
    72  H    0.150338
    73  H    0.142765
    74  H    0.156091
    75  H    0.142115
    76  H    0.142186
    77  H    0.138023
    78  H    0.112662
    79  H    0.303748
    80  H    0.115535
    81  H    0.139324
    82  H    0.135970
    83  H    0.140352
    84  H    0.157777
    85  H    0.128272
    86  H    0.136624
    87  H    0.133196
    88  H    0.135209
    89  H    0.141876
    90  H    0.162651
    91  H    0.133929
    92  H    0.171322
 Sum of Mulliken charges =  -0.00000

 Dipole moment (field-independent basis, Debye):
    X=             -0.5795    Y=              1.0151    Z=              2.7097  Tot=              2.9510
 Quadrupole moment (field-independent basis, Debye-Ang):
   XX=           -262.9461   YY=           -257.6633   ZZ=           -255.1512
   XY=             -3.7171   XZ=             -4.0109   YZ=             -5.9192

 Normal termination of Gaussian 16 at Fri Nov  4 20:03:10 2022.
