 Gaussian 16, Revision B.01,
 Gaussian 16:  ES64L-G16RevB.01 20-Dec-2017

 -------------------------------------------------------------------
 #p b3lyp/6-31g(d) 6D 10F nosymm GFInput td=(50-50,nstate=2) SCF=XQC
 -------------------------------------------------------------------

 ------------------------------
 Gaussian input prepared by ASE
 ------------------------------
 Symbolic Z-matrix:
 Charge =  0 Multiplicity = 1

                          Input orientation:
 ---------------------------------------------------------------------
 Center     Atomic      Atomic             Coordinates (Angstroms)
 Number     Number       Type             X           Y           Z
 ---------------------------------------------------------------------
      1          6           0        9.864764   -1.376861    1.906568
      2          6           0        8.633810   -1.246628    1.077301
      3          6           0        7.304287   -1.301511    1.359279
      4          6           0        6.689062   -1.094325    0.088104
      5          8           0        5.363281   -1.071374   -0.105138
      6          6           0        4.918676   -0.850875   -1.461529
      7          6           0        3.398132   -0.834826   -1.457861
      8          6           0        2.789623    0.323055   -0.656169
      9          6           0        1.255722    0.318271   -0.669397
     10          6           0        0.664209    1.495781    0.116042
     11          7           0       -0.788933    1.427363    0.263202
     12          6           0       -1.325159    2.296203    1.311035
     13          6           0       -2.441683    1.602457    2.114402
     14          6           0       -3.555281    0.919517    1.356442
     15          6           0       -3.767648    0.986555    0.025978
     16          6           0       -2.980200    1.868490   -0.920618
     17          6           0       -1.478919    1.551426   -1.026645
     18          7           0       -4.747981    0.190191   -0.629643
     19          6           0       -5.667000   -0.339765    0.078379
     20          8           0       -6.629736   -1.113921   -0.479961
     21          6           0       -6.550249   -1.283836   -1.889369
     22          6           0       -7.718708   -2.154997   -2.303741
     23          9           0       -7.679276   -3.365995   -1.717868
     24          9           0       -8.902432   -1.589638   -2.002623
     25          9           0       -7.674852   -2.339366   -3.642320
     26          6           0       -5.823475   -0.158043    1.563404
     27          6           0       -4.430014   -0.003538    2.184837
     28          7           0        7.562892   -0.928392   -0.882837
     29          8           0        8.815723   -1.026200   -0.244815
     30          1           0       10.473771   -0.467515    1.847988
     31          1           0        9.599833   -1.551808    2.952200
     32          1           0       10.483902   -2.211707    1.558835
     33          1           0        6.818375   -1.462556    2.309064
     34          1           0        5.314679   -1.651475   -2.097071
     35          1           0        5.335581    0.097939   -1.821227
     36          1           0        3.067205   -0.778733   -2.504296
     37          1           0        3.034936   -1.794202   -1.066050
     38          1           0        3.151589    0.270796    0.378458
     39          1           0        3.158385    1.275793   -1.064693
     40          1           0        0.877189   -0.615009   -0.231331
     41          1           0        0.906365    0.340914   -1.710070
     42          1           0        0.986207    2.445571   -0.362232
     43          1           0        1.100550    1.487975    1.122418
     44          1           0       -0.517552    2.527125    2.013951
     45          1           0       -1.665972    3.271420    0.924754
     46          1           0       -1.963296    0.831080    2.738768
     47          1           0       -2.869081    2.327571    2.827320
     48          1           0       -3.116668    2.920954   -0.646256
     49          1           0       -3.412522    1.757124   -1.919601
     50          1           0       -1.356234    0.610113   -1.575405
     51          1           0       -1.015032    2.344538   -1.648972
     52          1           0       -6.610535   -0.322109   -2.406981
     53          1           0       -5.613787   -1.770845   -2.176174
     54          1           0       -6.415561    0.754653    1.729804
     55          1           0       -6.384497   -0.991678    1.994366
     56          1           0       -4.523062    0.373423    3.210366
     57          1           0       -3.943403   -0.989924    2.267628
 ---------------------------------------------------------------------

 SCF Done:  E(RB3LYP) =  -1468.36632832     A.U. after   14 cycles

 Excitation energies and oscillator strengths:

 Excited state symmetry could not be determined.
 Excited State   1:      Triplet-?Sym    2.7928 eV  443.94 nm  f=0.0000  <S**2>=2.000
     109 ->111         0.50756
     110 ->111        -0.47873
 This state for optimization and/or second-order correction.
 Total Energy, E(TD-HF/TD-DFT) =  -1468.26369511
 Copying the excited state density for this state as the 1-particle RhoCI density.

 Excited state symmetry could not be determined.
 Excited State   2:      Singlet-?Sym    4.2993 eV  288.38 nm  f=0.0225  <S**2>=0.000
     109 ->111         0.24996
     110 ->111         0.65933

 Excited state symmetry could not be determined.
 Excited State   3:      Triplet-?Sym    4.3352 eV  286.00 nm  f=0.0000  <S**2>=2.000
     109 ->111         0.48268
     110 ->111         0.51306

 Excited state symmetry could not be determined.
 Excited State   4:      Singlet-?Sym    4.6999 eV  263.80 nm  f=0.1612  <S**2>=0.000
     109 ->111         0.65023
     110 ->111        -0.24357

 Alpha  occ. eigenvalues --  -24.72559 -24.72315 -24.72313 -19.22142 -19.20062
 Alpha  occ. eigenvalues --  -19.18582 -14.36005 -14.31888 -14.31697 -10.43181
 Alpha  occ. eigenvalues --  -10.28468 -10.27101 -10.26242 -10.25803 -10.23914
 Alpha  occ. eigenvalues --  -10.20822 -10.20744 -10.20480 -10.20474 -10.20429
 Alpha  occ. eigenvalues --  -10.20263 -10.19567 -10.18920 -10.18793 -10.18708
 Alpha  occ. eigenvalues --  -10.18454 -10.18179 -10.18128 -10.17820  -1.30245
 Alpha  occ. eigenvalues --   -1.21576  -1.21458  -1.12754  -1.09389  -1.07352
 Alpha  occ. eigenvalues --   -0.92862  -0.91483  -0.85298  -0.81125  -0.80667
 Alpha  occ. eigenvalues --   -0.80127  -0.79512  -0.77099  -0.75959  -0.74753
 Alpha  occ. eigenvalues --   -0.72388  -0.70215  -0.67356  -0.66385  -0.65910
 Alpha  occ. eigenvalues --   -0.62687  -0.61452  -0.60406  -0.59955  -0.58582
 Alpha  occ. eigenvalues --   -0.58478  -0.57210  -0.56078  -0.55713  -0.55616
 Alpha  occ. eigenvalues --   -0.52989  -0.51929  -0.49709  -0.49286  -0.48853
 Alpha  occ. eigenvalues --   -0.48235  -0.48075  -0.47409  -0.46760  -0.46313
 Alpha  occ. eigenvalues --   -0.45639  -0.45462  -0.45399  -0.44935  -0.43958
 Alpha  occ. eigenvalues --   -0.43115  -0.42129  -0.41884  -0.41829  -0.41632
 Alpha  occ. eigenvalues --   -0.41354  -0.41094  -0.40819  -0.40286  -0.39806
 Alpha  occ. eigenvalues --   -0.39793  -0.39464  -0.38373  -0.38001  -0.37726
 Alpha  occ. eigenvalues --   -0.37030  -0.36730  -0.36140  -0.36078  -0.35516
 Alpha  occ. eigenvalues --   -0.34796  -0.34647  -0.34296  -0.33909  -0.33043
 Alpha  occ. eigenvalues --   -0.32283  -0.32242  -0.31405  -0.30311  -0.29358
 Alpha  occ. eigenvalues --   -0.26365  -0.25414  -0.24371  -0.20921  -0.19925
 Alpha virt. eigenvalues --   -0.01709   0.00300   0.06361   0.07989   0.08573
 Alpha virt. eigenvalues --    0.08946   0.09428   0.09594   0.10307   0.11023
 Alpha virt. eigenvalues --    0.11249   0.11493   0.11867   0.12278   0.12524

 Mulliken charges:
               1
     1  C   -0.527514
     2  C    0.435878
     3  C   -0.312077
     4  C    0.562594
     5  O   -0.511925
     6  C   -0.040785
     7  C   -0.281756
     8  C   -0.260681
     9  C   -0.265523
    10  C   -0.112279
    11  N   -0.390663
    12  C   -0.140552
    13  C   -0.315525
    14  C    0.122674
    15  C    0.235536
    16  C   -0.377517
    17  C   -0.103102
    18  N   -0.543887
    19  C    0.553581
    20  O   -0.484213
    21  C   -0.125392
    22  C    0.800542
    23  F   -0.259460
    24  F   -0.259503
    25  F   -0.272035
    26  C   -0.350331
    27  C   -0.334602
    28  N   -0.256866
    29  O   -0.383165
    30  H    0.183864
    31  H    0.172389
    32  H    0.184131
    33  H    0.148073
    34  H    0.159098
    35  H    0.157625
    36  H    0.139445
    37  H    0.148329
    38  H    0.149968
    39  H    0.129711
    40  H    0.143101
    41  H    0.134838
    42  H    0.105268
    43  H    0.132276
    44  H    0.135312
    45  H    0.124632
    46  H    0.144634
    47  H    0.131735
    48  H    0.150660
    49  H    0.157113
    50  H    0.148080
    51  H    0.106528
    52  H    0.181653
    53  H    0.182996
    54  H    0.171460
    55  H    0.169941
    56  H    0.148533
    57  H    0.157153
 Sum of Mulliken charges =  -0.00000

 Dipole moment (field-independent basis, Debye):
    X=              1.2233    Y=              1.4325    Z=              3.4109  Tot=              3.8965
 Quadrupole moment (field-independent basis, Debye-Ang):
   XX=           -189.4173   YY=           -169.9138   ZZ=           -161.2503
   XY=            -13.8546   XZ=             10.4163   YZ=             -3.9810

 Normal termination of Gaussian 16 at Sat Nov  5 11:24:13 2022.
