 Gaussian 16, Revision B.01,
 Gaussian 16:  ES64L-G16RevB.01 20-Dec-2017

 -----------------------------
 #p b3lyp/6-31g(d) opt SCF=XQC
 -----------------------------

 ------------------------------
 Gaussian input prepared by ASE
 ------------------------------
 Symbolic Z-matrix:
 Charge =  0 Multiplicity = 1

 SCF Done:  E(RB3LYP) =  -1468.35836398     A.U. after   14 cycles
 SCF Done:  E(RB3LYP) =  -1468.36483937     A.U. after   11 cycles
 SCF Done:  E(RB3LYP) =  -1468.36586375     A.U. after   12 cycles
 SCF Done:  E(RB3LYP) =  -1468.36616764     A.U. after   11 cycles
 SCF Done:  E(RB3LYP) =  -1468.36626876     A.U. after   11 cycles
 SCF Done:  E(RB3LYP) =  -1468.36630444     A.U. after   10 cycles
 SCF Done:  E(RB3LYP) =  -1468.36632992     A.U. after   10 cycles
 SCF Done:  E(RB3LYP) =  -1468.36633197     A.U. after    9 cycles
 SCF Done:  E(RB3LYP) =  -1468.36633253     A.U. after    9 cycles
 SCF Done:  E(RB3LYP) =  -1468.36633270     A.U. after    7 cycles
 Optimization completed.
    -- Stationary point found.

                         Standard orientation:
 ---------------------------------------------------------------------
 Center     Atomic      Atomic             Coordinates (Angstroms)
 Number     Number       Type             X           Y           Z
 ---------------------------------------------------------------------
      1          6           0       10.605045   -0.001003    1.634949
      2          6           0        9.302814   -0.390217    1.024540
      3          6           0        8.005215   -0.141766    1.348053
      4          6           0        7.275137   -0.822966    0.328119
      5          8           0        5.937305   -0.845453    0.255550
      6          6           0        5.369202   -1.587734   -0.845525
      7          6           0        3.855895   -1.465966   -0.759496
      8          6           0        3.334832   -0.035007   -0.945321
      9          6           0        1.806472    0.061037   -0.856218
     10          6           0        1.300964    1.493791   -1.068371
     11          7           0       -0.132468    1.648478   -0.824848
     12          6           0       -0.560845    3.034844   -0.638148
     13          6           0       -1.602710    3.165382    0.489143
     14          6           0       -2.788092    2.229506    0.485046
     15          6           0       -3.123818    1.377762   -0.505686
     16          6           0       -2.421460    1.307939   -1.845740
     17          6           0       -0.939409    0.899681   -1.796099
     18          7           0       -4.167855    0.420916   -0.365976
     19          6           0       -5.020698    0.590199    0.567162
     20          8           0       -6.037905   -0.284932    0.760438
     21          6           0       -6.092428   -1.382809   -0.141402
     22          6           0       -7.301730   -2.214414    0.235350
     23          9           0       -7.217437   -2.688971    1.491937
     24          9           0       -8.447291   -1.515082    0.134701
     25          9           0       -7.385198   -3.271487   -0.603303
     26          6           0       -5.035627    1.754071    1.520046
     27          6           0       -3.588777    2.194498    1.773885
     28          7           0        8.055328   -1.432864   -0.539732
     29          8           0        9.361659   -1.153330   -0.090748
     30          1           0       11.213314    0.572459    0.926159
     31          1           0       10.437980    0.610652    2.524953
     32          1           0       11.181944   -0.887096    1.923472
     33          1           0        7.609270    0.429646    2.173193
     34          1           0        5.697229   -2.631272   -0.773960
     35          1           0        5.758289   -1.179296   -1.786391
     36          1           0        3.428701   -2.121843   -1.530868
     37          1           0        3.523205   -1.863746    0.208449
     38          1           0        3.791850    0.613320   -0.187027
     39          1           0        3.671440    0.346088   -1.921051
     40          1           0        1.463067   -0.284990    0.127926
     41          1           0        1.361195   -0.613735   -1.599169
     42          1           0        1.584448    1.828088   -2.089357
     43          1           0        1.829742    2.149529   -0.365768
     44          1           0        0.311030    3.628000   -0.342098
     45          1           0       -0.928384    3.497714   -1.569319
     46          1           0       -1.074193    3.003791    1.442173
     47          1           0       -1.955352    4.209838    0.527415
     48          1           0       -2.522933    2.266587   -2.367539
     49          1           0       -2.946521    0.570916   -2.460866
     50          1           0       -0.876495   -0.166454   -1.547793
     51          1           0       -0.529473    1.011663   -2.821244
     52          1           0       -6.193123   -1.039884   -1.175200
     53          1           0       -5.191044   -1.998193   -0.069263
     54          1           0       -5.601971    2.569748    1.045501
     55          1           0       -5.560556    1.488058    2.441517
     56          1           0       -3.582078    3.178831    2.257114
     57          1           0       -3.104660    1.504471    2.485290
 ---------------------------------------------------------------------

 The electronic state is 1-A.
 Alpha  occ. eigenvalues --  -24.72559 -24.72315 -24.72313 -19.22142 -19.20062
 Alpha  occ. eigenvalues --  -19.18582 -14.36005 -14.31888 -14.31697 -10.43181
 Alpha  occ. eigenvalues --  -10.28468 -10.27101 -10.26242 -10.25803 -10.23914
 Alpha  occ. eigenvalues --  -10.20822 -10.20744 -10.20480 -10.20474 -10.20429
 Alpha  occ. eigenvalues --  -10.20263 -10.19567 -10.18920 -10.18793 -10.18708
 Alpha  occ. eigenvalues --  -10.18454 -10.18179 -10.18128 -10.17820  -1.30245
 Alpha  occ. eigenvalues --   -1.21576  -1.21458  -1.12754  -1.09389  -1.07352
 Alpha  occ. eigenvalues --   -0.92862  -0.91483  -0.85298  -0.81125  -0.80667
 Alpha  occ. eigenvalues --   -0.80127  -0.79512  -0.77099  -0.75959  -0.74753
 Alpha  occ. eigenvalues --   -0.72388  -0.70215  -0.67356  -0.66385  -0.65910
 Alpha  occ. eigenvalues --   -0.62687  -0.61452  -0.60406  -0.59955  -0.58582
 Alpha  occ. eigenvalues --   -0.58478  -0.57210  -0.56078  -0.55713  -0.55616
 Alpha  occ. eigenvalues --   -0.52989  -0.51929  -0.49709  -0.49286  -0.48853
 Alpha  occ. eigenvalues --   -0.48235  -0.48075  -0.47409  -0.46760  -0.46313
 Alpha  occ. eigenvalues --   -0.45639  -0.45462  -0.45399  -0.44935  -0.43958
 Alpha  occ. eigenvalues --   -0.43115  -0.42129  -0.41884  -0.41829  -0.41632
 Alpha  occ. eigenvalues --   -0.41354  -0.41094  -0.40819  -0.40286  -0.39806
 Alpha  occ. eigenvalues --   -0.39793  -0.39464  -0.38373  -0.38001  -0.37726
 Alpha  occ. eigenvalues --   -0.37030  -0.36730  -0.36140  -0.36078  -0.35516
 Alpha  occ. eigenvalues --   -0.34796  -0.34647  -0.34296  -0.33909  -0.33043
 Alpha  occ. eigenvalues --   -0.32283  -0.32242  -0.31405  -0.30312  -0.29358
 Alpha  occ. eigenvalues --   -0.26365  -0.25414  -0.24371  -0.20921  -0.19925
 Alpha virt. eigenvalues --   -0.01709   0.00300   0.06361   0.07989   0.08573
 Alpha virt. eigenvalues --    0.08945   0.09428   0.09593   0.10307   0.11023
 Alpha virt. eigenvalues --    0.11249   0.11493   0.11867   0.12278   0.12524

 Mulliken charges:
               1
     1  C   -0.527512
     2  C    0.435878
     3  C   -0.312070
     4  C    0.562578
     5  O   -0.511926
     6  C   -0.040777
     7  C   -0.281761
     8  C   -0.260680
     9  C   -0.265537
    10  C   -0.112276
    11  N   -0.390662
    12  C   -0.140559
    13  C   -0.315508
    14  C    0.122668
    15  C    0.235522
    16  C   -0.377520
    17  C   -0.103107
    18  N   -0.543877
    19  C    0.553572
    20  O   -0.484206
    21  C   -0.125388
    22  C    0.800542
    23  F   -0.259461
    24  F   -0.259504
    25  F   -0.272034
    26  C   -0.350319
    27  C   -0.334604
    28  N   -0.256859
    29  O   -0.383166
    30  H    0.183864
    31  H    0.172389
    32  H    0.184130
    33  H    0.148074
    34  H    0.159098
    35  H    0.157624
    36  H    0.139445
    37  H    0.148330
    38  H    0.149970
    39  H    0.129712
    40  H    0.143105
    41  H    0.134841
    42  H    0.105269
    43  H    0.132278
    44  H    0.135311
    45  H    0.124633
    46  H    0.144634
    47  H    0.131733
    48  H    0.150661
    49  H    0.157113
    50  H    0.148080
    51  H    0.106530
    52  H    0.181649
    53  H    0.182997
    54  H    0.171458
    55  H    0.169938
    56  H    0.148533
    57  H    0.157153
 Sum of Mulliken charges =  -0.00000

 Dipole moment (field-independent basis, Debye):
    X=              1.5498    Y=              3.2944    Z=              1.3884  Tot=              3.8965
 Quadrupole moment (field-independent basis, Debye-Ang):
   XX=           -185.5435   YY=           -166.9589   ZZ=           -163.8731
   XY=              1.3713   XZ=             19.7116   YZ=              3.2717

 Normal termination of Gaussian 16 at Fri Nov  4 18:30:02 2022.
