 Gaussian 16, Revision B.01,
 Gaussian 16:  ES64L-G16RevB.01 20-Dec-2017

 -------------------------------------------------------------------
 #p b3lyp/6-31g(d) 6D 10F nosymm GFInput td=(50-50,nstate=2) SCF=XQC
 -------------------------------------------------------------------

 ------------------------------
 Gaussian input prepared by ASE
 ------------------------------
 Symbolic Z-matrix:
 Charge =  0 Multiplicity = 1

                          Input orientation:
 ---------------------------------------------------------------------
 Center     Atomic      Atomic             Coordinates (Angstroms)
 Number     Number       Type             X           Y           Z
 ---------------------------------------------------------------------
      1          6           0       -3.383851   -2.479159   -0.733131
      2          7           0       -3.097911   -1.049811   -0.899483
      3          6           0       -3.398284   -0.174491    0.249403
      4          7           0       -4.832500   -0.323880    0.645477
      5          6           0       -5.212423    0.210345    1.948387
      6          6           0       -5.784304    0.119223   -0.368842
      7          6           0       -3.026259    1.281911   -0.179482
      8          6           0       -1.596564    1.710607    0.216369
      9          6           0       -0.561826    0.567483    0.119168
     10          6           0       -0.984709   -0.585764    1.064785
     11          6           0       -2.484045   -0.575782    1.429374
     12          6           0        0.872755    1.093536    0.390712
     13          7           0        1.330301    1.480544   -0.936883
     14          6           0        2.689590    1.942177   -1.190334
     15          6           0        3.779904    0.943636   -0.840512
     16          6           0        3.951758   -0.222931   -1.608172
     17          6           0        4.939271   -1.145281   -1.293408
     18          6           0        5.789679   -0.925797   -0.197619
     19          8           0        6.730406   -1.892710    0.024622
     20          6           0        7.624934   -1.718215    1.109751
     21          6           0        5.635066    0.228027    0.576006
     22          6           0        4.631430    1.146202    0.245373
     23          6           0        0.649533    0.737553   -1.904662
     24          8           0        0.939195    0.665164   -3.093044
     25          7           0       -0.385003    0.106259   -1.258203
     26          1           0       -3.275741   -2.967334   -1.706689
     27          1           0       -4.387371   -2.682177   -0.335836
     28          1           0       -2.649970   -2.932711   -0.059249
     29          1           0       -3.603381   -0.704819   -1.711993
     30          1           0       -4.659470   -0.277553    2.753389
     31          1           0       -5.076465    1.305452    2.047517
     32          1           0       -6.275118    0.000656    2.112597
     33          1           0       -6.788360   -0.210998   -0.081116
     34          1           0       -5.822206    1.215707   -0.507865
     35          1           0       -5.563023   -0.336987   -1.338038
     36          1           0       -3.156881    1.382168   -1.263819
     37          1           0       -3.733772    1.984541    0.276332
     38          1           0       -1.269968    2.551728   -0.405642
     39          1           0       -1.599136    2.072157    1.254157
     40          1           0       -0.411088   -0.519117    1.998861
     41          1           0       -0.701265   -1.530716    0.592085
     42          1           0       -2.639030    0.142819    2.240001
     43          1           0       -2.783884   -1.552328    1.824886
     44          1           0        0.873398    1.945758    1.081272
     45          1           0        1.506298    0.301039    0.820189
     46          1           0        2.721511    2.182568   -2.257072
     47          1           0        2.846872    2.873230   -0.631399
     48          1           0        3.299890   -0.395554   -2.460491
     49          1           0        5.080112   -2.044686   -1.885188
     50          1           0        8.282630   -2.589581    1.100220
     51          1           0        8.228678   -0.807821    0.994794
     52          1           0        7.093878   -1.676552    2.070484
     53          1           0        6.278813    0.424024    1.426103
     54          1           0        4.522536    2.043557    0.851857
     55          1           0       -1.154629   -0.335317   -1.744702
 ---------------------------------------------------------------------

 SCF Done:  E(RB3LYP) =  -1111.53375142     A.U. after   14 cycles

 Excitation energies and oscillator strengths:

 Excited state symmetry could not be determined.
 Excited State   1:      Triplet-?Sym    3.7083 eV  334.34 nm  f=0.0000  <S**2>=2.000
      89 -> 95         0.41229
      92 -> 96         0.16196
      93 -> 96         0.16027
      94 -> 96         0.50365
 This state for optimization and/or second-order correction.
 Total Energy, E(TD-HF/TD-DFT) =  -1111.39747304
 Copying the excited state density for this state as the 1-particle RhoCI density.

 Excited state symmetry could not be determined.
 Excited State   2:      Triplet-?Sym    4.1996 eV  295.23 nm  f=0.0000  <S**2>=2.000
      89 -> 96         0.10278
      92 -> 95         0.18263
      93 -> 95         0.19230
      94 -> 95         0.63720

 Excited state symmetry could not be determined.
 Excited State   3:      Singlet-?Sym    5.0814 eV  244.00 nm  f=0.0191  <S**2>=0.000
      89 -> 96        -0.29138
      93 -> 95         0.10601
      94 -> 95         0.62948

 Excited state symmetry could not be determined.
 Excited State   4:      Singlet-?Sym    5.3700 eV  230.88 nm  f=0.0020  <S**2>=0.000
      89 -> 96        -0.10644
      92 -> 95         0.58881
      93 -> 95         0.30622
      94 -> 95        -0.12572
      94 -> 96        -0.11751

 Alpha  occ. eigenvalues --  -19.17198 -19.08464 -14.33578 -14.32888 -14.32717
 Alpha  occ. eigenvalues --  -14.32458 -10.28174 -10.25155 -10.23935 -10.23740
 Alpha  occ. eigenvalues --  -10.22920 -10.21387 -10.20849 -10.20773 -10.20650
 Alpha  occ. eigenvalues --  -10.20177 -10.18687 -10.18658 -10.18492 -10.18419
 Alpha  occ. eigenvalues --  -10.18374 -10.18080 -10.17866 -10.17640 -10.17519
 Alpha  occ. eigenvalues --   -1.05759  -1.02189  -0.94649  -0.94073  -0.88492
 Alpha  occ. eigenvalues --   -0.87775  -0.84035  -0.80942  -0.76129  -0.74914
 Alpha  occ. eigenvalues --   -0.74427  -0.73732  -0.71129  -0.70745  -0.68689
 Alpha  occ. eigenvalues --   -0.66639  -0.65144  -0.63215  -0.62310  -0.60239
 Alpha  occ. eigenvalues --   -0.58228  -0.57964  -0.55370  -0.53669  -0.52544
 Alpha  occ. eigenvalues --   -0.51028  -0.49892  -0.49047  -0.48222  -0.47274
 Alpha  occ. eigenvalues --   -0.46882  -0.46356  -0.45962  -0.45061  -0.44553
 Alpha  occ. eigenvalues --   -0.43937  -0.43558  -0.42866  -0.42003  -0.41641
 Alpha  occ. eigenvalues --   -0.41521  -0.41216  -0.40973  -0.40032  -0.39389
 Alpha  occ. eigenvalues --   -0.38866  -0.38352  -0.37626  -0.37449  -0.37333
 Alpha  occ. eigenvalues --   -0.37041  -0.36767  -0.36561  -0.36084  -0.35232
 Alpha  occ. eigenvalues --   -0.35058  -0.34304  -0.32756  -0.31854  -0.31707
 Alpha  occ. eigenvalues --   -0.31310  -0.30664  -0.24499  -0.24199  -0.23792
 Alpha  occ. eigenvalues --   -0.22876  -0.21845  -0.21256  -0.20715
 Alpha virt. eigenvalues --    0.00717   0.01688   0.05853   0.07492   0.08685
 Alpha virt. eigenvalues --    0.09489   0.09775   0.10612   0.11219   0.11525
 Alpha virt. eigenvalues --    0.12298   0.12888   0.12931   0.13497   0.14391

 Mulliken charges:
               1
     1  C   -0.307454
     2  N   -0.580023
     3  C    0.352075
     4  N   -0.394791
     5  C   -0.305678
     6  C   -0.308637
     7  C   -0.301730
     8  C   -0.276562
     9  C    0.236842
    10  C   -0.294989
    11  C   -0.314960
    12  C   -0.145397
    13  N   -0.451046
    14  C   -0.236401
    15  C    0.157108
    16  C   -0.192450
    17  C   -0.173903
    18  C    0.373974
    19  O   -0.506777
    20  C   -0.212745
    21  C   -0.195127
    22  C   -0.199916
    23  C    0.777560
    24  O   -0.568430
    25  N   -0.659553
    26  H    0.147811
    27  H    0.154204
    28  H    0.154895
    29  H    0.301890
    30  H    0.158222
    31  H    0.119375
    32  H    0.148525
    33  H    0.153682
    34  H    0.127920
    35  H    0.136339
    36  H    0.137531
    37  H    0.142959
    38  H    0.151122
    39  H    0.129400
    40  H    0.135324
    41  H    0.161902
    42  H    0.144159
    43  H    0.151071
    44  H    0.137897
    45  H    0.149891
    46  H    0.186125
    47  H    0.138321
    48  H    0.168562
    49  H    0.137853
    50  H    0.167953
    51  H    0.150583
    52  H    0.148770
    53  H    0.126412
    54  H    0.119072
    55  H    0.341240
 Sum of Mulliken charges =  -0.00000

 Dipole moment (field-independent basis, Debye):
    X=             -2.4099    Y=              0.2856    Z=              4.8513  Tot=              5.4244
 Quadrupole moment (field-independent basis, Debye-Ang):
   XX=           -126.8230   YY=           -148.7862   ZZ=           -158.2912
   XY=             -0.5983   XZ=             16.1111   YZ=              3.8567

 Normal termination of Gaussian 16 at Sat Nov  5 11:32:08 2022.
