 Gaussian 16, Revision B.01,
 Gaussian 16:  ES64L-G16RevB.01 20-Dec-2017

 -----------------------------
 #p b3lyp/6-31g(d) opt SCF=XQC
 -----------------------------

 ------------------------------
 Gaussian input prepared by ASE
 ------------------------------
 Symbolic Z-matrix:
 Charge =  0 Multiplicity = 1

 SCF Done:  E(RB3LYP) =  -1111.52655137     A.U. after   14 cycles
 SCF Done:  E(RB3LYP) =  -1111.53163006     A.U. after   12 cycles
 SCF Done:  E(RB3LYP) =  -1111.53176451     A.U. after   12 cycles
 SCF Done:  E(RB3LYP) =  -1111.53341578     A.U. after   11 cycles
 SCF Done:  E(RB3LYP) =  -1111.53359552     A.U. after   11 cycles
 SCF Done:  E(RB3LYP) =  -1111.53367906     A.U. after   10 cycles
 SCF Done:  E(RB3LYP) =  -1111.53371602     A.U. after    9 cycles
 SCF Done:  E(RB3LYP) =  -1111.53373602     A.U. after    9 cycles
 SCF Done:  E(RB3LYP) =  -1111.53374613     A.U. after    8 cycles
 SCF Done:  E(RB3LYP) =  -1111.53375213     A.U. after    8 cycles
 SCF Done:  E(RB3LYP) =  -1111.53375509     A.U. after    8 cycles
 SCF Done:  E(RB3LYP) =  -1111.53375636     A.U. after    8 cycles
 SCF Done:  E(RB3LYP) =  -1111.53375676     A.U. after    7 cycles
 SCF Done:  E(RB3LYP) =  -1111.53375686     A.U. after    7 cycles
 Optimization completed.
    -- Stationary point found.

                         Standard orientation:
 ---------------------------------------------------------------------
 Center     Atomic      Atomic             Coordinates (Angstroms)
 Number     Number       Type             X           Y           Z
 ---------------------------------------------------------------------
      1          6           0        3.703296   -1.537635    2.244438
      2          7           0        3.461385   -0.349443    1.418515
      3          6           0        3.844506   -0.439876   -0.003242
      4          7           0        5.288914   -0.808424   -0.121664
      5          6           0        5.746231   -1.257263   -1.431899
      6          6           0        6.209088    0.193321    0.408338
      7          6           0        3.505744    0.940505   -0.653810
      8          6           0        2.111652    1.001343   -1.315105
      9          6           0        1.033388    0.198577   -0.553673
     10          6           0        1.457130   -1.291106   -0.488196
     11          6           0        2.970821   -1.518442   -0.683366
     12          6           0       -0.367727    0.414390   -1.185175
     13          7           0       -0.870733    1.575252   -0.463362
     14          6           0       -2.222730    2.086494   -0.652430
     15          6           0       -3.331090    1.099998   -0.325922
     16          6           0       -3.579069    0.720985    1.006208
     17          6           0       -4.583663   -0.184708    1.315239
     18          6           0       -5.375247   -0.738921    0.296239
     19          8           0       -6.338909   -1.617553    0.706897
     20          6           0       -7.176630   -2.198892   -0.277177
     21          6           0       -5.144666   -0.373489   -1.033047
     22          6           0       -4.124843    0.539486   -1.326452
     23          6           0       -0.261424    1.649618    0.791743
     24          8           0       -0.606946    2.372623    1.718714
     25          7           0        0.778074    0.751886    0.776669
     26          1           0        3.533883   -1.269031    3.291801
     27          1           0        4.715863   -1.948638    2.135370
     28          1           0        2.984909   -2.323694    1.990585
     29          1           0        3.941590    0.444798    1.834778
     30          1           0        5.213175   -2.154688   -1.751761
     31          1           0        5.654117   -0.495127   -2.230794
     32          1           0        6.807093   -1.520466   -1.357398
     33          1           0        7.212689   -0.242017    0.465142
     34          1           0        6.279821    1.112961   -0.201826
     35          1           0        5.928032    0.482922    1.424985
     36          1           0        3.590683    1.726908    0.105964
     37          1           0        4.257807    1.174670   -1.416435
     38          1           0        1.787520    2.043464   -1.414948
     39          1           0        2.174082    0.594711   -2.334165
     40          1           0        0.929096   -1.854137   -1.269321
     41          1           0        1.119008   -1.696184    0.470086
     42          1           0        3.187895   -1.506089   -1.755863
     43          1           0        3.253155   -2.514586   -0.325652
     44          1           0       -0.306677    0.605944   -2.263477
     45          1           0       -1.009109   -0.467400   -1.027213
     46          1           0       -2.294260    2.966821   -0.006950
     47          1           0       -2.321196    2.423420   -1.692041
     48          1           0       -2.973007    1.150594    1.799493
     49          1           0       -4.783178   -0.476992    2.341755
     50          1           0       -7.864802   -2.852761    0.262090
     51          1           0       -7.752037   -1.437311   -0.820722
     52          1           0       -6.601511   -2.795352   -0.998452
     53          1           0       -5.741885   -0.783961   -1.839479
     54          1           0       -3.956629    0.820505   -2.364556
     55          1           0        1.508634    0.738958    1.476747
 ---------------------------------------------------------------------

 The electronic state is 1-A.
 Alpha  occ. eigenvalues --  -19.17198 -19.08464 -14.33578 -14.32888 -14.32717
 Alpha  occ. eigenvalues --  -14.32458 -10.28174 -10.25155 -10.23935 -10.23740
 Alpha  occ. eigenvalues --  -10.22920 -10.21387 -10.20849 -10.20773 -10.20650
 Alpha  occ. eigenvalues --  -10.20177 -10.18687 -10.18658 -10.18492 -10.18419
 Alpha  occ. eigenvalues --  -10.18374 -10.18080 -10.17866 -10.17640 -10.17519
 Alpha  occ. eigenvalues --   -1.05759  -1.02189  -0.94649  -0.94073  -0.88492
 Alpha  occ. eigenvalues --   -0.87775  -0.84035  -0.80942  -0.76128  -0.74914
 Alpha  occ. eigenvalues --   -0.74427  -0.73732  -0.71129  -0.70745  -0.68689
 Alpha  occ. eigenvalues --   -0.66639  -0.65144  -0.63215  -0.62310  -0.60239
 Alpha  occ. eigenvalues --   -0.58228  -0.57964  -0.55370  -0.53669  -0.52544
 Alpha  occ. eigenvalues --   -0.51028  -0.49892  -0.49047  -0.48222  -0.47274
 Alpha  occ. eigenvalues --   -0.46882  -0.46355  -0.45962  -0.45061  -0.44553
 Alpha  occ. eigenvalues --   -0.43937  -0.43558  -0.42866  -0.42003  -0.41641
 Alpha  occ. eigenvalues --   -0.41521  -0.41216  -0.40973  -0.40032  -0.39389
 Alpha  occ. eigenvalues --   -0.38866  -0.38352  -0.37626  -0.37449  -0.37333
 Alpha  occ. eigenvalues --   -0.37041  -0.36767  -0.36561  -0.36084  -0.35232
 Alpha  occ. eigenvalues --   -0.35058  -0.34304  -0.32756  -0.31854  -0.31707
 Alpha  occ. eigenvalues --   -0.31310  -0.30664  -0.24500  -0.24199  -0.23792
 Alpha  occ. eigenvalues --   -0.22876  -0.21845  -0.21256  -0.20715
 Alpha virt. eigenvalues --    0.00717   0.01688   0.05853   0.07492   0.08685
 Alpha virt. eigenvalues --    0.09489   0.09775   0.10612   0.11219   0.11525
 Alpha virt. eigenvalues --    0.12298   0.12888   0.12931   0.13497   0.14391

 Mulliken charges:
               1
     1  C   -0.307464
     2  N   -0.580005
     3  C    0.352051
     4  N   -0.394773
     5  C   -0.305683
     6  C   -0.308648
     7  C   -0.301715
     8  C   -0.276538
     9  C    0.236799
    10  C   -0.294967
    11  C   -0.314986
    12  C   -0.145386
    13  N   -0.451039
    14  C   -0.236407
    15  C    0.157117
    16  C   -0.192455
    17  C   -0.173912
    18  C    0.373967
    19  O   -0.506772
    20  C   -0.212739
    21  C   -0.195125
    22  C   -0.199916
    23  C    0.777556
    24  O   -0.568434
    25  N   -0.659544
    26  H    0.147813
    27  H    0.154209
    28  H    0.154898
    29  H    0.301892
    30  H    0.158224
    31  H    0.119375
    32  H    0.148526
    33  H    0.153681
    34  H    0.127923
    35  H    0.136341
    36  H    0.137527
    37  H    0.142957
    38  H    0.151117
    39  H    0.129397
    40  H    0.135324
    41  H    0.161900
    42  H    0.144164
    43  H    0.151074
    44  H    0.137894
    45  H    0.149889
    46  H    0.186125
    47  H    0.138323
    48  H    0.168562
    49  H    0.137854
    50  H    0.167952
    51  H    0.150582
    52  H    0.148768
    53  H    0.126412
    54  H    0.119072
    55  H    0.341244
 Sum of Mulliken charges =  -0.00000

 Dipole moment (field-independent basis, Debye):
    X=              2.6357    Y=             -2.9558    Z=             -3.7069  Tot=              5.4244
 Quadrupole moment (field-independent basis, Debye-Ang):
   XX=           -125.9601   YY=           -155.7163   ZZ=           -148.0340
   XY=              9.6406   XZ=             11.0831   YZ=             -3.6346

 Normal termination of Gaussian 16 at Fri Nov  4 18:37:17 2022.
