 Gaussian 16, Revision B.01,
 Gaussian 16:  ES64L-G16RevB.01 20-Dec-2017

 -------------------------------------------------------------------
 #p b3lyp/6-31g(d) 6D 10F nosymm GFInput td=(50-50,nstate=2) SCF=XQC
 -------------------------------------------------------------------

 ------------------------------
 Gaussian input prepared by ASE
 ------------------------------
 Symbolic Z-matrix:
 Charge =  0 Multiplicity = 1

                          Input orientation:
 ---------------------------------------------------------------------
 Center     Atomic      Atomic             Coordinates (Angstroms)
 Number     Number       Type             X           Y           Z
 ---------------------------------------------------------------------
      1          6           0       -5.811986    2.238722   -1.935819
      2          6           0       -4.743094    1.314627   -1.344486
      3          6           0       -4.319137    1.729050    0.071222
      4          6           0       -3.261814    0.811679    0.696146
      5          6           0       -1.863787    0.986728    0.099102
      6          8           0       -1.624824    1.863017   -0.710205
      7          6           0       -0.770577    0.047785    0.562260
      8          6           0       -0.974961   -0.920339    1.552069
      9          6           0        0.084949   -1.739832    1.931358
     10          6           0        1.325374   -1.579132    1.311933
     11          8           0        2.417004   -2.322277    1.604148
     12          6           0        2.319035   -3.336052    2.600869
     13          6           0        1.461297   -0.572980    0.308313
     14          6           0        2.688444   -0.274619   -0.439438
     15          6           0        3.904299   -0.848462   -0.360000
     16          6           0        5.056880   -0.434637   -1.188837
     17          8           0        6.154275   -0.956429   -1.113078
     18          8           0        4.776740    0.580482   -2.041251
     19          6           0        5.871659    1.009068   -2.861530
     20          7           0        0.422090    0.200652   -0.028834
     21          1           0       -6.102629    1.919089   -2.943027
     22          1           0       -5.445261    3.269815   -2.007132
     23          1           0       -6.717394    2.250757   -1.315713
     24          1           0       -5.124263    0.282820   -1.320534
     25          1           0       -3.861656    1.310193   -1.995448
     26          1           0       -5.202158    1.737745    0.724682
     27          1           0       -3.929098    2.753314    0.047750
     28          1           0       -3.184867    1.001894    1.777442
     29          1           0       -3.564670   -0.241305    0.603294
     30          1           0       -1.940107   -1.041917    2.031195
     31          1           0       -0.060896   -2.490801    2.698878
     32          1           0        1.582070   -4.098282    2.320620
     33          1           0        3.309128   -3.789689    2.656317
     34          1           0        2.056496   -2.909448    3.576438
     35          1           0        2.539552    0.535513   -1.147448
     36          1           0        4.128351   -1.658378    0.319376
     37          1           0        5.477432    1.819798   -3.475206
     38          1           0        6.226693    0.188373   -3.491141
     39          1           0        6.701411    1.363458   -2.243574
 ---------------------------------------------------------------------

 SCF Done:  E(RB3LYP) =  -938.669643284     A.U. after   15 cycles

 Excitation energies and oscillator strengths:

 Excited state symmetry could not be determined.
 Excited State   1:      Triplet-?Sym    2.6435 eV  469.02 nm  f=0.0000  <S**2>=2.000
      68 -> 77        -0.10105
      70 -> 75        -0.21862
      70 -> 76        -0.11987
      74 -> 75         0.64416
 This state for optimization and/or second-order correction.
 Total Energy, E(TD-HF/TD-DFT) =  -938.572496897
 Copying the excited state density for this state as the 1-particle RhoCI density.

 Excited state symmetry could not be determined.
 Excited State   2:      Triplet-?Sym    3.0821 eV  402.27 nm  f=0.0000  <S**2>=2.000
      73 -> 75        -0.12652
      73 -> 76         0.66311
      73 -> 77         0.13504
      73 -> 78        -0.13955

 Excited state symmetry could not be determined.
 Excited State   3:      Singlet-?Sym    3.6133 eV  343.13 nm  f=0.0000  <S**2>=0.000
      73 -> 75        -0.14665
      73 -> 76         0.67369
      73 -> 77         0.10172
      73 -> 78        -0.10031

 Excited state symmetry could not be determined.
 Excited State   4:      Singlet-?Sym    4.0207 eV  308.36 nm  f=0.0005  <S**2>=0.000
      71 -> 75         0.13678
      72 -> 75         0.25139
      73 -> 75         0.62385
      73 -> 76         0.14222

 Alpha  occ. eigenvalues --  -19.21120 -19.18241 -19.13423 -19.12413 -14.34163
 Alpha  occ. eigenvalues --  -10.30498 -10.28153 -10.27219 -10.26522 -10.24520
 Alpha  occ. eigenvalues --  -10.23276 -10.23259 -10.22261 -10.22104 -10.20490
 Alpha  occ. eigenvalues --  -10.19560 -10.19458 -10.17875 -10.17299 -10.16729
 Alpha  occ. eigenvalues --   -1.09813  -1.09048  -1.03518  -1.00103  -0.95461
 Alpha  occ. eigenvalues --   -0.82355  -0.81455  -0.79697  -0.77622  -0.74539
 Alpha  occ. eigenvalues --   -0.73000  -0.71333  -0.66675  -0.65714  -0.62867
 Alpha  occ. eigenvalues --   -0.61096  -0.58084  -0.56010  -0.55237  -0.54053
 Alpha  occ. eigenvalues --   -0.52962  -0.49648  -0.49420  -0.48946  -0.47134
 Alpha  occ. eigenvalues --   -0.46950  -0.45821  -0.45603  -0.45145  -0.44932
 Alpha  occ. eigenvalues --   -0.43202  -0.42362  -0.42269  -0.41602  -0.41104
 Alpha  occ. eigenvalues --   -0.40343  -0.39021  -0.38548  -0.38235  -0.36795
 Alpha  occ. eigenvalues --   -0.35902  -0.34823  -0.34786  -0.34691  -0.33116
 Alpha  occ. eigenvalues --   -0.32308  -0.31843  -0.31701  -0.29188  -0.27464
 Alpha  occ. eigenvalues --   -0.26869  -0.26046  -0.24388  -0.23617
 Alpha virt. eigenvalues --   -0.07026  -0.05707  -0.00142   0.04466   0.07300
 Alpha virt. eigenvalues --    0.08314   0.09433   0.10081   0.10721   0.12053
 Alpha virt. eigenvalues --    0.12722   0.12839   0.13527   0.13905   0.14478

 Mulliken charges:
               1
     1  C   -0.442735
     2  C   -0.253734
     3  C   -0.238773
     4  C   -0.376154
     5  C    0.431380
     6  O   -0.442345
     7  C    0.224715
     8  C   -0.176304
     9  C   -0.167940
    10  C    0.361449
    11  O   -0.501890
    12  C   -0.225960
    13  C    0.260422
    14  C   -0.131967
    15  C   -0.211786
    16  C    0.626902
    17  O   -0.499310
    18  O   -0.461871
    19  C   -0.215979
    20  N   -0.529152
    21  H    0.141759
    22  H    0.147931
    23  H    0.136179
    24  H    0.119853
    25  H    0.160468
    26  H    0.123238
    27  H    0.154462
    28  H    0.158873
    29  H    0.153011
    30  H    0.149466
    31  H    0.149698
    32  H    0.163616
    33  H    0.187557
    34  H    0.163692
    35  H    0.186545
    36  H    0.174764
    37  H    0.163836
    38  H    0.167971
    39  H    0.168114
 Sum of Mulliken charges =  -0.00000

 Dipole moment (field-independent basis, Debye):
    X=             -2.2382    Y=             -3.5085    Z=              4.0183  Tot=              5.7850
 Quadrupole moment (field-independent basis, Debye-Ang):
   XX=           -128.2178   YY=           -110.7382   ZZ=           -104.1605
   XY=              7.6549   XZ=             -3.7399   YZ=            -10.4345

 Normal termination of Gaussian 16 at Sat Nov  5 11:17:14 2022.
