 Gaussian 16, Revision B.01,
 Gaussian 16:  ES64L-G16RevB.01 20-Dec-2017

 -----------------------------
 #p b3lyp/6-31g(d) opt SCF=XQC
 -----------------------------

 ------------------------------
 Gaussian input prepared by ASE
 ------------------------------
 Symbolic Z-matrix:
 Charge =  0 Multiplicity = 1

 SCF Done:  E(RB3LYP) =  -938.659522234     A.U. after   15 cycles
 SCF Done:  E(RB3LYP) =  -938.664116695     A.U. after   13 cycles
 SCF Done:  E(RB3LYP) =  -938.665012893     A.U. after   13 cycles
 SCF Done:  E(RB3LYP) =  -938.665468812     A.U. after   14 cycles
 SCF Done:  E(RB3LYP) =  -938.666204837     A.U. after   12 cycles
 SCF Done:  E(RB3LYP) =  -938.666587675     A.U. after   13 cycles
 SCF Done:  E(RB3LYP) =  -938.666845993     A.U. after   13 cycles
 SCF Done:  E(RB3LYP) =  -938.667141889     A.U. after   13 cycles
 SCF Done:  E(RB3LYP) =  -938.667372478     A.U. after   13 cycles
 SCF Done:  E(RB3LYP) =  -938.667391237     A.U. after   11 cycles
 SCF Done:  E(RB3LYP) =  -938.668500308     A.U. after   13 cycles
 SCF Done:  E(RB3LYP) =  -938.669115030     A.U. after   15 cycles
 SCF Done:  E(RB3LYP) =  -938.669312579     A.U. after   13 cycles
 SCF Done:  E(RB3LYP) =  -938.669579010     A.U. after   13 cycles
 SCF Done:  E(RB3LYP) =  -938.669633467     A.U. after   10 cycles
 SCF Done:  E(RB3LYP) =  -938.669635675     A.U. after   11 cycles
 SCF Done:  E(RB3LYP) =  -938.669643205     A.U. after   10 cycles
 SCF Done:  E(RB3LYP) =  -938.669643489     A.U. after    7 cycles
 SCF Done:  E(RB3LYP) =  -938.669643747     A.U. after    9 cycles
 SCF Done:  E(RB3LYP) =  -938.669643819     A.U. after    7 cycles
 Optimization completed.
    -- Stationary point found.

                         Standard orientation:
 ---------------------------------------------------------------------
 Center     Atomic      Atomic             Coordinates (Angstroms)
 Number     Number       Type             X           Y           Z
 ---------------------------------------------------------------------
      1          6           0       -6.724697   -2.045206    0.717211
      2          6           0       -5.488323   -1.145713    0.809111
      3          6           0       -5.212294   -0.383244   -0.494024
      4          6           0       -3.989681    0.539089   -0.426543
      5          6           0       -2.653640   -0.206794   -0.441840
      6          8           0       -2.600913   -1.410218   -0.612001
      7          6           0       -1.386526    0.601238   -0.260886
      8          6           0       -1.389529    1.996096   -0.146324
      9          6           0       -0.180041    2.668719    0.007156
     10          6           0        1.006698    1.935109    0.047567
     11          8           0        2.231852    2.488852    0.194803
     12          6           0        2.342698    3.904251    0.317888
     13          6           0        0.934721    0.514406   -0.072817
     14          6           0        2.080359   -0.402634   -0.048486
     15          6           0        3.393214   -0.134448    0.087150
     16          6           0        4.441940   -1.176947    0.093177
     17          8           0        5.627661   -0.929348    0.215820
     18          8           0        3.958975   -2.434575   -0.050605
     19          6           0        4.947968   -3.472497   -0.049785
     20          7           0       -0.245225   -0.099664   -0.223713
     21          1           0       -6.904664   -2.573360    1.660489
     22          1           0       -6.604587   -2.800367   -0.068937
     23          1           0       -7.625631   -1.463619    0.483725
     24          1           0       -5.620962   -0.424362    1.629203
     25          1           0       -4.611577   -1.752571    1.061590
     26          1           0       -6.091635    0.223022   -0.750954
     27          1           0       -5.069296   -1.100586   -1.310585
     28          1           0       -3.989696    1.233242   -1.280626
     29          1           0       -4.037936    1.174728    0.469422
     30          1           0       -2.313621    2.562546   -0.178488
     31          1           0       -0.170016    3.748865    0.093726
     32          1           0        1.810371    4.268415    1.204828
     33          1           0        3.408885    4.106937    0.424233
     34          1           0        1.960875    4.411522   -0.576282
     35          1           0        1.768333   -1.437042   -0.159841
     36          1           0        3.779097    0.868330    0.202230
     37          1           0        4.394537   -4.403827   -0.174820
     38          1           0        5.501046   -3.477977    0.893653
     39          1           0        5.655251   -3.332483   -0.872037
 ---------------------------------------------------------------------

 The electronic state is 1-A.
 Alpha  occ. eigenvalues --  -19.21120 -19.18241 -19.13423 -19.12413 -14.34163
 Alpha  occ. eigenvalues --  -10.30498 -10.28153 -10.27219 -10.26522 -10.24520
 Alpha  occ. eigenvalues --  -10.23276 -10.23259 -10.22261 -10.22104 -10.20490
 Alpha  occ. eigenvalues --  -10.19559 -10.19458 -10.17875 -10.17299 -10.16729
 Alpha  occ. eigenvalues --   -1.09813  -1.09048  -1.03518  -1.00103  -0.95461
 Alpha  occ. eigenvalues --   -0.82355  -0.81455  -0.79697  -0.77622  -0.74539
 Alpha  occ. eigenvalues --   -0.73000  -0.71333  -0.66675  -0.65714  -0.62867
 Alpha  occ. eigenvalues --   -0.61096  -0.58084  -0.56010  -0.55237  -0.54053
 Alpha  occ. eigenvalues --   -0.52962  -0.49648  -0.49420  -0.48946  -0.47134
 Alpha  occ. eigenvalues --   -0.46950  -0.45821  -0.45603  -0.45145  -0.44932
 Alpha  occ. eigenvalues --   -0.43202  -0.42362  -0.42269  -0.41602  -0.41104
 Alpha  occ. eigenvalues --   -0.40343  -0.39021  -0.38548  -0.38235  -0.36795
 Alpha  occ. eigenvalues --   -0.35902  -0.34823  -0.34786  -0.34691  -0.33116
 Alpha  occ. eigenvalues --   -0.32308  -0.31843  -0.31701  -0.29188  -0.27464
 Alpha  occ. eigenvalues --   -0.26869  -0.26046  -0.24388  -0.23617
 Alpha virt. eigenvalues --   -0.07026  -0.05707  -0.00142   0.04466   0.07300
 Alpha virt. eigenvalues --    0.08314   0.09433   0.10081   0.10721   0.12053
 Alpha virt. eigenvalues --    0.12722   0.12839   0.13527   0.13905   0.14478

 Mulliken charges:
               1
     1  C   -0.442736
     2  C   -0.253739
     3  C   -0.238785
     4  C   -0.376133
     5  C    0.431368
     6  O   -0.442337
     7  C    0.224720
     8  C   -0.176313
     9  C   -0.167932
    10  C    0.361435
    11  O   -0.501895
    12  C   -0.225957
    13  C    0.260438
    14  C   -0.131965
    15  C   -0.211786
    16  C    0.626911
    17  O   -0.499314
    18  O   -0.461874
    19  C   -0.215980
    20  N   -0.529156
    21  H    0.141760
    22  H    0.147931
    23  H    0.136180
    24  H    0.119854
    25  H    0.160471
    26  H    0.123240
    27  H    0.154464
    28  H    0.158870
    29  H    0.153008
    30  H    0.149467
    31  H    0.149697
    32  H    0.163617
    33  H    0.187558
    34  H    0.163692
    35  H    0.186544
    36  H    0.174758
    37  H    0.163836
    38  H    0.167971
    39  H    0.168114
 Sum of Mulliken charges =  -0.00000

 Dipole moment (field-independent basis, Debye):
    X=             -1.4795    Y=              5.5762    Z=              0.4278  Tot=              5.7850
 Quadrupole moment (field-independent basis, Debye-Ang):
   XX=           -128.8321   YY=            -93.9747   ZZ=           -117.3576
   XY=             -7.1415   XZ=             -1.4145   YZ=             -0.1902

 Normal termination of Gaussian 16 at Fri Nov  4 18:32:01 2022.
