 Gaussian 16, Revision B.01,
 Gaussian 16:  ES64L-G16RevB.01 20-Dec-2017

 -------------------------------------------------------------------
 #p b3lyp/6-31g(d) 6D 10F nosymm GFInput td=(50-50,nstate=2) SCF=XQC
 -------------------------------------------------------------------

 ------------------------------
 Gaussian input prepared by ASE
 ------------------------------
 Symbolic Z-matrix:
 Charge =  0 Multiplicity = 1

                          Input orientation:
 ---------------------------------------------------------------------
 Center     Atomic      Atomic             Coordinates (Angstroms)
 Number     Number       Type             X           Y           Z
 ---------------------------------------------------------------------
      1          6           0       -7.371935   -2.624871   -3.138103
      2          6           0       -6.417945   -3.296903   -2.481481
      3          6           0       -6.000420   -4.704803   -2.816029
      4          6           0       -5.681666   -2.681749   -1.334188
      5          8           0       -4.822004   -3.274899   -0.708841
      6          8           0       -6.070196   -1.411856   -1.071958
      7          6           0       -5.444747   -0.715640    0.025864
      8          6           0       -4.922324    0.641251   -0.454353
      9          6           0       -4.621645    1.553287    0.737078
     10          8           0       -3.553888    1.013353    1.496872
     11          6           0       -3.291945    1.756131    2.680142
     12          6           0       -2.110881    1.138651    3.420919
     13          6           0       -0.772219    1.144486    2.656328
     14         14           0        0.100145    2.796220    2.306411
     15          6           0        0.218446    3.828719    3.884539
     16          6           0       -0.731819    3.801906    0.941684
     17          8           0        1.626426    2.413582    1.799886
     18         14           0        3.170015    2.077104    1.300848
     19          6           0        4.187447    1.628869    2.826796
     20          6           0        3.869984    3.635770    0.496882
     21          6           0        3.086334    0.624511    0.099568
     22         14           0        4.560794    0.137681   -0.995768
     23          6           0        6.193553    0.126014   -0.026245
     24          6           0        4.715473    1.349442   -2.447278
     25          6           0        4.258955   -1.598796   -1.721046
     26          6           0        4.179724   -2.754527   -0.705337
     27          6           0        3.866927   -4.131344   -1.320104
     28          6           0        4.958003   -4.673334   -2.250228
     29         15           0       -3.480027    0.633125   -1.686072
     30          6           0       -2.354992   -0.731424   -1.084900
     31          1           0       -7.645042   -1.611852   -2.866205
     32          1           0       -7.904325   -3.078562   -3.969971
     33          1           0       -6.140071   -5.369190   -1.955970
     34          1           0       -6.578499   -5.092721   -3.659455
     35          1           0       -4.934968   -4.747582   -3.068589
     36          1           0       -4.663271   -1.338460    0.459086
     37          1           0       -6.229532   -0.566799    0.778765
     38          1           0       -5.733630    1.130501   -1.012701
     39          1           0       -4.366051    2.564092    0.381229
     40          1           0       -5.522496    1.645229    1.371233
     41          1           0       -4.185763    1.746131    3.327371
     42          1           0       -3.092614    2.809012    2.422010
     43          1           0       -2.006160    1.673183    4.375040
     44          1           0       -2.384186    0.106051    3.676521
     45          1           0       -0.895414    0.613071    1.703867
     46          1           0       -0.046554    0.549754    3.230228
     47          1           0        0.728151    3.277852    4.684212
     48          1           0        0.783785    4.751330    3.705951
     49          1           0       -0.771790    4.117722    4.258748
     50          1           0       -0.938258    3.186961    0.057716
     51          1           0       -1.682306    4.240169    1.269261
     52          1           0       -0.081324    4.627856    0.628712
     53          1           0        3.782695    0.738431    3.323042
     54          1           0        5.234500    1.422509    2.576314
     55          1           0        4.174258    2.447885    3.556044
     56          1           0        3.306943    3.910999   -0.402808
     57          1           0        4.920499    3.510262    0.207258
     58          1           0        3.818290    4.482817    1.191724
     59          1           0        2.239318    0.813424   -0.577781
     60          1           0        2.794849   -0.254931    0.693746
     61          1           0        6.471904    1.130385    0.315055
     62          1           0        6.141971   -0.520266    0.857998
     63          1           0        7.013429   -0.242913   -0.655272
     64          1           0        3.797976    1.369022   -3.048341
     65          1           0        4.909704    2.373843   -2.109680
     66          1           0        5.538019    1.059891   -3.112977
     67          1           0        3.327648   -1.567093   -2.308013
     68          1           0        5.059341   -1.794631   -2.449591
     69          1           0        3.405710   -2.530413    0.042052
     70          1           0        5.126003   -2.823172   -0.148712
     71          1           0        2.915603   -4.071133   -1.868101
     72          1           0        3.704238   -4.850856   -0.505524
     73          1           0        4.699311   -5.671672   -2.621553
     74          1           0        5.107916   -4.027384   -3.122559
     75          1           0        5.919296   -4.752393   -1.726464
     76          1           0       -4.151979   -0.116893   -2.694271
     77          1           0       -1.565810   -0.867276   -1.832644
     78          1           0       -2.856757   -1.689272   -0.925411
     79          1           0       -1.888130   -0.412872   -0.149716
 ---------------------------------------------------------------------

 SCF Done:  E(RB3LYP) =  -2378.76997579     A.U. after   14 cycles

 Excitation energies and oscillator strengths:

 Excited state symmetry could not be determined.
 Excited State   1:      Triplet-?Sym    3.4616 eV  358.17 nm  f=0.0000  <S**2>=2.000
     131 ->136         0.68268
     131 ->142        -0.14758
     131 <-136         0.11380
 This state for optimization and/or second-order correction.
 Total Energy, E(TD-HF/TD-DFT) =  -2378.64276346
 Copying the excited state density for this state as the 1-particle RhoCI density.

 Excited state symmetry could not be determined.
 Excited State   2:      Triplet-?Sym    4.3694 eV  283.76 nm  f=0.0000  <S**2>=2.000
     129 ->136         0.63580
     129 ->142         0.10650
     135 ->136        -0.28020

 Excited state symmetry could not be determined.
 Excited State   3:      Singlet-?Sym    4.5488 eV  272.57 nm  f=0.0079  <S**2>=0.000
     129 ->136        -0.11421
     135 ->136         0.69720

 Excited state symmetry could not be determined.
 Excited State   4:      Singlet-?Sym    4.8710 eV  254.54 nm  f=0.0002  <S**2>=0.000
     129 ->136         0.69008
     135 ->136         0.11534

 Alpha  occ. eigenvalues --  -77.06959 -66.13935 -66.13756 -66.11174 -19.18950
 Alpha  occ. eigenvalues --  -19.15336 -19.13542 -19.11630 -10.31547 -10.24132
 Alpha  occ. eigenvalues --  -10.23991 -10.23235 -10.21057 -10.20267 -10.19742
 Alpha  occ. eigenvalues --  -10.18588 -10.18385 -10.17527 -10.17295 -10.17190
 Alpha  occ. eigenvalues --  -10.16694 -10.15947 -10.15644 -10.15592 -10.15552
 Alpha  occ. eigenvalues --  -10.15411 -10.15348 -10.15305 -10.15286 -10.14537
 Alpha  occ. eigenvalues --   -6.53939  -5.27815  -5.27710  -5.25545  -4.70185
 Alpha  occ. eigenvalues --   -4.70162  -4.69676  -3.63925  -3.63820  -3.63629
 Alpha  occ. eigenvalues --   -3.63623  -3.63524  -3.63503  -3.61434  -3.61426
 Alpha  occ. eigenvalues --   -3.61403  -1.09770  -1.03671  -1.01271  -0.95704
 Alpha  occ. eigenvalues --   -0.81714  -0.80027  -0.78276  -0.76970  -0.71750
 Alpha  occ. eigenvalues --   -0.71304  -0.70790  -0.70128  -0.69374  -0.68885
 Alpha  occ. eigenvalues --   -0.68675  -0.67204  -0.67095  -0.66817  -0.66578
 Alpha  occ. eigenvalues --   -0.66075  -0.62754  -0.62409  -0.60661  -0.58422
 Alpha  occ. eigenvalues --   -0.55947  -0.55194  -0.54304  -0.53144  -0.49869
 Alpha  occ. eigenvalues --   -0.49762  -0.48774  -0.47641  -0.46741  -0.45859
 Alpha  occ. eigenvalues --   -0.45205  -0.44918  -0.44362  -0.43035  -0.42799
 Alpha  occ. eigenvalues --   -0.42743  -0.42497  -0.41687  -0.41305  -0.40855
 Alpha  occ. eigenvalues --   -0.40735  -0.40539  -0.40277  -0.40110  -0.39996
 Alpha  occ. eigenvalues --   -0.39857  -0.39778  -0.39609  -0.39235  -0.39109
 Alpha  occ. eigenvalues --   -0.38866  -0.38517  -0.38250  -0.38003  -0.37964
 Alpha  occ. eigenvalues --   -0.37634  -0.37378  -0.37251  -0.37172  -0.36797
 Alpha  occ. eigenvalues --   -0.36611  -0.35409  -0.35269  -0.34812  -0.34646
 Alpha  occ. eigenvalues --   -0.34216  -0.34004  -0.33577  -0.32736  -0.32372
 Alpha  occ. eigenvalues --   -0.31844  -0.31686  -0.30806  -0.29960  -0.29516
 Alpha  occ. eigenvalues --   -0.28966  -0.28725  -0.28451  -0.27395  -0.27016
 Alpha  occ. eigenvalues --   -0.26937  -0.26058  -0.25996  -0.25288  -0.23043
 Alpha virt. eigenvalues --   -0.04050   0.04508   0.05111   0.05838   0.06832
 Alpha virt. eigenvalues --    0.07153   0.08229   0.08559   0.08697   0.09159
 Alpha virt. eigenvalues --    0.09503   0.10029   0.10251   0.10732   0.11073

 Mulliken charges:
               1
     1  C   -0.367834
     2  C    0.127511
     3  C   -0.500203
     4  C    0.602975
     5  O   -0.485735
     6  O   -0.483662
     7  C   -0.047962
     8  C   -0.304151
     9  C   -0.024066
    10  O   -0.477956
    11  C   -0.013405
    12  C   -0.280169
    13  C   -0.496176
    14  Si   0.907606
    15  C   -0.671672
    16  C   -0.682943
    17  O   -0.630120
    18  Si   0.915830
    19  C   -0.673302
    20  C   -0.680850
    21  C   -0.716793
    22  Si   0.749361
    23  C   -0.672968
    24  C   -0.659737
    25  C   -0.458655
    26  C   -0.257350
    27  C   -0.246544
    28  C   -0.441485
    29  P    0.235367
    30  C   -0.662565
    31  H    0.170502
    32  H    0.149009
    33  H    0.173513
    34  H    0.147315
    35  H    0.172685
    36  H    0.202091
    37  H    0.146676
    38  H    0.161816
    39  H    0.141753
    40  H    0.119439
    41  H    0.119042
    42  H    0.126508
    43  H    0.136098
    44  H    0.144696
    45  H    0.172179
    46  H    0.149409
    47  H    0.158643
    48  H    0.160163
    49  H    0.151727
    50  H    0.174958
    51  H    0.151271
    52  H    0.160790
    53  H    0.155192
    54  H    0.159159
    55  H    0.158271
    56  H    0.160451
    57  H    0.157476
    58  H    0.158413
    59  H    0.167979
    60  H    0.165021
    61  H    0.157490
    62  H    0.158590
    63  H    0.157380
    64  H    0.156355
    65  H    0.160030
    66  H    0.156288
    67  H    0.141097
    68  H    0.146574
    69  H    0.132285
    70  H    0.130360
    71  H    0.129187
    72  H    0.127928
    73  H    0.140885
    74  H    0.144291
    75  H    0.138308
    76  H   -0.012137
    77  H    0.163821
    78  H    0.199684
    79  H    0.196998
 Sum of Mulliken charges =  -0.00000

 Dipole moment (field-independent basis, Debye):
    X=             -1.7598    Y=              0.8456    Z=              0.3942  Tot=              1.9919
 Quadrupole moment (field-independent basis, Debye-Ang):
   XX=           -197.0653   YY=           -219.9325   ZZ=           -211.4693
   XY=             -2.7689   XZ=              2.5001   YZ=              8.7502

 Normal termination of Gaussian 16 at Sat Nov  5 11:24:36 2022.
