 Gaussian 16, Revision B.01,
 Gaussian 16:  ES64L-G16RevB.01 20-Dec-2017

 -----------------------------
 #p b3lyp/6-31g(d) opt SCF=XQC
 -----------------------------

 ------------------------------
 Gaussian input prepared by ASE
 ------------------------------
 Symbolic Z-matrix:
 Charge =  0 Multiplicity = 1

 SCF Done:  E(RB3LYP) =  -2378.75359944     A.U. after   14 cycles
 SCF Done:  E(RB3LYP) =  -2378.76243706     A.U. after   12 cycles
 SCF Done:  E(RB3LYP) =  -2378.76384128     A.U. after   13 cycles
 SCF Done:  E(RB3LYP) =  -2378.76457078     A.U. after   12 cycles
 SCF Done:  E(RB3LYP) =  -2378.76493320     A.U. after   11 cycles
 SCF Done:  E(RB3LYP) =  -2378.76538098     A.U. after   11 cycles
 SCF Done:  E(RB3LYP) =  -2378.76542000     A.U. after   12 cycles
 SCF Done:  E(RB3LYP) =  -2378.76568516     A.U. after   10 cycles
 SCF Done:  E(RB3LYP) =  -2378.76574855     A.U. after   10 cycles
 SCF Done:  E(RB3LYP) =  -2378.76578672     A.U. after   10 cycles
 SCF Done:  E(RB3LYP) =  -2378.76998112     A.U. after    8 cycles
 SCF Done:  E(RB3LYP) =  -2378.76998206     A.U. after    9 cycles
 SCF Done:  E(RB3LYP) =  -2378.76998297     A.U. after    8 cycles
 SCF Done:  E(RB3LYP) =  -2378.76998525     A.U. after   10 cycles
 SCF Done:  E(RB3LYP) =  -2378.76998555     A.U. after    9 cycles
 SCF Done:  E(RB3LYP) =  -2378.76998669     A.U. after    9 cycles
 SCF Done:  E(RB3LYP) =  -2378.76998707     A.U. after    9 cycles
 SCF Done:  E(RB3LYP) =  -2378.76998730     A.U. after    8 cycles
 SCF Done:  E(RB3LYP) =  -2378.76998735     A.U. after    6 cycles
 SCF Done:  E(RB3LYP) =  -2378.76998736     A.U. after    6 cycles
 Optimization completed.
    -- Stationary point found.

                         Standard orientation:
 ---------------------------------------------------------------------
 Center     Atomic      Atomic             Coordinates (Angstroms)
 Number     Number       Type             X           Y           Z
 ---------------------------------------------------------------------
      1          6           0       -7.798534    2.309580    1.097689
      2          6           0       -6.927502    2.681076    0.151026
      3          6           0       -6.850386    4.072574   -0.420130
      4          6           0       -5.944756    1.712488   -0.425906
      5          8           0       -5.153140    2.018088   -1.298750
      6          8           0       -6.030806    0.477411    0.121383
      7          6           0       -5.145316   -0.552174   -0.365424
      8          6           0       -4.421141   -1.209335    0.812879
      9          6           0       -3.795457   -2.538668    0.384957
     10          8           0       -2.774225   -2.302897   -0.569200
     11          6           0       -2.221654   -3.504617   -1.089774
     12          6           0       -1.108546   -3.170400   -2.076806
     13          6           0        0.097756   -2.414692   -1.484867
     14         14           0        1.238009   -3.294157   -0.244685
     15          6           0        1.759119   -4.984465   -0.909396
     16          6           0        0.465566   -3.487581    1.467614
     17          8           0        2.579399   -2.339907   -0.094381
     18         14           0        3.947930   -1.421899    0.076806
     19          6           0        5.034066   -1.712702   -1.439881
     20          6           0        4.845450   -2.007130    1.631709
     21          6           0        3.421629    0.386584    0.188617
     22         14           0        4.618386    1.750332    0.753205
     23          6           0        6.321961    1.586795   -0.069654
     24          6           0        4.835312    1.680724    2.636624
     25          6           0        3.881469    3.453273    0.317965
     26          6           0        3.695137    3.749094   -1.182511
     27          6           0        3.034570    5.104823   -1.494046
     28          6           0        3.868279    6.324977   -1.087250
     29         15           0       -3.175020   -0.147975    1.771062
     30          6           0       -2.285851    0.836719    0.456201
     31          1           0       -7.823627    1.296822    1.482934
     32          1           0       -8.511232    3.018203    1.511447
     33          1           0       -7.014611    4.060568   -1.503411
     34          1           0       -7.595490    4.725689    0.042782
     35          1           0       -5.855759    4.505204   -0.264077
     36          1           0       -4.459519   -0.130896   -1.099249
     37          1           0       -5.783671   -1.290219   -0.868111
     38          1           0       -5.178649   -1.461097    1.569273
     39          1           0       -3.385479   -3.061049    1.264002
     40          1           0       -4.572858   -3.191219   -0.053180
     41          1           0       -3.011371   -4.083494   -1.598857
     42          1           0       -1.845615   -4.129714   -0.263475
     43          1           0       -0.779524   -4.114442   -2.532403
     44          1           0       -1.552606   -2.577248   -2.887529
     45          1           0       -0.248365   -1.478433   -1.028380
     46          1           0        0.752536   -2.109949   -2.314356
     47          1           0        2.241133   -4.895837   -1.890486
     48          1           0        2.473931   -5.466911   -0.231900
     49          1           0        0.902797   -5.661737   -1.019578
     50          1           0        0.030089   -2.545519    1.821243
     51          1           0       -0.327533   -4.244931    1.482425
     52          1           0        1.226705   -3.796639    2.194552
     53          1           0        4.521184   -1.400898   -2.357866
     54          1           0        5.977757   -1.157977   -1.381808
     55          1           0        5.278628   -2.776755   -1.543533
     56          1           0        4.243070   -1.835470    2.531641
     57          1           0        5.804116   -1.492049    1.769062
     58          1           0        5.054059   -3.082315    1.573176
     59          1           0        2.553484    0.429553    0.864193
     60          1           0        3.033140    0.660091   -0.804208
     61          1           0        6.839257    0.671700    0.242968
     62          1           0        6.249953    1.567601   -1.163579
     63          1           0        6.964931    2.433315    0.202325
     64          1           0        3.873692    1.794989    3.152076
     65          1           0        5.274538    0.732147    2.965833
     66          1           0        5.492494    2.487135    2.985036
     67          1           0        2.910658    3.546643    0.829505
     68          1           0        4.528424    4.217618    0.772909
     69          1           0        3.081894    2.958049   -1.636487
     70          1           0        4.669197    3.705660   -1.691734
     71          1           0        2.054963    5.148651   -0.996659
     72          1           0        2.831096    5.156665   -2.572756
     73          1           0        3.367577    7.257398   -1.372507
     74          1           0        4.037191    6.360908   -0.005185
     75          1           0        4.850720    6.312241   -1.576446
     76          1           0       -4.105509    0.860722    2.154775
     77          1           0       -1.639940    1.562688    0.962316
     78          1           0       -2.948475    1.372819   -0.228054
     79          1           0       -1.651496    0.158251   -0.119370
 ---------------------------------------------------------------------

 The electronic state is 1-A.
 Alpha  occ. eigenvalues --  -77.06959 -66.13935 -66.13756 -66.11174 -19.18950
 Alpha  occ. eigenvalues --  -19.15336 -19.13542 -19.11630 -10.31547 -10.24132
 Alpha  occ. eigenvalues --  -10.23991 -10.23235 -10.21057 -10.20268 -10.19742
 Alpha  occ. eigenvalues --  -10.18588 -10.18385 -10.17527 -10.17295 -10.17190
 Alpha  occ. eigenvalues --  -10.16694 -10.15947 -10.15644 -10.15592 -10.15552
 Alpha  occ. eigenvalues --  -10.15411 -10.15348 -10.15304 -10.15286 -10.14537
 Alpha  occ. eigenvalues --   -6.53939  -5.27815  -5.27710  -5.25545  -4.70185
 Alpha  occ. eigenvalues --   -4.70162  -4.69676  -3.63925  -3.63820  -3.63629
 Alpha  occ. eigenvalues --   -3.63623  -3.63524  -3.63503  -3.61434  -3.61426
 Alpha  occ. eigenvalues --   -3.61403  -1.09770  -1.03671  -1.01271  -0.95704
 Alpha  occ. eigenvalues --   -0.81714  -0.80027  -0.78276  -0.76970  -0.71750
 Alpha  occ. eigenvalues --   -0.71304  -0.70790  -0.70128  -0.69374  -0.68885
 Alpha  occ. eigenvalues --   -0.68675  -0.67204  -0.67095  -0.66817  -0.66578
 Alpha  occ. eigenvalues --   -0.66075  -0.62754  -0.62409  -0.60661  -0.58422
 Alpha  occ. eigenvalues --   -0.55947  -0.55194  -0.54304  -0.53144  -0.49869
 Alpha  occ. eigenvalues --   -0.49762  -0.48774  -0.47641  -0.46741  -0.45859
 Alpha  occ. eigenvalues --   -0.45205  -0.44918  -0.44362  -0.43035  -0.42799
 Alpha  occ. eigenvalues --   -0.42743  -0.42497  -0.41687  -0.41305  -0.40855
 Alpha  occ. eigenvalues --   -0.40735  -0.40539  -0.40277  -0.40110  -0.39996
 Alpha  occ. eigenvalues --   -0.39857  -0.39778  -0.39609  -0.39235  -0.39109
 Alpha  occ. eigenvalues --   -0.38866  -0.38517  -0.38251  -0.38003  -0.37964
 Alpha  occ. eigenvalues --   -0.37634  -0.37378  -0.37251  -0.37172  -0.36797
 Alpha  occ. eigenvalues --   -0.36611  -0.35409  -0.35269  -0.34812  -0.34646
 Alpha  occ. eigenvalues --   -0.34216  -0.34004  -0.33577  -0.32736  -0.32372
 Alpha  occ. eigenvalues --   -0.31844  -0.31686  -0.30806  -0.29960  -0.29516
 Alpha  occ. eigenvalues --   -0.28966  -0.28725  -0.28451  -0.27395  -0.27016
 Alpha  occ. eigenvalues --   -0.26937  -0.26058  -0.25996  -0.25288  -0.23043
 Alpha virt. eigenvalues --   -0.04050   0.04508   0.05111   0.05839   0.06833
 Alpha virt. eigenvalues --    0.07153   0.08229   0.08559   0.08697   0.09159
 Alpha virt. eigenvalues --    0.09503   0.10029   0.10251   0.10733   0.11073

 Mulliken charges:
               1
     1  C   -0.367829
     2  C    0.127505
     3  C   -0.500208
     4  C    0.602978
     5  O   -0.485730
     6  O   -0.483664
     7  C   -0.047971
     8  C   -0.304113
     9  C   -0.024090
    10  O   -0.477952
    11  C   -0.013400
    12  C   -0.280162
    13  C   -0.496183
    14  Si   0.907642
    15  C   -0.671695
    16  C   -0.682952
    17  O   -0.630125
    18  Si   0.915850
    19  C   -0.673320
    20  C   -0.680859
    21  C   -0.716755
    22  Si   0.749265
    23  C   -0.672952
    24  C   -0.659735
    25  C   -0.458625
    26  C   -0.257360
    27  C   -0.246542
    28  C   -0.441485
    29  P    0.235337
    30  C   -0.662572
    31  H    0.170502
    32  H    0.149008
    33  H    0.173513
    34  H    0.147316
    35  H    0.172687
    36  H    0.202091
    37  H    0.146677
    38  H    0.161817
    39  H    0.141755
    40  H    0.119443
    41  H    0.119037
    42  H    0.126506
    43  H    0.136097
    44  H    0.144692
    45  H    0.172173
    46  H    0.149410
    47  H    0.158646
    48  H    0.160165
    49  H    0.151732
    50  H    0.174962
    51  H    0.151269
    52  H    0.160789
    53  H    0.155200
    54  H    0.159164
    55  H    0.158275
    56  H    0.160451
    57  H    0.157475
    58  H    0.158410
    59  H    0.167976
    60  H    0.165018
    61  H    0.157492
    62  H    0.158597
    63  H    0.157382
    64  H    0.156354
    65  H    0.160028
    66  H    0.156287
    67  H    0.141096
    68  H    0.146573
    69  H    0.132291
    70  H    0.130365
    71  H    0.129187
    72  H    0.127927
    73  H    0.140886
    74  H    0.144289
    75  H    0.138309
    76  H   -0.012129
    77  H    0.163826
    78  H    0.199682
    79  H    0.197002
 Sum of Mulliken charges =  -0.00000

 Dipole moment (field-independent basis, Debye):
    X=             -1.4877    Y=             -1.3062    Z=              0.2187  Tot=              1.9918
 Quadrupole moment (field-independent basis, Debye-Ang):
   XX=           -199.1331   YY=           -208.0901   ZZ=           -222.6235
   XY=              2.7585   XZ=             -5.5340   YZ=              5.5554

 Normal termination of Gaussian 16 at Fri Nov  4 20:12:03 2022.
