 Gaussian 16, Revision B.01,
 Gaussian 16:  ES64L-G16RevB.01 20-Dec-2017

 -------------------------------------------------------------------
 #p b3lyp/6-31g(d) 6D 10F nosymm GFInput td=(50-50,nstate=2) SCF=XQC
 -------------------------------------------------------------------

 ------------------------------
 Gaussian input prepared by ASE
 ------------------------------
 Symbolic Z-matrix:
 Charge =  0 Multiplicity = 1

                          Input orientation:
 ---------------------------------------------------------------------
 Center     Atomic      Atomic             Coordinates (Angstroms)
 Number     Number       Type             X           Y           Z
 ---------------------------------------------------------------------
      1          6           0       -0.339375   -0.666340   -1.002380
      2          6           0        0.769918   -0.743226   -2.058544
      3          6           0        0.346309   -1.232221   -3.456213
      4          6           0       -0.662921   -0.343853   -4.217137
      5          6           0       -2.137627   -0.700120   -3.961276
      6          6           0       -3.118263    0.146770   -4.809338
      7          6           0       -2.874793    1.644997   -4.572046
      8          8           0       -2.450080    2.392703   -5.453690
      9          7           0       -3.143209    2.099028   -3.313878
     10          6           0       -2.852974    3.483347   -2.970156
     11          7           0       -1.449117    3.833587   -3.078317
     12          6           0       -0.577627    3.461557   -2.078333
     13          8           0       -0.946339    3.000249   -1.002882
     14          6           0        0.847553    3.702201   -2.388558
     15          6           0        1.518626    4.395001   -3.365912
     16          6           0        2.903972    4.253281   -3.086605
     17          6           0        2.999575    3.479559   -1.951543
     18          6           0        4.121847    2.978366   -1.170182
     19          6           0        5.445019    3.253849   -1.549657
     20          6           0        6.491355    2.766587   -0.782402
     21          6           0        6.283360    1.996789    0.370816
     22          6           0        7.539783    1.540370    1.071742
     23          8           0        8.651049    1.789190    0.598412
     24          7           0        7.403358    0.857590    2.242867
     25          6           0        8.568500    0.365283    2.969181
     26          6           0        9.218172    1.469354    3.815929
     27          6           0       10.466034    0.995029    4.543044
     28          6           0       11.320836    2.059730    5.204018
     29          8           0       10.760328   -0.186737    4.589482
     30          6           0        8.075194   -0.783830    3.847071
     31          8           0        7.462393   -0.610547    4.882702
     32          8           0        8.328945   -1.979057    3.295927
     33          6           0        7.832026   -3.143288    4.016070
     34          6           0        6.401796   -3.459032    3.651871
     35          6           0        5.342940   -3.027912    4.461962
     36          6           0        4.022609   -3.319287    4.113586
     37          6           0        3.746799   -4.038346    2.948104
     38          6           0        4.796451   -4.467961    2.133167
     39          6           0        6.114980   -4.181092    2.486171
     40          6           0        4.945084    1.719256    0.746408
     41          8           0        4.748479    0.956433    1.864843
     42          6           0        3.434065    0.519373    2.257334
     43          6           0        2.707350    1.558177    3.101587
     44          6           0        3.885114    2.212243   -0.018548
     45          8           0        1.747394    3.146556   -1.526228
     46          6           0       -4.649300   -0.163300   -4.628354
     47          6           0       -5.381996   -0.159406   -5.984663
     48          6           0       -6.904559   -0.273984   -5.873690
     49          7           0       -4.924282   -1.373373   -3.824528
     50          6           0       -4.807397   -2.670813   -4.260182
     51          8           0       -5.299814   -3.649101   -3.736763
     52          8           0       -5.918873   -1.227758   -2.835331
     53          6           0       -5.475828   -0.677235   -1.646299
     54          8           0       -4.427261   -0.066762   -1.548018
     55          6           0       -6.457050   -0.884858   -0.579244
     56          6           0       -7.529751   -1.783330   -0.689792
     57          6           0       -8.415201   -1.959423    0.361826
     58          6           0       -8.285340   -1.249732    1.584194
     59          7           0       -9.172671   -1.430091    2.609023
     60          6           0      -10.368928   -2.266484    2.457303
     61          6           0      -11.138587   -2.044489    3.764452
     62          6           0      -10.017263   -1.812094    4.786883
     63          6           0       -8.990015   -0.982067    4.004909
     64          6           0       -7.191692   -0.344929    1.651367
     65          9           0       -7.019579    0.401216    2.774832
     66          6           0       -6.299887   -0.168420    0.621423
     67          1           0       -1.056214    0.132632   -1.214219
     68          1           0        0.084933   -0.450827   -0.014378
     69          1           0       -0.890313   -1.612470   -0.928089
     70          1           0        1.559138   -1.417514   -1.697093
     71          1           0        1.238948    0.246185   -2.152946
     72          1           0        1.257441   -1.315575   -4.063396
     73          1           0       -0.054604   -2.254048   -3.378416
     74          1           0       -0.474412   -0.430697   -5.296153
     75          1           0       -0.475005    0.709462   -3.969356
     76          1           0       -2.277595   -1.757177   -4.216953
     77          1           0       -2.387959   -0.614676   -2.901762
     78          1           0       -2.863865   -0.004504   -5.864164
     79          1           0       -3.389265    1.444418   -2.576820
     80          1           0       -3.406767    4.142977   -3.642095
     81          1           0       -3.169824    3.649668   -1.941782
     82          1           0       -1.105013    3.857502   -4.031042
     83          1           0        1.075764    4.958368   -4.175784
     84          1           0        3.724888    4.674331   -3.649104
     85          1           0        5.652680    3.843240   -2.437006
     86          1           0        7.522276    2.960320   -1.057624
     87          1           0        6.475929    0.720262    2.624157
     88          1           0        9.289674   -0.011993    2.242755
     89          1           0        9.460489    2.316954    3.164782
     90          1           0        8.498948    1.830912    4.563223
     91          1           0       10.711117    2.708065    5.844888
     92          1           0       12.110593    1.589821    5.793653
     93          1           0       11.773151    2.702159    4.437617
     94          1           0        8.506151   -3.944153    3.706082
     95          1           0        7.944197   -2.963038    5.086685
     96          1           0        5.561156   -2.456163    5.358768
     97          1           0        3.209670   -2.991353    4.756603
     98          1           0        2.719107   -4.267786    2.678777
     99          1           0        4.588334   -5.030318    1.226882
    100          1           0        6.931352   -4.519461    1.852113
    101          1           0        2.861180    0.234075    1.368390
    102          1           0        3.621977   -0.388495    2.836791
    103          1           0        2.513658    2.478325    2.542634
    104          1           0        3.299797    1.810448    3.986964
    105          1           0        1.744566    1.154235    3.434706
    106          1           0        2.860549    2.017688    0.266859
    107          1           0       -5.081303    0.631074   -4.019494
    108          1           0       -4.986384   -0.967180   -6.615082
    109          1           0       -5.112097    0.776816   -6.490472
    110          1           0       -7.206531   -1.207652   -5.386935
    111          1           0       -7.365908   -0.250638   -6.866740
    112          1           0       -7.323236    0.554718   -5.290390
    113          1           0       -4.159551   -2.715602   -5.155337
    114          1           0       -7.648549   -2.366366   -1.595835
    115          1           0       -9.218835   -2.677214    0.252255
    116          1           0      -10.942884   -1.965688    1.572858
    117          1           0      -10.096070   -3.326415    2.332367
    118          1           0      -11.768810   -1.151233    3.681116
    119          1           0      -11.784961   -2.891083    4.012658
    120          1           0       -9.576674   -2.770550    5.086452
    121          1           0      -10.355606   -1.301015    5.692867
    122          1           0       -9.189668    0.092629    4.096464
    123          1           0       -7.965901   -1.158860    4.340687
    124          1           0       -5.483480    0.535287    0.740463
 ---------------------------------------------------------------------

 SCF Done:  E(RB3LYP) =  -3103.22891975     A.U. after   15 cycles

 Excitation energies and oscillator strengths:

 Excited state symmetry could not be determined.
 Excited State   1:      Triplet-?Sym    2.5173 eV  492.53 nm  f=0.0000  <S**2>=2.000
     240 -> 243        0.10517
     241 -> 243        0.67098
 This state for optimization and/or second-order correction.
 Total Energy, E(TD-HF/TD-DFT) =  -3103.13641112
 Copying the excited state density for this state as the 1-particle RhoCI density.

 Excited state symmetry could not be determined.
 Excited State   2:      Triplet-?Sym    2.7814 eV  445.77 nm  f=0.0000  <S**2>=2.000
     242 -> 244        0.69008

 Excited state symmetry could not be determined.
 Excited State   3:      Singlet-?Sym    3.8192 eV  324.64 nm  f=0.0689  <S**2>=0.000
     241 -> 243        0.14866
     242 -> 243        0.68982

 Excited state symmetry could not be determined.
 Excited State   4:      Singlet-?Sym    3.8395 eV  322.92 nm  f=0.8697  <S**2>=0.000
     241 -> 243        0.66842
     242 -> 243       -0.15350

 Alpha  occ. eigenvalues --  -24.71374 -19.23255 -19.22491 -19.19025 -19.18844
 Alpha  occ. eigenvalues --  -19.15408 -19.13774 -19.13358 -19.12858 -19.11626
 Alpha  occ. eigenvalues --  -19.11602 -19.09975 -14.42312 -14.37617 -14.35641
 Alpha  occ. eigenvalues --  -14.35476 -14.34761 -10.33184 -10.31201 -10.29466
 Alpha  occ. eigenvalues --  -10.29452 -10.28575 -10.28023 -10.27868 -10.27568
 Alpha  occ. eigenvalues --  -10.26377 -10.25847 -10.25779 -10.25638 -10.25105
 Alpha  occ. eigenvalues --  -10.24981 -10.24681 -10.24254 -10.23925 -10.23427
 Alpha  occ. eigenvalues --  -10.23020 -10.21578 -10.20892 -10.20877 -10.20826
 Alpha  occ. eigenvalues --  -10.20719 -10.20688 -10.20684 -10.20441 -10.20279
 Alpha  occ. eigenvalues --  -10.20073 -10.19920 -10.19866 -10.19774 -10.19398
 Alpha  occ. eigenvalues --  -10.19390 -10.19273 -10.19265 -10.19207 -10.19170
 Alpha  occ. eigenvalues --  -10.19110 -10.19044 -10.18980 -10.18766 -10.18658
 Alpha  occ. eigenvalues --  -10.18347 -10.18341 -10.17603 -10.17241 -10.16938
 Alpha  occ. eigenvalues --  -10.15810  -1.22330  -1.14291  -1.12361  -1.09771
 Alpha  occ. eigenvalues --   -1.07314  -1.05257  -1.03764  -1.03701  -1.02974
 Alpha  occ. eigenvalues --   -1.02722  -1.02021  -1.01072  -0.97502  -0.94074
 Alpha  occ. eigenvalues --   -0.91360  -0.91134  -0.89382  -0.87182  -0.86507
 Alpha  occ. eigenvalues --   -0.85657  -0.82116  -0.81486  -0.81228  -0.80366
 Alpha  occ. eigenvalues --   -0.79166  -0.78604  -0.77480  -0.77359  -0.76622
 Alpha  occ. eigenvalues --   -0.76532  -0.75592  -0.75297  -0.75028  -0.74570
 Alpha  occ. eigenvalues --   -0.74170  -0.73507  -0.72553  -0.70544  -0.70507
 Alpha  occ. eigenvalues --   -0.68789  -0.68351  -0.66787  -0.65669  -0.64958
 Alpha  occ. eigenvalues --   -0.64452  -0.63693  -0.63459  -0.62301  -0.62215
 Alpha  occ. eigenvalues --   -0.61044  -0.60813  -0.60522  -0.59924  -0.59723
 Alpha  occ. eigenvalues --   -0.59465  -0.58846  -0.57976  -0.57416  -0.56587
 Alpha  occ. eigenvalues --   -0.56151  -0.55972  -0.55890  -0.55587  -0.54829
 Alpha  occ. eigenvalues --   -0.54303  -0.53203  -0.52783  -0.52597  -0.52096
 Alpha  occ. eigenvalues --   -0.51924  -0.51462  -0.51214  -0.50738  -0.50495
 Alpha  occ. eigenvalues --   -0.49818  -0.48876  -0.48681  -0.48366  -0.47888
 Alpha  occ. eigenvalues --   -0.47416  -0.47266  -0.47069  -0.46869  -0.46809
 Alpha  occ. eigenvalues --   -0.46488  -0.46242  -0.46038  -0.45843  -0.45621
 Alpha  occ. eigenvalues --   -0.45349  -0.45280  -0.45219  -0.44939  -0.44784
 Alpha  occ. eigenvalues --   -0.44397  -0.44220  -0.43860  -0.43807  -0.43763
 Alpha  occ. eigenvalues --   -0.43533  -0.43312  -0.43205  -0.42886  -0.42841
 Alpha  occ. eigenvalues --   -0.42670  -0.42428  -0.42223  -0.41881  -0.41495
 Alpha  occ. eigenvalues --   -0.41269  -0.41122  -0.41032  -0.40996  -0.40805
 Alpha  occ. eigenvalues --   -0.40241  -0.40151  -0.39968  -0.39883  -0.39564
 Alpha  occ. eigenvalues --   -0.39195  -0.39041  -0.38843  -0.38768  -0.38501
 Alpha  occ. eigenvalues --   -0.38450  -0.38113  -0.37767  -0.37737  -0.37498
 Alpha  occ. eigenvalues --   -0.37239  -0.37151  -0.36779  -0.36770  -0.36693
 Alpha  occ. eigenvalues --   -0.36510  -0.36349  -0.36013  -0.35980  -0.35760
 Alpha  occ. eigenvalues --   -0.35404  -0.35294  -0.35282  -0.35206  -0.34900
 Alpha  occ. eigenvalues --   -0.34414  -0.34311  -0.34199  -0.33832  -0.33662
 Alpha  occ. eigenvalues --   -0.33453  -0.32783  -0.32666  -0.31298  -0.30728
 Alpha  occ. eigenvalues --   -0.30539  -0.30149  -0.29731  -0.29367  -0.29278
 Alpha  occ. eigenvalues --   -0.27801  -0.27434  -0.27249  -0.26483  -0.26112
 Alpha  occ. eigenvalues --   -0.25979  -0.25520  -0.25460  -0.25364  -0.25186
 Alpha  occ. eigenvalues --   -0.24798  -0.24412  -0.24389  -0.23614  -0.23496
 Alpha  occ. eigenvalues --   -0.21261  -0.20951
 Alpha virt. eigenvalues --   -0.06030  -0.05361  -0.01548  -0.01164  -0.00989
 Alpha virt. eigenvalues --   -0.00877  -0.00249   0.00451   0.00727   0.01367
 Alpha virt. eigenvalues --    0.01762   0.04056   0.04859   0.05628   0.06722

 Mulliken charges:
               1
     1  C   -0.445697
     2  C   -0.257143
     3  C   -0.257138
     4  C   -0.265426
     5  C   -0.290359
     6  C   -0.188749
     7  C    0.578577
     8  O   -0.543032
     9  N   -0.608806
    10  C   -0.010439
    11  N   -0.605087
    12  C    0.550104
    13  O   -0.526411
    14  C    0.308384
    15  C   -0.215541
    16  C   -0.206383
    17  C    0.319756
    18  C    0.087386
    19  C   -0.179183
    20  C   -0.188039
    21  C    0.025577
    22  C    0.603989
    23  O   -0.551481
    24  N   -0.681498
    25  C    0.020935
    26  C   -0.370816
    27  C    0.469785
    28  C   -0.533083
    29  O   -0.445047
    30  C    0.627200
    31  O   -0.499686
    32  O   -0.444583
    33  C   -0.140320
    34  C    0.139939
    35  C   -0.172969
    36  C   -0.138444
    37  C   -0.128511
    38  C   -0.129398
    39  C   -0.166573
    40  C    0.356777
    41  O   -0.562222
    42  C   -0.052678
    43  C   -0.464929
    44  C   -0.267369
    45  O   -0.479661
    46  C    0.013337
    47  C   -0.272939
    48  C   -0.453722
    49  N   -0.166083
    50  C    0.352389
    51  O   -0.445122
    52  O   -0.398619
    53  C    0.623058
    54  O   -0.499734
    55  C    0.033247
    56  C   -0.157012
    57  C   -0.213149
    58  C    0.345675
    59  N   -0.534367
    60  C   -0.115325
    61  C   -0.299334
    62  C   -0.303687
    63  C   -0.109036
    64  C    0.323810
    65  F   -0.301465
    66  C   -0.239251
    67  H    0.170480
    68  H    0.133155
    69  H    0.135212
    70  H    0.124761
    71  H    0.138939
    72  H    0.130083
    73  H    0.126793
    74  H    0.133074
    75  H    0.142654
    76  H    0.132566
    77  H    0.183096
    78  H    0.155696
    79  H    0.393048
    80  H    0.172736
    81  H    0.186297
    82  H    0.346771
    83  H    0.157978
    84  H    0.154871
    85  H    0.132309
    86  H    0.172164
    87  H    0.372569
    88  H    0.194795
    89  H    0.188294
    90  H    0.180019
    91  H    0.168719
    92  H    0.179772
    93  H    0.177487
    94  H    0.163334
    95  H    0.178971
    96  H    0.156869
    97  H    0.131742
    98  H    0.133452
    99  H    0.134641
   100  H    0.135726
   101  H    0.162666
   102  H    0.172915
   103  H    0.172460
   104  H    0.164176
   105  H    0.157632
   106  H    0.176095
   107  H    0.173234
   108  H    0.142246
   109  H    0.163406
   110  H    0.164940
   111  H    0.152399
   112  H    0.148775
   113  H    0.121643
   114  H    0.177847
   115  H    0.145046
   116  H    0.159688
   117  H    0.151745
   118  H    0.156158
   119  H    0.154841
   120  H    0.154347
   121  H    0.155140
   122  H    0.159041
   123  H    0.166772
   124  H    0.173339
 Sum of Mulliken charges =  -0.00000

 Dipole moment (field-independent basis, Debye):
    X=             -9.7636    Y=              0.4634    Z=              2.3748  Tot=             10.0590
 Quadrupole moment (field-independent basis, Debye-Ang):
   XX=           -348.6888   YY=           -378.0098   ZZ=           -363.6455
   XY=             17.7297   XZ=            -32.7816   YZ=             -9.2182

 Normal termination of Gaussian 16 at Sat Nov  5 11:52:21 2022.
