 Gaussian 16, Revision B.01,
 Gaussian 16:  ES64L-G16RevB.01 20-Dec-2017

 -----------------------------
 #p b3lyp/6-31g(d) opt SCF=XQC
 -----------------------------

 ------------------------------
 Gaussian input prepared by ASE
 ------------------------------
 Symbolic Z-matrix:
 Charge =  0 Multiplicity = 1

 SCF Done:  E(RB3LYP) =  -1239.93123892     A.U. after   15 cycles
 SCF Done:  E(RB3LYP) =  -1239.93732284     A.U. after   14 cycles
 SCF Done:  E(RB3LYP) =  -1239.93690645     A.U. after   14 cycles
 SCF Done:  E(RB3LYP) =  -1239.93985284     A.U. after   13 cycles
 SCF Done:  E(RB3LYP) =  -1239.94035607     A.U. after   12 cycles
 SCF Done:  E(RB3LYP) =  -1239.94073494     A.U. after   12 cycles
 SCF Done:  E(RB3LYP) =  -1239.94094398     A.U. after   12 cycles
 SCF Done:  E(RB3LYP) =  -1239.94107895     A.U. after   12 cycles
 SCF Done:  E(RB3LYP) =  -1239.94120798     A.U. after   11 cycles
 SCF Done:  E(RB3LYP) =  -1239.94125512     A.U. after   11 cycles
 SCF Done:  E(RB3LYP) =  -1239.94127552     A.U. after   10 cycles
 SCF Done:  E(RB3LYP) =  -1239.94130306     A.U. after   10 cycles
 SCF Done:  E(RB3LYP) =  -1239.94131243     A.U. after   10 cycles
 SCF Done:  E(RB3LYP) =  -1239.94131628     A.U. after    9 cycles
 SCF Done:  E(RB3LYP) =  -1239.94131751     A.U. after    8 cycles
 SCF Done:  E(RB3LYP) =  -1239.94131896     A.U. after    9 cycles
 SCF Done:  E(RB3LYP) =  -1239.94131933     A.U. after    8 cycles
 SCF Done:  E(RB3LYP) =  -1239.94131949     A.U. after    7 cycles
 SCF Done:  E(RB3LYP) =  -1239.94131958     A.U. after    7 cycles
 Optimization completed.
    -- Stationary point found.

                         Standard orientation:
 ---------------------------------------------------------------------
 Center     Atomic      Atomic             Coordinates (Angstroms)
 Number     Number       Type             X           Y           Z
 ---------------------------------------------------------------------
      1          6           0       -0.941741   -3.671190   -0.264033
      2          6           0       -1.756589   -2.648011    0.026208
      3          7           0       -3.082000   -2.854087    0.426123
      4          6           0       -4.072559   -1.900713    0.618310
      5          8           0       -5.193888   -2.207589    0.999500
      6          7           0       -3.675728   -0.604058    0.378032
      7          6           0       -2.502624   -0.266778   -0.429209
      8          6           0       -2.177080    1.209693   -0.281599
      9          6           0       -1.775200    1.961072   -1.391210
     10          6           0       -1.449465    3.310677   -1.264681
     11          6           0       -1.525438    3.933093   -0.014912
     12          8           0       -1.223978    5.252744    0.174776
     13          6           0       -1.928397    3.196379    1.104629
     14          6           0       -2.247609    1.849525    0.965532
     15          6           0       -1.336521   -1.183293    0.032480
     16          6           0       -0.116736   -0.943318   -0.869817
     17          8           0       -0.228995   -0.860685   -2.087301
     18          7           0        1.064254   -0.833024   -0.188104
     19          6           0        2.361676   -0.621059   -0.697178
     20          6           0        2.668850   -0.490889   -2.053966
     21          6           0        3.992670   -0.285980   -2.452187
     22          6           0        5.009530   -0.210007   -1.506182
     23          6           0        4.714574   -0.338554   -0.144464
     24          6           0        3.398932   -0.545600    0.264041
     25          8           0        2.983104   -0.710827    1.563467
     26          6           0        3.914302   -0.570845    2.642696
     27          6           0        4.203918    0.886800    2.982030
     28          1           0       -1.287794   -4.699944   -0.217733
     29          1           0        0.085183   -3.509040   -0.563890
     30          1           0       -3.404449   -3.801184    0.574963
     31          1           0       -4.452420    0.044395    0.353051
     32          1           0       -2.673750   -0.484287   -1.491808
     33          1           0       -1.699768    1.481342   -2.362496
     34          1           0       -1.138946    3.879616   -2.139335
     35          1           0       -0.962540    5.641423   -0.674524
     36          1           0       -1.988679    3.693829    2.067549
     37          1           0       -2.571083    1.286264    1.836775
     38          1           0       -1.106663   -0.902520    1.070130
     39          1           0        1.033887   -0.910406    0.820253
     40          1           0        1.867163   -0.552416   -2.776380
     41          1           0        4.219024   -0.185383   -3.509582
     42          1           0        6.038688   -0.048499   -1.813892
     43          1           0        5.513879   -0.274917    0.584804
     44          1           0        4.831698   -1.128244    2.417224
     45          1           0        3.425508   -1.069978    3.484117
     46          1           0        4.872126    0.941524    3.849153
     47          1           0        4.680885    1.409953    2.148068
     48          1           0        3.275473    1.411497    3.228731
 ---------------------------------------------------------------------

 The electronic state is 1-A.
 Alpha  occ. eigenvalues --  -19.19143 -19.18433 -19.12404 -19.10020 -14.37937
 Alpha  occ. eigenvalues --  -14.36672 -14.35255 -10.30796 -10.29902 -10.25806
 Alpha  occ. eigenvalues --  -10.25630 -10.25512 -10.24188 -10.24116 -10.23573
 Alpha  occ. eigenvalues --  -10.22035 -10.19613 -10.19572 -10.19532 -10.19480
 Alpha  occ. eigenvalues --  -10.19456 -10.19440 -10.19111 -10.19014 -10.18597
 Alpha  occ. eigenvalues --  -10.18538 -10.17287  -1.07522  -1.06454  -1.04381
 Alpha  occ. eigenvalues --   -1.04008  -0.94810  -0.94388  -0.91237  -0.85530
 Alpha  occ. eigenvalues --   -0.84975  -0.80858  -0.78504  -0.75969  -0.75204
 Alpha  occ. eigenvalues --   -0.74957  -0.73735  -0.72249  -0.67246  -0.66095
 Alpha  occ. eigenvalues --   -0.64357  -0.62934  -0.61310  -0.60036  -0.59479
 Alpha  occ. eigenvalues --   -0.58843  -0.56706  -0.54981  -0.54642  -0.52820
 Alpha  occ. eigenvalues --   -0.51891  -0.51691  -0.49750  -0.48654  -0.47568
 Alpha  occ. eigenvalues --   -0.47008  -0.46632  -0.45852  -0.45564  -0.44749
 Alpha  occ. eigenvalues --   -0.44122  -0.43713  -0.42915  -0.42629  -0.42313
 Alpha  occ. eigenvalues --   -0.41541  -0.41161  -0.41133  -0.40590  -0.40409
 Alpha  occ. eigenvalues --   -0.39543  -0.39431  -0.38935  -0.38161  -0.37639
 Alpha  occ. eigenvalues --   -0.37085  -0.35769  -0.35012  -0.34214  -0.33595
 Alpha  occ. eigenvalues --   -0.33557  -0.32559  -0.31774  -0.30672  -0.26497
 Alpha  occ. eigenvalues --   -0.25749  -0.25653  -0.24624  -0.24016  -0.22317
 Alpha  occ. eigenvalues --   -0.21755  -0.21065
 Alpha virt. eigenvalues --   -0.01765  -0.00870   0.00091   0.00715   0.01633
 Alpha virt. eigenvalues --    0.04071   0.06338   0.06839   0.07847   0.08497
 Alpha virt. eigenvalues --    0.09006   0.10059   0.10513   0.11956   0.12116

 Mulliken charges:
               1
     1  C   -0.454497
     2  C    0.461147
     3  N   -0.707274
     4  C    0.742179
     5  O   -0.530232
     6  N   -0.645264
     7  C   -0.011479
     8  C    0.110493
     9  C   -0.181384
    10  C   -0.198190
    11  C    0.354723
    12  O   -0.641044
    13  C   -0.160531
    14  C   -0.188817
    15  C   -0.284453
    16  C    0.643008
    17  O   -0.518165
    18  N   -0.730618
    19  C    0.294918
    20  C   -0.172162
    21  C   -0.146606
    22  C   -0.134581
    23  C   -0.199369
    24  C    0.345928
    25  O   -0.558536
    26  C   -0.038744
    27  C   -0.463497
    28  H    0.134584
    29  H    0.158294
    30  H    0.337763
    31  H    0.337777
    32  H    0.171256
    33  H    0.158421
    34  H    0.124129
    35  H    0.409041
    36  H    0.142088
    37  H    0.144061
    38  H    0.161087
    39  H    0.358019
    40  H    0.185690
    41  H    0.130554
    42  H    0.128992
    43  H    0.134296
    44  H    0.149857
    45  H    0.159754
    46  H    0.153216
    47  H    0.168430
    48  H    0.165738
 Sum of Mulliken charges =  -0.00000

 Dipole moment (field-independent basis, Debye):
    X=              5.4836    Y=              2.1791    Z=              1.2677  Tot=              6.0353
 Quadrupole moment (field-independent basis, Debye-Ang):
   XX=           -164.4272   YY=           -148.1883   ZZ=           -149.4269
   XY=             -7.4620   XZ=             13.8167   YZ=             -9.2268

 Normal termination of Gaussian 16 at Fri Nov  4 05:45:36 2022.
