 Gaussian 16, Revision B.01,
 Gaussian 16:  ES64L-G16RevB.01 20-Dec-2017

 -------------------------------------------------------------------
 #p b3lyp/6-31g(d) 6D 10F nosymm GFInput td=(50-50,nstate=2) SCF=XQC
 -------------------------------------------------------------------

 ------------------------------
 Gaussian input prepared by ASE
 ------------------------------
 Symbolic Z-matrix:
 Charge =  0 Multiplicity = 1

                          Input orientation:
 ---------------------------------------------------------------------
 Center     Atomic      Atomic             Coordinates (Angstroms)
 Number     Number       Type             X           Y           Z
 ---------------------------------------------------------------------
      1          6           0       -0.479618    0.002624    3.933857
      2          6           0        0.445459   -0.750132    3.323363
      3          7           0        1.155645   -1.742350    4.009111
      4          6           0        2.229695   -2.492981    3.550816
      5          8           0        2.750839   -3.357181    4.242499
      6          7           0        2.623694   -2.204704    2.263111
      7          6           0        2.284869   -0.951146    1.588308
      8          6           0        2.623089   -1.048389    0.110511
      9          6           0        3.195323    0.038957   -0.558474
     10          6           0        3.487400   -0.028536   -1.919974
     11          6           0        3.211197   -1.197197   -2.636242
     12          8           0        3.477439   -1.328451   -3.970493
     13          6           0        2.641437   -2.294952   -1.981412
     14          6           0        2.351804   -2.213628   -0.623192
     15          6           0        0.776313   -0.677276    1.837723
     16          6           0        0.405574    0.690310    1.244542
     17          8           0        1.120344    1.672305    1.407291
     18          7           0       -0.765959    0.689212    0.538040
     19          6           0       -1.399256    1.760589   -0.124135
     20          6           0       -0.910852    3.069138   -0.160659
     21          6           0       -1.621185    4.059206   -0.844954
     22          6           0       -2.813409    3.751513   -1.491969
     23          6           0       -3.312684    2.444732   -1.462855
     24          6           0       -2.614463    1.450140   -0.781729
     25          8           0       -3.008745    0.139355   -0.658825
     26          6           0       -4.173127   -0.331757   -1.347103
     27          6           0       -3.909736   -0.610103   -2.822536
     28          1           0       -0.698360   -0.117800    4.991156
     29          1           0       -1.033640    0.762577    3.398778
     30          1           0        0.905375   -1.946417    4.967674
     31          1           0        3.507563   -2.633319    2.019326
     32          1           0        2.835225   -0.104557    2.019708
     33          1           0        3.399430    0.955096   -0.012346
     34          1           0        3.932823    0.827537   -2.423831
     35          1           0        3.867438   -0.502474   -4.296676
     36          1           0        2.437878   -3.197887   -2.548489
     37          1           0        1.920305   -3.073809   -0.118356
     38          1           0        0.222025   -1.478612    1.328792
     39          1           0       -1.269174   -0.185398    0.463705
     40          1           0        0.016951    3.291755    0.347269
     41          1           0       -1.231127    5.072520   -0.867113
     42          1           0       -3.365567    4.519397   -2.026210
     43          1           0       -4.241102    2.214835   -1.972714
     44          1           0       -5.000270    0.374605   -1.205564
     45          1           0       -4.437326   -1.255392   -0.824476
     46          1           0       -4.810758   -1.023642   -3.290026
     47          1           0       -3.629627    0.298983   -3.362702
     48          1           0       -3.099145   -1.337294   -2.933508
 ---------------------------------------------------------------------

 SCF Done:  E(RB3LYP) =  -1239.94131448     A.U. after   15 cycles

 Excitation energies and oscillator strengths:

 Excited state symmetry could not be determined.
 Excited State   1:      Triplet-?Sym    3.4051 eV  364.11 nm  f=0.0000  <S**2>=2.000
      94 -> 98         0.21424
      94 ->101         0.20961
      96 -> 98        -0.17910
      97 -> 98         0.54456
      97 ->101        -0.19346
      97 ->103         0.11686
 This state for optimization and/or second-order correction.
 Total Energy, E(TD-HF/TD-DFT) =  -1239.81617824
 Copying the excited state density for this state as the 1-particle RhoCI density.

 Excited state symmetry could not be determined.
 Excited State   2:      Triplet-?Sym    3.6335 eV  341.22 nm  f=0.0000  <S**2>=2.000
      96 -> 99         0.20019
      96 ->100        -0.27112
      96 ->102        -0.50256
      97 -> 99         0.10229
      97 ->100        -0.13530
      97 ->102        -0.24712

 Excited state symmetry could not be determined.
 Excited State   3:      Singlet-?Sym    4.7016 eV  263.71 nm  f=0.1143  <S**2>=0.000
      94 -> 98        -0.13173
      94 ->101         0.11111
      96 -> 98         0.27027
      97 -> 98         0.60625
      97 ->101         0.11712

 Excited state symmetry could not be determined.
 Excited State   4:      Singlet-?Sym    4.7833 eV  259.20 nm  f=0.0732  <S**2>=0.000
      94 -> 98         0.15899
      94 ->101        -0.12211
      96 -> 98         0.61263
      97 -> 98        -0.18264
      97 ->101        -0.18999

 Alpha  occ. eigenvalues --  -19.19143 -19.18433 -19.12404 -19.10020 -14.37937
 Alpha  occ. eigenvalues --  -14.36672 -14.35255 -10.30796 -10.29901 -10.25806
 Alpha  occ. eigenvalues --  -10.25630 -10.25512 -10.24188 -10.24116 -10.23573
 Alpha  occ. eigenvalues --  -10.22035 -10.19613 -10.19572 -10.19532 -10.19480
 Alpha  occ. eigenvalues --  -10.19456 -10.19440 -10.19111 -10.19014 -10.18597
 Alpha  occ. eigenvalues --  -10.18538 -10.17287  -1.07522  -1.06454  -1.04381
 Alpha  occ. eigenvalues --   -1.04008  -0.94810  -0.94388  -0.91237  -0.85530
 Alpha  occ. eigenvalues --   -0.84975  -0.80858  -0.78504  -0.75969  -0.75204
 Alpha  occ. eigenvalues --   -0.74957  -0.73735  -0.72249  -0.67246  -0.66095
 Alpha  occ. eigenvalues --   -0.64357  -0.62934  -0.61310  -0.60036  -0.59479
 Alpha  occ. eigenvalues --   -0.58843  -0.56706  -0.54981  -0.54642  -0.52820
 Alpha  occ. eigenvalues --   -0.51891  -0.51691  -0.49750  -0.48654  -0.47568
 Alpha  occ. eigenvalues --   -0.47008  -0.46632  -0.45852  -0.45564  -0.44749
 Alpha  occ. eigenvalues --   -0.44122  -0.43713  -0.42914  -0.42629  -0.42313
 Alpha  occ. eigenvalues --   -0.41541  -0.41161  -0.41133  -0.40590  -0.40409
 Alpha  occ. eigenvalues --   -0.39543  -0.39430  -0.38935  -0.38161  -0.37639
 Alpha  occ. eigenvalues --   -0.37085  -0.35769  -0.35012  -0.34214  -0.33595
 Alpha  occ. eigenvalues --   -0.33557  -0.32559  -0.31774  -0.30672  -0.26497
 Alpha  occ. eigenvalues --   -0.25749  -0.25653  -0.24624  -0.24016  -0.22317
 Alpha  occ. eigenvalues --   -0.21755  -0.21065
 Alpha virt. eigenvalues --   -0.01765  -0.00871   0.00091   0.00715   0.01633
 Alpha virt. eigenvalues --    0.04071   0.06338   0.06839   0.07847   0.08497
 Alpha virt. eigenvalues --    0.09006   0.10059   0.10513   0.11956   0.12116

 Mulliken charges:
               1
     1  C   -0.454499
     2  C    0.461152
     3  N   -0.707269
     4  C    0.742175
     5  O   -0.530235
     6  N   -0.645259
     7  C   -0.011482
     8  C    0.110469
     9  C   -0.181363
    10  C   -0.198194
    11  C    0.354719
    12  O   -0.641042
    13  C   -0.160524
    14  C   -0.188815
    15  C   -0.284439
    16  C    0.643005
    17  O   -0.518162
    18  N   -0.730635
    19  C    0.294941
    20  C   -0.172187
    21  C   -0.146603
    22  C   -0.134576
    23  C   -0.199373
    24  C    0.345932
    25  O   -0.558540
    26  C   -0.038744
    27  C   -0.463496
    28  H    0.134583
    29  H    0.158295
    30  H    0.337762
    31  H    0.337776
    32  H    0.171255
    33  H    0.158418
    34  H    0.124130
    35  H    0.409041
    36  H    0.142087
    37  H    0.144060
    38  H    0.161086
    39  H    0.358020
    40  H    0.185696
    41  H    0.130554
    42  H    0.128992
    43  H    0.134297
    44  H    0.149856
    45  H    0.159754
    46  H    0.153216
    47  H    0.168431
    48  H    0.165736
 Sum of Mulliken charges =  -0.00000

 Dipole moment (field-independent basis, Debye):
    X=             -3.7748    Y=              1.4736    Z=             -4.4727  Tot=              6.0354
 Quadrupole moment (field-independent basis, Debye-Ang):
   XX=           -140.9179   YY=           -166.1809   ZZ=           -159.5071
   XY=             12.8704   XZ=            -10.0068   YZ=              3.8496

 Normal termination of Gaussian 16 at Sat Nov  5 11:26:27 2022.
