 Gaussian 16, Revision B.01,
 Gaussian 16:  ES64L-G16RevB.01 20-Dec-2017

 -----------------------------
 #p b3lyp/6-31g(d) opt SCF=XQC
 -----------------------------

 ------------------------------
 Gaussian input prepared by ASE
 ------------------------------
 Symbolic Z-matrix:
 Charge =  0 Multiplicity = 1

 SCF Done:  E(RB3LYP) =  -1013.97457687     A.U. after   15 cycles
 SCF Done:  E(RB3LYP) =  -1013.97943175     A.U. after   12 cycles
 SCF Done:  E(RB3LYP) =  -1013.97981705     A.U. after   11 cycles
 SCF Done:  E(RB3LYP) =  -1013.97994369     A.U. after   11 cycles
 SCF Done:  E(RB3LYP) =  -1013.97998373     A.U. after   10 cycles
 SCF Done:  E(RB3LYP) =  -1013.98003457     A.U. after   11 cycles
 SCF Done:  E(RB3LYP) =  -1013.98006986     A.U. after   11 cycles
 SCF Done:  E(RB3LYP) =  -1013.98008500     A.U. after   10 cycles
 SCF Done:  E(RB3LYP) =  -1013.98010120     A.U. after   11 cycles
 SCF Done:  E(RB3LYP) =  -1013.98012149     A.U. after   11 cycles
 SCF Done:  E(RB3LYP) =  -1013.98093355     A.U. after   11 cycles
 SCF Done:  E(RB3LYP) =  -1013.98099086     A.U. after   11 cycles
 SCF Done:  E(RB3LYP) =  -1013.98103418     A.U. after   10 cycles
 SCF Done:  E(RB3LYP) =  -1013.98109516     A.U. after   11 cycles
 SCF Done:  E(RB3LYP) =  -1013.98111440     A.U. after   10 cycles
 SCF Done:  E(RB3LYP) =  -1013.98111918     A.U. after    9 cycles
 SCF Done:  E(RB3LYP) =  -1013.98111975     A.U. after    8 cycles
 SCF Done:  E(RB3LYP) =  -1013.98112014     A.U. after    8 cycles
 SCF Done:  E(RB3LYP) =  -1013.98112036     A.U. after    7 cycles
 SCF Done:  E(RB3LYP) =  -1013.98112043     A.U. after    7 cycles
 Optimization completed.
    -- Stationary point found.

                         Standard orientation:
 ---------------------------------------------------------------------
 Center     Atomic      Atomic             Coordinates (Angstroms)
 Number     Number       Type             X           Y           Z
 ---------------------------------------------------------------------
      1          8           0       -2.003934    2.387409   -0.704170
      2          6           0       -1.371436    1.518479   -0.146169
      3          7           0       -1.904101    0.414300    0.460970
      4          6           0       -3.361703    0.261996    0.544104
      5          6           0       -3.744470   -0.918440    1.493005
      6          6           0       -4.554523   -1.850609    0.565755
      7          6           0       -3.792450   -1.705653   -0.769262
      8          6           0       -3.992232   -0.177547   -0.805543
      9          6           0       -5.524825   -0.076202   -0.631604
     10          7           0       -5.855663   -1.180890    0.322773
     11          7           0        0.068145    1.536940   -0.093340
     12          6           0        0.933667    0.477223   -0.002907
     13          6           0        2.215053    0.994137   -0.007858
     14          6           0        3.490941    0.269479    0.057023
     15          6           0        4.655014    0.906599    0.521509
     16          6           0        5.866440    0.219772    0.585575
     17          6           0        5.951312   -1.117480    0.195993
     18          6           0        4.792905   -1.736542   -0.259571
     19          9           0        4.852492   -3.028556   -0.648869
     20          6           0        3.576339   -1.075124   -0.341541
     21          6           0        2.002702    2.403078   -0.107066
     22          7           0        0.722573    2.726177   -0.168532
     23          1           0       -1.349909   -0.036292    1.176746
     24          1           0       -3.789671    1.215084    0.872394
     25          1           0       -2.850861   -1.430735    1.873102
     26          1           0       -4.340487   -0.589722    2.347242
     27          1           0       -4.699680   -2.858013    0.962842
     28          1           0       -2.738882   -2.002751   -0.722877
     29          1           0       -4.276013   -2.230286   -1.601014
     30          1           0       -3.604171    0.371759   -1.664302
     31          1           0       -6.036549   -0.204256   -1.593247
     32          1           0       -5.828056    0.895235   -0.222719
     33          1           0       -6.485218   -1.839941   -0.130086
     34          1           0        0.578911   -0.542111    0.026945
     35          1           0        4.606227    1.939721    0.851229
     36          1           0        6.754659    0.728763    0.949051
     37          1           0        6.881441   -1.674022    0.237024
     38          1           0        2.715864   -1.605658   -0.735760
     39          1           0        2.748346    3.186267   -0.155147
 ---------------------------------------------------------------------

 The electronic state is 1-A.
 Alpha  occ. eigenvalues --  -24.70685 -19.13228 -14.42651 -14.37684 -14.35933
 Alpha  occ. eigenvalues --  -14.31944 -10.33262 -10.27665 -10.23872 -10.23558
 Alpha  occ. eigenvalues --  -10.22082 -10.21870 -10.21740 -10.20962 -10.20619
 Alpha  occ. eigenvalues --  -10.20520 -10.20116 -10.20013 -10.19812 -10.19588
 Alpha  occ. eigenvalues --  -10.19477 -10.18750  -1.21828  -1.08206  -1.03481
 Alpha  occ. eigenvalues --   -0.94985  -0.92564  -0.87196  -0.84302  -0.80934
 Alpha  occ. eigenvalues --   -0.79969  -0.75670  -0.75104  -0.74500  -0.71588
 Alpha  occ. eigenvalues --   -0.66656  -0.64443  -0.62634  -0.61957  -0.59561
 Alpha  occ. eigenvalues --   -0.59098  -0.56733  -0.56420  -0.55038  -0.53384
 Alpha  occ. eigenvalues --   -0.52791  -0.50310  -0.50211  -0.49214  -0.47689
 Alpha  occ. eigenvalues --   -0.46953  -0.46608  -0.46063  -0.45295  -0.44529
 Alpha  occ. eigenvalues --   -0.43813  -0.42810  -0.41909  -0.41533  -0.40622
 Alpha  occ. eigenvalues --   -0.39488  -0.38461  -0.37743  -0.37239  -0.36756
 Alpha  occ. eigenvalues --   -0.36209  -0.35519  -0.35403  -0.34368  -0.33715
 Alpha  occ. eigenvalues --   -0.33128  -0.29829  -0.29391  -0.28146  -0.27214
 Alpha  occ. eigenvalues --   -0.26501  -0.25310  -0.22926  -0.22668
 Alpha virt. eigenvalues --   -0.03895  -0.01026  -0.00508   0.05018   0.05521
 Alpha virt. eigenvalues --    0.07311   0.08027   0.08552   0.09984   0.11145
 Alpha virt. eigenvalues --    0.11724   0.12715   0.13763   0.14406   0.14698

 Mulliken charges:
               1
     1  O   -0.469950
     2  C    0.783140
     3  N   -0.650723
     4  C    0.068059
     5  C   -0.288150
     6  C   -0.013562
     7  C   -0.274330
     8  C   -0.122921
     9  C   -0.144684
    10  N   -0.545203
    11  N   -0.367059
    12  C    0.039421
    13  C   -0.059310
    14  C    0.127500
    15  C   -0.178580
    16  C   -0.135045
    17  C   -0.196373
    18  C    0.384995
    19  F   -0.299687
    20  C   -0.259111
    21  C    0.034366
    22  N   -0.258548
    23  H    0.334824
    24  H    0.164851
    25  H    0.127156
    26  H    0.167028
    27  H    0.127916
    28  H    0.133935
    29  H    0.135712
    30  H    0.156138
    31  H    0.137393
    32  H    0.150817
    33  H    0.296767
    34  H    0.172068
    35  H    0.136525
    36  H    0.141970
    37  H    0.147762
    38  H    0.139469
    39  H    0.155424
 Sum of Mulliken charges =  -0.00000

 Dipole moment (field-independent basis, Debye):
    X=              0.2935    Y=             -3.6359    Z=              1.4049  Tot=              3.9089
 Quadrupole moment (field-independent basis, Debye-Ang):
   XX=           -114.3958   YY=           -137.2074   ZZ=           -127.2532
   XY=             16.8026   XZ=              7.3738   YZ=              4.1235

 Normal termination of Gaussian 16 at Fri Nov  4 18:38:11 2022.
