 Gaussian 16, Revision B.01,
 Gaussian 16:  ES64L-G16RevB.01 20-Dec-2017

 -------------------------------------------------------------------
 #p b3lyp/6-31g(d) 6D 10F nosymm GFInput td=(50-50,nstate=2) SCF=XQC
 -------------------------------------------------------------------

 ------------------------------
 Gaussian input prepared by ASE
 ------------------------------
 Symbolic Z-matrix:
 Charge =  0 Multiplicity = 1

                          Input orientation:
 ---------------------------------------------------------------------
 Center     Atomic      Atomic             Coordinates (Angstroms)
 Number     Number       Type             X           Y           Z
 ---------------------------------------------------------------------
      1          8           0       -1.273154    2.529568   -1.151151
      2          6           0       -0.737265    1.686837   -0.466254
      3          7           0       -1.383561    0.713366    0.245237
      4          6           0       -2.850827    0.692904    0.282976
      5          6           0       -3.365733   -0.326259    1.349057
      6          6           0       -4.222838   -1.295614    0.506062
      7          6           0       -3.407588   -1.379248   -0.802529
      8          6           0       -3.472480    0.143996   -1.030248
      9          6           0       -4.995348    0.391732   -0.936077
     10          7           0       -5.452145   -0.556117    0.128602
     11          7           0        0.695954    1.593146   -0.353877
     12          6           0        1.462641    0.485017   -0.099812
     13          6           0        2.783579    0.890193   -0.111306
     14          6           0        3.988821    0.076522    0.094996
     15          6           0        5.187974    0.668001    0.529643
     16          6           0        6.332348   -0.103051    0.727819
     17          6           0        6.313413   -1.480495    0.505311
     18          6           0        5.121178   -2.053484    0.077593
     19          9           0        5.080990   -3.384073   -0.151145
     20          6           0        3.970066   -1.309340   -0.135517
     21          6           0        2.697882    2.288874   -0.387705
     22          7           0        1.453399    2.706180   -0.542686
     23          1           0       -0.894459    0.310223    1.033115
     24          1           0       -3.204882    1.711104    0.475901
     25          1           0       -2.533015   -0.859663    1.826047
     26          1           0       -3.958671    0.153001    2.131201
     27          1           0       -4.467988   -2.231109    1.014356
     28          1           0       -2.385930   -1.754053   -0.675409
     29          1           0       -3.907329   -1.960668   -1.585533
     30          1           0       -3.010126    0.549640   -1.931069
     31          1           0       -5.484385    0.188853   -1.896649
     32          1           0       -5.226260    1.427734   -0.660024
     33          1           0       -6.121382   -1.211835   -0.268794
     34          1           0        1.019832   -0.490223    0.036613
     35          1           0        5.218368    1.734331    0.730777
     36          1           0        7.249023    0.371978    1.065715
     37          1           0        7.189790   -2.102388    0.652876
     38          1           0        3.080152   -1.811742   -0.500127
     39          1           0        3.509959    2.996166   -0.497028
 ---------------------------------------------------------------------

 SCF Done:  E(RB3LYP) =  -1013.98111667     A.U. after   15 cycles

 Excitation energies and oscillator strengths:

 Excited state symmetry could not be determined.
 Excited State   1:      Triplet-?Sym    3.2831 eV  377.64 nm  f=0.0000  <S**2>=2.000
      77 -> 80        -0.12256
      77 -> 82         0.20810
      78 -> 80         0.60729
      78 -> 81        -0.14674
 This state for optimization and/or second-order correction.
 Total Energy, E(TD-HF/TD-DFT) =  -1013.86046452
 Copying the excited state density for this state as the 1-particle RhoCI density.

 Excited state symmetry could not be determined.
 Excited State   2:      Triplet-?Sym    4.0109 eV  309.12 nm  f=0.0000  <S**2>=2.000
      72 -> 80        -0.12498
      73 -> 80         0.16942
      74 -> 80        -0.10588
      75 -> 80        -0.18552
      75 -> 81        -0.11783
      76 -> 80        -0.21188
      76 -> 81        -0.13661
      77 -> 82        -0.35628
      78 -> 80         0.16081
      78 -> 81         0.35956
      78 -> 82        -0.10355

 Excited state symmetry could not be determined.
 Excited State   3:      Singlet-?Sym    4.7069 eV  263.41 nm  f=0.0269  <S**2>=0.000
      79 -> 80         0.69599

 Excited state symmetry could not be determined.
 Excited State   4:      Singlet-?Sym    4.7549 eV  260.75 nm  f=0.3722  <S**2>=0.000
      77 -> 80         0.16095
      78 -> 80         0.63767
      78 -> 82        -0.17544

 Alpha  occ. eigenvalues --  -24.70685 -19.13228 -14.42651 -14.37684 -14.35933
 Alpha  occ. eigenvalues --  -14.31944 -10.33261 -10.27665 -10.23872 -10.23558
 Alpha  occ. eigenvalues --  -10.22082 -10.21870 -10.21740 -10.20962 -10.20619
 Alpha  occ. eigenvalues --  -10.20520 -10.20116 -10.20013 -10.19812 -10.19588
 Alpha  occ. eigenvalues --  -10.19477 -10.18750  -1.21828  -1.08206  -1.03481
 Alpha  occ. eigenvalues --   -0.94985  -0.92564  -0.87196  -0.84302  -0.80934
 Alpha  occ. eigenvalues --   -0.79969  -0.75670  -0.75104  -0.74500  -0.71588
 Alpha  occ. eigenvalues --   -0.66656  -0.64443  -0.62634  -0.61957  -0.59561
 Alpha  occ. eigenvalues --   -0.59098  -0.56733  -0.56420  -0.55038  -0.53384
 Alpha  occ. eigenvalues --   -0.52791  -0.50310  -0.50211  -0.49214  -0.47689
 Alpha  occ. eigenvalues --   -0.46953  -0.46607  -0.46063  -0.45295  -0.44529
 Alpha  occ. eigenvalues --   -0.43813  -0.42810  -0.41909  -0.41533  -0.40622
 Alpha  occ. eigenvalues --   -0.39488  -0.38461  -0.37743  -0.37239  -0.36756
 Alpha  occ. eigenvalues --   -0.36209  -0.35519  -0.35403  -0.34368  -0.33715
 Alpha  occ. eigenvalues --   -0.33128  -0.29829  -0.29391  -0.28146  -0.27214
 Alpha  occ. eigenvalues --   -0.26501  -0.25310  -0.22926  -0.22668
 Alpha virt. eigenvalues --   -0.03895  -0.01026  -0.00508   0.05018   0.05521
 Alpha virt. eigenvalues --    0.07312   0.08027   0.08552   0.09984   0.11145
 Alpha virt. eigenvalues --    0.11724   0.12715   0.13763   0.14406   0.14698

 Mulliken charges:
               1
     1  O   -0.469950
     2  C    0.783151
     3  N   -0.650732
     4  C    0.068063
     5  C   -0.288153
     6  C   -0.013563
     7  C   -0.274322
     8  C   -0.122935
     9  C   -0.144669
    10  N   -0.545206
    11  N   -0.367059
    12  C    0.039417
    13  C   -0.059313
    14  C    0.127522
    15  C   -0.178587
    16  C   -0.135046
    17  C   -0.196371
    18  C    0.384996
    19  F   -0.299688
    20  C   -0.259124
    21  C    0.034373
    22  N   -0.258555
    23  H    0.334825
    24  H    0.164852
    25  H    0.127156
    26  H    0.167028
    27  H    0.127916
    28  H    0.133935
    29  H    0.135710
    30  H    0.156138
    31  H    0.137391
    32  H    0.150815
    33  H    0.296766
    34  H    0.172067
    35  H    0.136524
    36  H    0.141970
    37  H    0.147763
    38  H    0.139470
    39  H    0.155424
 Sum of Mulliken charges =  -0.00000

 Dipole moment (field-independent basis, Debye):
    X=             -0.0700    Y=             -3.4471    Z=              1.8418  Tot=              3.9089
 Quadrupole moment (field-independent basis, Debye-Ang):
   XX=           -112.2487   YY=           -139.4046   ZZ=           -128.1893
   XY=             13.6496   XZ=              7.2693   YZ=              5.8811

 Normal termination of Gaussian 16 at Sat Nov  5 11:24:16 2022.
