 Gaussian 16, Revision B.01,
 Gaussian 16:  ES64L-G16RevB.01 20-Dec-2017

 -----------------------------
 #p b3lyp/6-31g(d) opt SCF=XQC
 -----------------------------

 ------------------------------
 Gaussian input prepared by ASE
 ------------------------------
 Symbolic Z-matrix:
 Charge =  0 Multiplicity = 1

 SCF Done:  E(RB3LYP) =  -1292.33664985     A.U. after   15 cycles
 SCF Done:  E(RB3LYP) =  -1292.33919226     A.U. after   12 cycles
 SCF Done:  E(RB3LYP) =  -1292.33728314     A.U. after   13 cycles
 SCF Done:  E(RB3LYP) =  -1292.33963157     A.U. after   12 cycles
 SCF Done:  E(RB3LYP) =  -1292.34074920     A.U. after   12 cycles
 SCF Done:  E(RB3LYP) =  -1292.34085899     A.U. after   12 cycles
 SCF Done:  E(RB3LYP) =  -1292.34094455     A.U. after   11 cycles
 SCF Done:  E(RB3LYP) =  -1292.34098657     A.U. after   10 cycles
 SCF Done:  E(RB3LYP) =  -1292.34100890     A.U. after   10 cycles
 SCF Done:  E(RB3LYP) =  -1292.34101493     A.U. after    9 cycles
 SCF Done:  E(RB3LYP) =  -1292.34102036     A.U. after    9 cycles
 SCF Done:  E(RB3LYP) =  -1292.34102614     A.U. after    9 cycles
 SCF Done:  E(RB3LYP) =  -1292.34102966     A.U. after    9 cycles
 SCF Done:  E(RB3LYP) =  -1292.34103193     A.U. after    9 cycles
 SCF Done:  E(RB3LYP) =  -1292.34103249     A.U. after    8 cycles
 SCF Done:  E(RB3LYP) =  -1292.34103270     A.U. after    7 cycles
 SCF Done:  E(RB3LYP) =  -1292.34103299     A.U. after    8 cycles
 SCF Done:  E(RB3LYP) =  -1292.34103311     A.U. after    7 cycles
 SCF Done:  E(RB3LYP) =  -1292.34103314     A.U. after    7 cycles
 Optimization completed.
    -- Stationary point found.

                         Standard orientation:
 ---------------------------------------------------------------------
 Center     Atomic      Atomic             Coordinates (Angstroms)
 Number     Number       Type             X           Y           Z
 ---------------------------------------------------------------------
      1          6           0        0.149098    3.334223    0.055054
      2          6           0       -0.259691    1.880456   -0.007354
      3          6           0       -1.611428    1.550288    0.040268
      4          6           0       -2.057264    0.213406   -0.016664
      5          6           0       -3.497843   -0.146221    0.037162
      6          6           0       -4.510398    0.784634   -0.249282
      7          6           0       -5.854687    0.421109   -0.184243
      8          6           0       -6.215009   -0.880659    0.166957
      9          6           0       -5.217240   -1.818094    0.444964
     10          6           0       -3.874330   -1.456770    0.378087
     11          7           0       -1.184501   -0.802689   -0.111596
     12          6           0        0.101091   -0.489333   -0.158024
     13         16           0        1.329653   -1.740050   -0.306696
     14          6           0        2.571666   -0.491987   -0.305443
     15          8           0        3.855607   -0.950149   -0.538141
     16          6           0        4.884836   -0.606176    0.303206
     17          7           0        5.995509   -1.306634   -0.044855
     18          8           0        4.820723    0.232615    1.180962
     19          6           0        2.115958    0.793812   -0.193881
     20          7           0        2.935135    1.930785   -0.229131
     21          6           0        0.663869    0.812834   -0.109422
     22          1           0        0.801671    3.607379   -0.781486
     23          1           0       -0.731125    3.982392    0.018031
     24          1           0        0.679929    3.566825    0.988089
     25          1           0       -2.334564    2.351933    0.144899
     26          1           0       -4.253484    1.795459   -0.551301
     27          1           0       -6.621186    1.155877   -0.416420
     28          1           0       -7.263082   -1.163363    0.218562
     29          1           0       -5.486729   -2.835451    0.716669
     30          1           0       -3.094930   -2.180789    0.588319
     31          1           0        6.800624   -1.225306    0.555993
     32          1           0        5.921731   -2.100488   -0.662875
     33          1           0        2.510461    2.730056    0.222107
     34          1           0        3.830834    1.737183    0.214748
 ---------------------------------------------------------------------

 The electronic state is 1-A.
 Alpha  occ. eigenvalues --  -88.89911 -19.21460 -19.13955 -14.37797 -14.33190
 Alpha  occ. eigenvalues --  -14.32929 -10.35652 -10.26173 -10.24857 -10.23251
 Alpha  occ. eigenvalues --  -10.22980 -10.21932 -10.20634 -10.19895 -10.19397
 Alpha  occ. eigenvalues --  -10.19180 -10.18806 -10.18707 -10.18654 -10.18465
 Alpha  occ. eigenvalues --  -10.18086  -7.96072  -5.92505  -5.92178  -5.91657
 Alpha  occ. eigenvalues --   -1.12466  -1.03453  -0.95408  -0.93293  -0.91123
 Alpha  occ. eigenvalues --   -0.85438  -0.83939  -0.82167  -0.76756  -0.73979
 Alpha  occ. eigenvalues --   -0.72898  -0.72054  -0.70503  -0.66774  -0.62748
 Alpha  occ. eigenvalues --   -0.60757  -0.58876  -0.57958  -0.57177  -0.54699
 Alpha  occ. eigenvalues --   -0.53436  -0.51821  -0.50849  -0.49752  -0.47868
 Alpha  occ. eigenvalues --   -0.47002  -0.46704  -0.45277  -0.44303  -0.43783
 Alpha  occ. eigenvalues --   -0.43178  -0.41984  -0.41692  -0.41043  -0.40743
 Alpha  occ. eigenvalues --   -0.40402  -0.39619  -0.38224  -0.36627  -0.35608
 Alpha  occ. eigenvalues --   -0.34904  -0.34009  -0.33737  -0.32475  -0.30913
 Alpha  occ. eigenvalues --   -0.29535  -0.29156  -0.27871  -0.25947  -0.25536
 Alpha  occ. eigenvalues --   -0.24491  -0.22153  -0.18794
 Alpha virt. eigenvalues --   -0.04541  -0.01383   0.00758   0.01768   0.01895
 Alpha virt. eigenvalues --    0.03435   0.06526   0.06826   0.08621   0.09733
 Alpha virt. eigenvalues --    0.10775   0.11257   0.12628   0.13421   0.13748

 Mulliken charges:
               1
     1  C   -0.565538
     2  C    0.180878
     3  C   -0.247378
     4  C    0.249247
     5  C    0.103130
     6  C   -0.179816
     7  C   -0.137701
     8  C   -0.123563
     9  C   -0.134208
    10  C   -0.160895
    11  N   -0.551585
    12  C    0.039155
    13  S    0.234125
    14  C    0.040261
    15  O   -0.513393
    16  C    0.761500
    17  N   -0.751910
    18  O   -0.500450
    19  C    0.277185
    20  N   -0.816018
    21  C    0.081986
    22  H    0.187271
    23  H    0.166970
    24  H    0.169012
    25  H    0.131030
    26  H    0.127726
    27  H    0.128372
    28  H    0.128788
    29  H    0.130595
    30  H    0.156671
    31  H    0.357682
    32  H    0.357433
    33  H    0.320690
    34  H    0.352747
 Sum of Mulliken charges =  -0.00000

 Dipole moment (field-independent basis, Debye):
    X=              2.2386    Y=              0.9107    Z=              0.2970  Tot=              2.4349
 Quadrupole moment (field-independent basis, Debye-Ang):
   XX=            -93.4632   YY=           -112.1876   ZZ=           -133.6217
   XY=            -14.3983   XZ=             -1.1899   YZ=              0.4369

 Normal termination of Gaussian 16 at Fri Nov  4 18:26:00 2022.
