 Gaussian 16, Revision B.01,
 Gaussian 16:  ES64L-G16RevB.01 20-Dec-2017

 -------------------------------------------------------------------
 #p b3lyp/6-31g(d) 6D 10F nosymm GFInput td=(50-50,nstate=2) SCF=XQC
 -------------------------------------------------------------------

 ------------------------------
 Gaussian input prepared by ASE
 ------------------------------
 Symbolic Z-matrix:
 Charge =  0 Multiplicity = 1

                          Input orientation:
 ---------------------------------------------------------------------
 Center     Atomic      Atomic             Coordinates (Angstroms)
 Number     Number       Type             X           Y           Z
 ---------------------------------------------------------------------
      1          6           0        0.427759    2.660872   -1.270630
      2          6           0        0.087343    1.322009   -0.657437
      3          6           0       -1.248721    0.980722   -0.465270
      4          6           0       -1.631599   -0.253928    0.098920
      5          6           0       -3.055199   -0.623111    0.310018
      6          6           0       -4.101518    0.017718   -0.374354
      7          6           0       -5.429066   -0.344748   -0.151358
      8          6           0       -5.738501   -1.356214    0.759115
      9          6           0       -4.706434   -2.007525    1.439003
     10          6           0       -3.380117   -1.647927    1.215386
     11          7           0       -0.711323   -1.152912    0.483750
     12          6           0        0.559422   -0.829428    0.300280
     13         16           0        1.847066   -1.942578    0.745962
     14          6           0        3.030497   -0.770766    0.174468
     15          8           0        4.339469   -1.216993    0.180796
     16          6           0        5.330279   -0.471668    0.770948
     17          7           0        6.480184   -1.194765    0.786134
     18          8           0        5.205769    0.672095    1.163937
     19          6           0        2.513999    0.396714   -0.319108
     20          7           0        3.281155    1.431219   -0.872526
     21          6           0        1.060876    0.376710   -0.255142
     22          1           0        1.088224    2.552548   -2.137991
     23          1           0       -0.479857    3.172622   -1.603242
     24          1           0        0.923598    3.323623   -0.548588
     25          1           0       -2.010050    1.701839   -0.742537
     26          1           0       -3.883343    0.788457   -1.107394
     27          1           0       -6.222107    0.160004   -0.696905
     28          1           0       -6.773577   -1.637761    0.933441
     29          1           0       -4.936101   -2.798645    2.148120
     30          1           0       -2.574125   -2.152564    1.736524
     31          1           0        7.265255   -0.804521    1.283342
     32          1           0        6.458355   -2.186489    0.602821
     33          1           0        2.809197    2.325103   -0.840540
     34          1           0        4.173195    1.510291   -0.387962
 ---------------------------------------------------------------------

 SCF Done:  E(RB3LYP) =  -1292.34103214     A.U. after   15 cycles

 Excitation energies and oscillator strengths:

 Excited state symmetry could not be determined.
 Excited State   1:      Triplet-?Sym    2.4704 eV  501.88 nm  f=0.0000  <S**2>=2.000
      77 -> 79         0.14978
      78 -> 79         0.64955
      78 -> 82        -0.15657
 This state for optimization and/or second-order correction.
 Total Energy, E(TD-HF/TD-DFT) =  -1292.25024726
 Copying the excited state density for this state as the 1-particle RhoCI density.

 Excited state symmetry could not be determined.
 Excited State   2:      Triplet-?Sym    3.2970 eV  376.05 nm  f=0.0000  <S**2>=2.000
      75 -> 79        -0.12362
      76 -> 81         0.18684
      77 -> 79         0.58543
      77 -> 80        -0.11829
      78 -> 79        -0.12715
      78 -> 82         0.18783

 Excited state symmetry could not be determined.
 Excited State   3:      Singlet-?Sym    3.4432 eV  360.08 nm  f=0.1739  <S**2>=0.000
      78 -> 79         0.68666

 Excited state symmetry could not be determined.
 Excited State   4:      Singlet-?Sym    4.0228 eV  308.20 nm  f=0.0036  <S**2>=0.000
      77 -> 79         0.23902
      78 -> 80         0.64961

 Alpha  occ. eigenvalues --  -88.89911 -19.21460 -19.13955 -14.37797 -14.33190
 Alpha  occ. eigenvalues --  -14.32929 -10.35652 -10.26173 -10.24857 -10.23251
 Alpha  occ. eigenvalues --  -10.22980 -10.21932 -10.20634 -10.19895 -10.19397
 Alpha  occ. eigenvalues --  -10.19180 -10.18806 -10.18707 -10.18654 -10.18465
 Alpha  occ. eigenvalues --  -10.18086  -7.96072  -5.92505  -5.92178  -5.91657
 Alpha  occ. eigenvalues --   -1.12466  -1.03453  -0.95408  -0.93293  -0.91123
 Alpha  occ. eigenvalues --   -0.85438  -0.83939  -0.82167  -0.76756  -0.73979
 Alpha  occ. eigenvalues --   -0.72898  -0.72054  -0.70503  -0.66774  -0.62748
 Alpha  occ. eigenvalues --   -0.60757  -0.58876  -0.57958  -0.57177  -0.54699
 Alpha  occ. eigenvalues --   -0.53436  -0.51821  -0.50849  -0.49752  -0.47868
 Alpha  occ. eigenvalues --   -0.47002  -0.46704  -0.45277  -0.44304  -0.43783
 Alpha  occ. eigenvalues --   -0.43178  -0.41984  -0.41692  -0.41043  -0.40743
 Alpha  occ. eigenvalues --   -0.40402  -0.39619  -0.38224  -0.36627  -0.35608
 Alpha  occ. eigenvalues --   -0.34904  -0.34009  -0.33737  -0.32475  -0.30913
 Alpha  occ. eigenvalues --   -0.29535  -0.29156  -0.27871  -0.25947  -0.25536
 Alpha  occ. eigenvalues --   -0.24491  -0.22153  -0.18794
 Alpha virt. eigenvalues --   -0.04541  -0.01383   0.00758   0.01768   0.01895
 Alpha virt. eigenvalues --    0.03435   0.06526   0.06826   0.08621   0.09733
 Alpha virt. eigenvalues --    0.10775   0.11257   0.12628   0.13421   0.13748

 Mulliken charges:
               1
     1  C   -0.565541
     2  C    0.180878
     3  C   -0.247375
     4  C    0.249245
     5  C    0.103129
     6  C   -0.179815
     7  C   -0.137702
     8  C   -0.123563
     9  C   -0.134206
    10  C   -0.160896
    11  N   -0.551582
    12  C    0.039154
    13  S    0.234131
    14  C    0.040244
    15  O   -0.513391
    16  C    0.761497
    17  N   -0.751910
    18  O   -0.500447
    19  C    0.277196
    20  N   -0.816016
    21  C    0.081982
    22  H    0.187271
    23  H    0.166970
    24  H    0.169012
    25  H    0.131030
    26  H    0.127726
    27  H    0.128372
    28  H    0.128788
    29  H    0.130595
    30  H    0.156672
    31  H    0.357682
    32  H    0.357432
    33  H    0.320690
    34  H    0.352746
 Sum of Mulliken charges =  -0.00000

 Dipole moment (field-independent basis, Debye):
    X=              2.1864    Y=              1.0606    Z=             -0.1521  Tot=              2.4349
 Quadrupole moment (field-independent basis, Debye-Ang):
   XX=            -90.2667   YY=           -118.3931   ZZ=           -129.4847
   XY=            -12.3118   XZ=              6.4693   YZ=             -7.9453

 Normal termination of Gaussian 16 at Sat Nov  5 11:09:59 2022.
