 Gaussian 16, Revision B.01,
 Gaussian 16:  ES64L-G16RevB.01 20-Dec-2017

 -------------------------------------------------------------------
 #p b3lyp/6-31g(d) 6D 10F nosymm GFInput td=(50-50,nstate=2) SCF=XQC
 -------------------------------------------------------------------

 ------------------------------
 Gaussian input prepared by ASE
 ------------------------------
 Symbolic Z-matrix:
 Charge =  0 Multiplicity = 1

                          Input orientation:
 ---------------------------------------------------------------------
 Center     Atomic      Atomic             Coordinates (Angstroms)
 Number     Number       Type             X           Y           Z
 ---------------------------------------------------------------------
      1          6           0        2.004199   -1.909862    1.176131
      2          6           0        0.979026   -1.484082    0.147368
      3          8           0        0.289763   -2.295584   -0.448653
      4          6           0        0.795818   -0.008346   -0.094004
      5          6           0        1.901818    0.826994   -0.295589
      6          6           0        1.752750    2.175362   -0.616484
      7          6           0        0.466806    2.690812   -0.700824
      8          9           0        0.297200    3.993532   -0.995789
      9          6           0       -0.657468    1.906151   -0.471046
     10          6           0       -0.495521    0.552802   -0.176987
     11          7           0       -1.669984   -0.229636    0.061294
     12          6           0       -2.472149   -0.626270   -1.093847
     13          6           0       -1.850227   -0.823357    1.284563
     14          8           0       -1.109690   -0.701669    2.244831
     15          1           0        2.974528   -1.422628    1.034292
     16          1           0        2.124240   -2.994548    1.142800
     17          1           0        1.629204   -1.611362    2.163104
     18          1           0        2.903748    0.414017   -0.230965
     19          1           0        2.607157    2.819286   -0.794597
     20          1           0       -1.644922    2.353763   -0.502163
     21          1           0       -2.809401    0.253057   -1.651465
     22          1           0       -3.352547   -1.171895   -0.742839
     23          1           0       -1.888706   -1.277927   -1.752911
     24          1           0       -2.775644   -1.428608    1.313780
 ---------------------------------------------------------------------

 SCF Done:  E(RB3LYP) =  -692.120578840     A.U. after   15 cycles

 Excitation energies and oscillator strengths:

 Excited state symmetry could not be determined.
 Excited State   1:      Triplet-?Sym    3.3768 eV  367.16 nm  f=0.0000  <S**2>=2.000
      47 -> 53        -0.14489
      48 -> 54        -0.11983
      50 -> 52         0.64157
      51 -> 54         0.11199
 This state for optimization and/or second-order correction.
 Total Energy, E(TD-HF/TD-DFT) =  -691.996483263
 Copying the excited state density for this state as the 1-particle RhoCI density.

 Excited state symmetry could not be determined.
 Excited State   2:      Triplet-?Sym    3.5405 eV  350.19 nm  f=0.0000  <S**2>=2.000
      47 -> 52        -0.12450
      47 -> 53         0.20160
      48 -> 52        -0.31362
      48 -> 53        -0.13089
      49 -> 52         0.10103
      49 -> 53         0.13330
      50 -> 54         0.19485
      51 -> 52         0.48698
      51 -> 53        -0.10456

 Excited state symmetry could not be determined.
 Excited State   3:      Singlet-?Sym    3.9737 eV  312.01 nm  f=0.0017  <S**2>=0.000
      48 -> 52        -0.16747
      50 -> 52         0.51984
      50 -> 54         0.14021
      51 -> 52         0.39967

 Excited state symmetry could not be determined.
 Excited State   4:      Singlet-?Sym    4.4803 eV  276.73 nm  f=0.0107  <S**2>=0.000
      48 -> 52         0.18800
      50 -> 52        -0.32696
      51 -> 52         0.56873

 Alpha  occ. eigenvalues --  -24.71855 -19.14188 -19.12170 -14.37762 -10.28998
 Alpha  occ. eigenvalues --  -10.28780 -10.28400 -10.25311 -10.22947 -10.21944
 Alpha  occ. eigenvalues --  -10.21445 -10.21269 -10.21227 -10.18815  -1.23086
 Alpha  occ. eigenvalues --   -1.04426  -1.03579  -0.95279  -0.87434  -0.78422
 Alpha  occ. eigenvalues --   -0.77422  -0.73607  -0.71244  -0.66349  -0.64427
 Alpha  occ. eigenvalues --   -0.59781  -0.56183  -0.53475  -0.52106  -0.50605
 Alpha  occ. eigenvalues --   -0.48623  -0.47788  -0.47193  -0.46091  -0.45161
 Alpha  occ. eigenvalues --   -0.44166  -0.43553  -0.42529  -0.41940  -0.40737
 Alpha  occ. eigenvalues --   -0.40584  -0.38994  -0.38285  -0.37377  -0.36749
 Alpha  occ. eigenvalues --   -0.34969  -0.28337  -0.26704  -0.25825  -0.25027
 Alpha  occ. eigenvalues --   -0.24422
 Alpha virt. eigenvalues --   -0.04819  -0.02809   0.01670   0.02423   0.07292
 Alpha virt. eigenvalues --    0.09668   0.11260   0.12429   0.13071   0.14264
 Alpha virt. eigenvalues --    0.15124   0.15975   0.16533   0.16909   0.17685

 Mulliken charges:
               1
     1  C   -0.537502
     2  C    0.394035
     3  O   -0.450541
     4  C    0.116946
     5  C   -0.201039
     6  C   -0.188441
     7  C    0.387022
     8  F   -0.290922
     9  C   -0.220042
    10  C    0.238377
    11  N   -0.463560
    12  C   -0.316298
    13  C    0.362112
    14  O   -0.471467
    15  H    0.160299
    16  H    0.177912
    17  H    0.210669
    18  H    0.149619
    19  H    0.155272
    20  H    0.158508
    21  H    0.161553
    22  H    0.165418
    23  H    0.192007
    24  H    0.110064
 Sum of Mulliken charges =  -0.00000

 Dipole moment (field-independent basis, Debye):
    X=              0.3178    Y=              0.9129    Z=             -1.8167  Tot=              2.0579
 Quadrupole moment (field-independent basis, Debye-Ang):
   XX=            -63.8507   YY=            -85.9778   ZZ=            -86.7173
   XY=              0.8569   XZ=              4.2310   YZ=             -1.1072

 Normal termination of Gaussian 16 at Sat Nov  5 11:08:08 2022.
