 Gaussian 16, Revision B.01,
 Gaussian 16:  ES64L-G16RevB.01 20-Dec-2017

 -----------------------------
 #p b3lyp/6-31g(d) opt SCF=XQC
 -----------------------------

 ------------------------------
 Gaussian input prepared by ASE
 ------------------------------
 Symbolic Z-matrix:
 Charge =  0 Multiplicity = 1

 SCF Done:  E(RB3LYP) =  -692.114783615     A.U. after   15 cycles
 SCF Done:  E(RB3LYP) =  -692.115362426     A.U. after   15 cycles
 SCF Done:  E(RB3LYP) =  -692.116344271     A.U. after   16 cycles
 SCF Done:  E(RB3LYP) =  -692.118587794     A.U. after   14 cycles
 SCF Done:  E(RB3LYP) =  -692.118700658     A.U. after   12 cycles
 SCF Done:  E(RB3LYP) =  -692.118952110     A.U. after   12 cycles
 SCF Done:  E(RB3LYP) =  -692.119204441     A.U. after   12 cycles
 SCF Done:  E(RB3LYP) =  -692.119727371     A.U. after   14 cycles
 SCF Done:  E(RB3LYP) =  -692.119876534     A.U. after   14 cycles
 SCF Done:  E(RB3LYP) =  -692.119781898     A.U. after   14 cycles
 SCF Done:  E(RB3LYP) =  -692.120304322     A.U. after   13 cycles
 SCF Done:  E(RB3LYP) =  -692.120565185     A.U. after   12 cycles
 SCF Done:  E(RB3LYP) =  -692.120569415     A.U. after    9 cycles
 SCF Done:  E(RB3LYP) =  -692.120569140     A.U. after    9 cycles
 SCF Done:  E(RB3LYP) =  -692.120573687     A.U. after   11 cycles
 SCF Done:  E(RB3LYP) =  -692.120572436     A.U. after    8 cycles
 SCF Done:  E(RB3LYP) =  -692.120577192     A.U. after   11 cycles
 SCF Done:  E(RB3LYP) =  -692.120577395     A.U. after    7 cycles
 SCF Done:  E(RB3LYP) =  -692.120577709     A.U. after    8 cycles
 SCF Done:  E(RB3LYP) =  -692.120577737     A.U. after    7 cycles
 Optimization completed.
    -- Stationary point found.

                         Standard orientation:
 ---------------------------------------------------------------------
 Center     Atomic      Atomic             Coordinates (Angstroms)
 Number     Number       Type             X           Y           Z
 ---------------------------------------------------------------------
      1          6           0       -1.981161   -2.467648    0.328132
      2          6           0       -1.471657   -1.283559   -0.464940
      3          8           0       -2.181916   -0.685256   -1.256410
      4          6           0       -0.057841   -0.826445   -0.216364
      5          6           0        0.998161   -1.746175   -0.191419
      6          6           0        2.324005   -1.336051   -0.060167
      7          6           0        2.579463    0.020839    0.081414
      8          9           0        3.850856    0.440582    0.223640
      9          6           0        1.558599    0.964220    0.100096
     10          6           0        0.238771    0.543411   -0.058734
     11          7           0       -0.792394    1.535464   -0.029044
     12          6           0       -0.967983    2.373427   -1.213157
     13          6           0       -1.752734    1.483465    0.948925
     14          8           0       -1.786401    0.679058    1.863863
     15          1           0       -1.294410   -3.320230    0.305124
     16          1           0       -2.959190   -2.767433   -0.053513
     17          1           0       -2.075659   -2.151611    1.374569
     18          1           0        0.788851   -2.805214   -0.306375
     19          1           0        3.145286   -2.044476   -0.062540
     20          1           0        1.792857    2.011526    0.257143
     21          1           0       -0.044384    2.912227   -1.446721
     22          1           0       -1.755165    3.106191   -1.014631
     23          1           0       -1.261751    1.758681   -2.070604
     24          1           0       -2.506585    2.283537    0.825751
 ---------------------------------------------------------------------

 The electronic state is 1-A.
 Alpha  occ. eigenvalues --  -24.71855 -19.14188 -19.12170 -14.37762 -10.28998
 Alpha  occ. eigenvalues --  -10.28780 -10.28400 -10.25311 -10.22947 -10.21944
 Alpha  occ. eigenvalues --  -10.21445 -10.21269 -10.21227 -10.18815  -1.23086
 Alpha  occ. eigenvalues --   -1.04426  -1.03579  -0.95279  -0.87434  -0.78422
 Alpha  occ. eigenvalues --   -0.77422  -0.73607  -0.71244  -0.66349  -0.64427
 Alpha  occ. eigenvalues --   -0.59781  -0.56183  -0.53475  -0.52106  -0.50605
 Alpha  occ. eigenvalues --   -0.48623  -0.47788  -0.47193  -0.46091  -0.45161
 Alpha  occ. eigenvalues --   -0.44166  -0.43553  -0.42529  -0.41940  -0.40737
 Alpha  occ. eigenvalues --   -0.40584  -0.38994  -0.38285  -0.37377  -0.36749
 Alpha  occ. eigenvalues --   -0.34969  -0.28337  -0.26704  -0.25825  -0.25027
 Alpha  occ. eigenvalues --   -0.24422
 Alpha virt. eigenvalues --   -0.04819  -0.02809   0.01670   0.02423   0.07292
 Alpha virt. eigenvalues --    0.09668   0.11260   0.12429   0.13071   0.14264
 Alpha virt. eigenvalues --    0.15124   0.15975   0.16533   0.16909   0.17685

 Mulliken charges:
               1
     1  C   -0.537494
     2  C    0.394030
     3  O   -0.450539
     4  C    0.116944
     5  C   -0.201034
     6  C   -0.188449
     7  C    0.387025
     8  F   -0.290923
     9  C   -0.220040
    10  C    0.238385
    11  N   -0.463556
    12  C   -0.316304
    13  C    0.362101
    14  O   -0.471461
    15  H    0.160298
    16  H    0.177910
    17  H    0.210668
    18  H    0.149619
    19  H    0.155272
    20  H    0.158507
    21  H    0.161553
    22  H    0.165418
    23  H    0.192008
    24  H    0.110064
 Sum of Mulliken charges =  -0.00000

 Dipole moment (field-independent basis, Debye):
    X=              1.4650    Y=              0.0335    Z=             -1.4447  Tot=              2.0578
 Quadrupole moment (field-independent basis, Debye-Ang):
   XX=            -85.4516   YY=            -64.1363   ZZ=            -87.3897
   XY=             -3.7574   XZ=              0.2121   YZ=             -3.2014

 Normal termination of Gaussian 16 at Fri Nov  4 18:21:35 2022.
