 Gaussian 16, Revision B.01,
 Gaussian 16:  ES64L-G16RevB.01 20-Dec-2017

 -------------------------------------------------------------------
 #p b3lyp/6-31g(d) 6D 10F nosymm GFInput td=(50-50,nstate=2) SCF=XQC
 -------------------------------------------------------------------

 ------------------------------
 Gaussian input prepared by ASE
 ------------------------------
 Symbolic Z-matrix:
 Charge =  0 Multiplicity = 1

                          Input orientation:
 ---------------------------------------------------------------------
 Center     Atomic      Atomic             Coordinates (Angstroms)
 Number     Number       Type             X           Y           Z
 ---------------------------------------------------------------------
      1          6           0        7.941748   -1.600044    2.431806
      2          6           0        6.908493   -2.710111    2.194961
      3          7           0        6.449853   -2.810109    0.813357
      4          6           0        7.155480   -3.755132   -0.044080
      5          6           0        6.549098   -5.165562   -0.058388
      6          6           0        5.360168   -2.083424    0.352323
      7          6           0        4.805381   -2.292849   -0.927061
      8          6           0        3.708569   -1.561734   -1.378447
      9          6           0        3.101784   -0.581957   -0.584691
     10          7           0        2.033311    0.240636   -1.093432
     11          6           0        1.858734    0.305061   -2.542303
     12          6           0        1.186865   -0.873608   -3.230003
     13          6           0        0.475422   -1.917014   -2.775182
     14          6           0        0.057912   -2.339908   -1.386811
     15          6           0       -1.475640   -2.480962   -1.301390
     16          6           0       -1.933206   -3.136639   -0.001955
     17          8           0       -1.140159   -3.682758    0.754865
     18          7           0       -3.278987   -3.149528    0.311969
     19          6           0       -4.497630   -2.577885   -0.266481
     20          6           0       -4.533655   -2.525881   -1.809281
     21          8           0       -5.853446   -2.308064   -2.278901
     22          6           0       -6.637676   -3.481217   -2.401310
     23          6           0       -4.958180   -1.236351    0.360647
     24          6           0       -5.233091   -1.347940    1.847646
     25          6           0       -6.538313   -1.607165    2.284265
     26          6           0       -6.815053   -1.769923    3.641906
     27          6           0       -5.787671   -1.665842    4.581236
     28          6           0       -4.485429   -1.398372    4.155199
     29          6           0       -4.207108   -1.243235    2.796391
     30          8           0       -3.952287   -0.225521    0.100427
     31          6           0       -4.407711    1.050330   -0.067024
     32          8           0       -5.581092    1.336729   -0.147498
     33          6           0       -3.301068    2.082589   -0.169925
     34          6           0       -3.049088    2.591810   -1.659707
     35          6           0       -2.790287    1.386049   -2.549740
     36          6           0       -1.563329    0.958307   -2.226881
     37          6           0       -1.093286    1.888380   -1.126356
     38          8           0       -1.726932    3.134304   -1.529696
     39          6           0       -1.874547    1.652018    0.203058
     40          6           0       -1.124182    2.605396    1.141259
     41          8           0       -1.535440    3.056719    2.196147
     42          7           0        0.095993    2.885889    0.564993
     43          6           0        1.128222    3.643844    1.254817
     44          6           0        1.594429    4.893237    0.491718
     45          6           0        0.472116    5.908171    0.238372
     46          6           0        0.896095    7.126716   -0.596898
     47          6           0        1.952396    8.016262    0.052066
     48          8           0        1.435594    8.492529    1.291916
     49          6           0        0.344000    2.122550   -0.651386
     50          6           0        1.109124    0.808257   -0.233210
     51          8           0        0.937502    0.395869    0.906312
     52          6           0        3.651143   -0.358748    0.688056
     53          6           0        4.742642   -1.084156    1.141616
     54          1           0        7.530216   -0.616384    2.183932
     55          1           0        8.258533   -1.586090    3.481629
     56          1           0        8.831357   -1.756229    1.811007
     57          1           0        7.343985   -3.678087    2.470301
     58          1           0        6.044991   -2.575222    2.855354
     59          1           0        7.205722   -3.351209   -1.061394
     60          1           0        8.193399   -3.807214    0.305987
     61          1           0        6.546693   -5.599291    0.947969
     62          1           0        7.129844   -5.828073   -0.711559
     63          1           0        5.514820   -5.148643   -0.416096
     64          1           0        5.208096   -3.052548   -1.586178
     65          1           0        3.319198   -1.793702   -2.362028
     66          1           0        2.849170    0.442420   -2.995346
     67          1           0        1.291054    1.210329   -2.788224
     68          1           0        1.322305   -0.815672   -4.311941
     69          1           0        0.115890   -2.595844   -3.552658
     70          1           0        0.499032   -3.319368   -1.163525
     71          1           0        0.412163   -1.670122   -0.603098
     72          1           0       -1.836168   -3.090014   -2.141757
     73          1           0       -1.956805   -1.505088   -1.397824
     74          1           0       -3.414492   -3.585343    1.217410
     75          1           0       -5.289847   -3.282481    0.016962
     76          1           0       -4.123826   -3.461126   -2.217613
     77          1           0       -3.944276   -1.689985   -2.190320
     78          1           0       -6.171824   -4.203574   -3.089089
     79          1           0       -6.810489   -3.981999   -1.436767
     80          1           0       -7.602880   -3.171565   -2.809283
     81          1           0       -5.873609   -0.942899   -0.158022
     82          1           0       -7.345037   -1.668424    1.556982
     83          1           0       -7.834249   -1.963566    3.965700
     84          1           0       -6.002108   -1.783854    5.639985
     85          1           0       -3.681616   -1.306701    4.880397
     86          1           0       -3.193639   -1.026297    2.474526
     87          1           0       -3.622690    2.934366    0.435428
     88          1           0       -3.752815    3.345898   -2.008390
     89          1           0       -3.501426    0.939268   -3.234862
     90          1           0       -1.035749    0.094541   -2.603288
     91          1           0       -1.802284    0.634883    0.588394
     92          1           0        1.981622    2.984508    1.466897
     93          1           0        0.687292    3.927772    2.214582
     94          1           0        2.398877    5.349134    1.083850
     95          1           0        2.054077    4.598228   -0.464452
     96          1           0       -0.352196    5.401265   -0.277726
     97          1           0        0.075480    6.255007    1.199718
     98          1           0        1.282538    6.798957   -1.573089
     99          1           0        0.011801    7.744086   -0.800035
    100          1           0        2.188230    8.853844   -0.625140
    101          1           0        2.886772    7.451886    0.206250
    102          1           0        2.120635    9.031277    1.714911
    103          1           0        0.920419    2.713147   -1.369819
    104          1           0        3.220528    0.385140    1.344551
    105          1           0        5.125706   -0.849355    2.127511
 ---------------------------------------------------------------------

 SCF Done:  E(RB3LYP) =  -2414.39432006     A.U. after   15 cycles

 Excitation energies and oscillator strengths:

 Excited state symmetry could not be determined.
 Excited State   1:      Triplet-?Sym    3.0229 eV  410.15 nm  f=0.0000  <S**2>=2.000
     188 ->196        -0.10334
     195 ->196         0.56771
     195 ->197        -0.30585
     195 ->204        -0.16841
     195 ->205         0.10045
 This state for optimization and/or second-order correction.
 Total Energy, E(TD-HF/TD-DFT) =  -2414.28322926
 Copying the excited state density for this state as the 1-particle RhoCI density.

 Excited state symmetry could not be determined.
 Excited State   2:      Triplet-?Sym    3.4955 eV  354.69 nm  f=0.0000  <S**2>=2.000
     195 ->200         0.64999
     195 ->202        -0.22984

 Excited state symmetry could not be determined.
 Excited State   3:      Singlet-?Sym    3.8434 eV  322.59 nm  f=0.2553  <S**2>=0.000
     195 ->196         0.70123

 Excited state symmetry could not be determined.
 Excited State   4:      Singlet-?Sym    4.1734 eV  297.08 nm  f=0.0856  <S**2>=0.000
     195 ->197         0.68052
     195 ->202        -0.11878

 Alpha  occ. eigenvalues --  -19.19433 -19.16395 -19.15683 -19.13532 -19.13508
 Alpha  occ. eigenvalues --  -19.12557 -19.10581 -19.10174 -14.38051 -14.35572
 Alpha  occ. eigenvalues --  -14.35139 -14.34709 -10.31625 -10.29608 -10.28506
 Alpha  occ. eigenvalues --  -10.27138 -10.26083 -10.25451 -10.25076 -10.24751
 Alpha  occ. eigenvalues --  -10.24686 -10.24513 -10.24483 -10.23988 -10.22437
 Alpha  occ. eigenvalues --  -10.22259 -10.22248 -10.22149 -10.21836 -10.20764
 Alpha  occ. eigenvalues --  -10.20750 -10.20252 -10.20115 -10.19988 -10.19812
 Alpha  occ. eigenvalues --  -10.19689 -10.19543 -10.19482 -10.19050 -10.18944
 Alpha  occ. eigenvalues --  -10.18821 -10.18737 -10.18650 -10.18569 -10.18439
 Alpha  occ. eigenvalues --  -10.18144 -10.18086 -10.18067 -10.17830 -10.17776
 Alpha  occ. eigenvalues --  -10.17677 -10.17183 -10.16279  -1.09975  -1.06548
 Alpha  occ. eigenvalues --   -1.04702  -1.04585  -1.02649  -1.01872  -1.01500
 Alpha  occ. eigenvalues --   -1.00648  -0.94948  -0.94388  -0.93682  -0.91694
 Alpha  occ. eigenvalues --   -0.85431  -0.83795  -0.82322  -0.81227  -0.80094
 Alpha  occ. eigenvalues --   -0.79502  -0.77786  -0.77445  -0.77305  -0.77199
 Alpha  occ. eigenvalues --   -0.75705  -0.75514  -0.74233  -0.73775  -0.72962
 Alpha  occ. eigenvalues --   -0.72241  -0.71748  -0.71199  -0.69719  -0.68063
 Alpha  occ. eigenvalues --   -0.66961  -0.65700  -0.64435  -0.64127  -0.63606
 Alpha  occ. eigenvalues --   -0.61834  -0.61128  -0.60468  -0.60136  -0.59519
 Alpha  occ. eigenvalues --   -0.58841  -0.58354  -0.56991  -0.56274  -0.56104
 Alpha  occ. eigenvalues --   -0.55887  -0.55153  -0.54960  -0.54536  -0.52491
 Alpha  occ. eigenvalues --   -0.52275  -0.51901  -0.51311  -0.50909  -0.50834
 Alpha  occ. eigenvalues --   -0.50622  -0.50031  -0.49413  -0.48850  -0.48632
 Alpha  occ. eigenvalues --   -0.48147  -0.47449  -0.47112  -0.46581  -0.46274
 Alpha  occ. eigenvalues --   -0.46155  -0.46047  -0.45897  -0.45545  -0.45302
 Alpha  occ. eigenvalues --   -0.45045  -0.44628  -0.44065  -0.43870  -0.43611
 Alpha  occ. eigenvalues --   -0.43384  -0.43239  -0.42881  -0.42582  -0.42381
 Alpha  occ. eigenvalues --   -0.41797  -0.41568  -0.41503  -0.41368  -0.41266
 Alpha  occ. eigenvalues --   -0.40855  -0.40663  -0.40399  -0.40088  -0.39849
 Alpha  occ. eigenvalues --   -0.39654  -0.39202  -0.38876  -0.38757  -0.38667
 Alpha  occ. eigenvalues --   -0.38384  -0.38146  -0.37944  -0.37589  -0.37345
 Alpha  occ. eigenvalues --   -0.37314  -0.36960  -0.36553  -0.36255  -0.36055
 Alpha  occ. eigenvalues --   -0.35517  -0.35471  -0.35283  -0.35095  -0.34830
 Alpha  occ. eigenvalues --   -0.34767  -0.34574  -0.34410  -0.34244  -0.33824
 Alpha  occ. eigenvalues --   -0.33672  -0.33029  -0.32966  -0.32379  -0.31895
 Alpha  occ. eigenvalues --   -0.31495  -0.30453  -0.30270  -0.30140  -0.27544
 Alpha  occ. eigenvalues --   -0.27370  -0.27317  -0.26411  -0.25949  -0.25849
 Alpha  occ. eigenvalues --   -0.25668  -0.25231  -0.25054  -0.24675  -0.24282
 Alpha  occ. eigenvalues --   -0.24081  -0.23972  -0.23358  -0.22831  -0.17700
 Alpha virt. eigenvalues --   -0.01977  -0.00773  -0.00470  -0.00050   0.00522
 Alpha virt. eigenvalues --    0.00642   0.00795   0.02962   0.03667   0.04441
 Alpha virt. eigenvalues --    0.06737   0.07131   0.07487   0.07613   0.08306

 Mulliken charges:
               1
     1  C   -0.442051
     2  C   -0.151219
     3  N   -0.482604
     4  C   -0.150070
     5  C   -0.443523
     6  C    0.384479
     7  C   -0.210516
     8  C   -0.184853
     9  C    0.308107
    10  N   -0.537472
    11  C   -0.208783
    12  C   -0.133565
    13  C   -0.095071
    14  C   -0.318463
    15  C   -0.403247
    16  C    0.606962
    17  O   -0.502666
    18  N   -0.620735
    19  C    0.003293
    20  C   -0.044362
    21  O   -0.462529
    22  C   -0.208590
    23  C    0.051781
    24  C    0.123941
    25  C   -0.176817
    26  C   -0.130948
    27  C   -0.125693
    28  C   -0.129898
    29  C   -0.183566
    30  O   -0.496480
    31  C    0.653750
    32  O   -0.475208
    33  C   -0.217746
    34  C    0.085680
    35  C   -0.160967
    36  C   -0.088069
    37  C    0.207745
    38  O   -0.490422
    39  C   -0.238675
    40  C    0.638931
    41  O   -0.525564
    42  N   -0.398985
    43  C   -0.155784
    44  C   -0.273318
    45  C   -0.261160
    46  C   -0.268689
    47  C   -0.032611
    48  O   -0.614437
    49  C   -0.135093
    50  C    0.604333
    51  O   -0.502257
    52  C   -0.152570
    53  C   -0.209320
    54  H    0.160410
    55  H    0.144114
    56  H    0.148153
    57  H    0.146353
    58  H    0.159225
    59  H    0.151995
    60  H    0.145775
    61  H    0.151276
    62  H    0.142014
    63  H    0.164055
    64  H    0.123883
    65  H    0.135239
    66  H    0.170822
    67  H    0.179308
    68  H    0.131220
    69  H    0.125761
    70  H    0.180413
    71  H    0.196288
    72  H    0.156054
    73  H    0.185174
    74  H    0.336624
    75  H    0.155648
    76  H    0.136506
    77  H    0.164202
    78  H    0.138619
    79  H    0.136483
    80  H    0.169388
    81  H    0.188696
    82  H    0.131058
    83  H    0.131749
    84  H    0.132718
    85  H    0.142316
    86  H    0.162422
    87  H    0.206488
    88  H    0.158185
    89  H    0.156743
    90  H    0.165176
    91  H    0.207002
    92  H    0.144592
    93  H    0.188009
    94  H    0.140459
    95  H    0.118999
    96  H    0.158488
    97  H    0.163602
    98  H    0.122251
    99  H    0.145517
   100  H    0.115983
   101  H    0.115232
   102  H    0.390465
   103  H    0.167467
   104  H    0.158086
   105  H    0.128884
 Sum of Mulliken charges =  -0.00000

 Dipole moment (field-independent basis, Debye):
    X=              4.2691    Y=             -3.8240    Z=             -5.0644  Tot=              7.6483
 Quadrupole moment (field-independent basis, Debye-Ang):
   XX=           -268.6800   YY=           -302.5658   ZZ=           -298.4701
   XY=             29.9372   XZ=              8.7430   YZ=             -0.6912

 Normal termination of Gaussian 16 at Sat Nov  5 11:45:25 2022.
