 Gaussian 16, Revision B.01,
 Gaussian 16:  ES64L-G16RevB.01 20-Dec-2017

 -----------------------------
 #p b3lyp/6-31g(d) opt SCF=XQC
 -----------------------------

 ------------------------------
 Gaussian input prepared by ASE
 ------------------------------
 Symbolic Z-matrix:
 Charge =  0 Multiplicity = 1

 SCF Done:  E(RB3LYP) =  -2414.37675916     A.U. after   15 cycles
 SCF Done:  E(RB3LYP) =  -2414.39110888     A.U. after   12 cycles
 SCF Done:  E(RB3LYP) =  -2414.39108410     A.U. after   12 cycles
 SCF Done:  E(RB3LYP) =  -2414.39234481     A.U. after   13 cycles
 SCF Done:  E(RB3LYP) =  -2414.39372879     A.U. after   12 cycles
 SCF Done:  E(RB3LYP) =  -2414.39390578     A.U. after   11 cycles
 SCF Done:  E(RB3LYP) =  -2414.39407739     A.U. after   11 cycles
 SCF Done:  E(RB3LYP) =  -2414.39412956     A.U. after   11 cycles
 SCF Done:  E(RB3LYP) =  -2414.39423452     A.U. after   10 cycles
 SCF Done:  E(RB3LYP) =  -2414.39426693     A.U. after   11 cycles
 SCF Done:  E(RB3LYP) =  -2414.39430043     A.U. after   10 cycles
 SCF Done:  E(RB3LYP) =  -2414.39430756     A.U. after   10 cycles
 SCF Done:  E(RB3LYP) =  -2414.39431264     A.U. after    9 cycles
 SCF Done:  E(RB3LYP) =  -2414.39431560     A.U. after    9 cycles
 SCF Done:  E(RB3LYP) =  -2414.39431710     A.U. after    9 cycles
 SCF Done:  E(RB3LYP) =  -2414.39431798     A.U. after    9 cycles
 SCF Done:  E(RB3LYP) =  -2414.39431832     A.U. after    7 cycles
 SCF Done:  E(RB3LYP) =  -2414.39431850     A.U. after    7 cycles
 SCF Done:  E(RB3LYP) =  -2414.39431858     A.U. after    7 cycles
 SCF Done:  E(RB3LYP) =  -2414.39431860     A.U. after    6 cycles
 Optimization completed.
    -- Stationary point found.

                         Standard orientation:
 ---------------------------------------------------------------------
 Center     Atomic      Atomic             Coordinates (Angstroms)
 Number     Number       Type             X           Y           Z
 ---------------------------------------------------------------------
      1          6           0        8.297834   -1.666071    2.461454
      2          6           0        7.266113   -2.778521    2.229141
      3          7           0        6.818534   -2.894323    0.845146
      4          6           0        7.530677   -3.849360    0.004351
      5          6           0        6.923924   -5.259700    0.001442
      6          6           0        5.732842   -2.172714    0.367035
      7          6           0        5.188259   -2.396732   -0.914260
      8          6           0        4.095365   -1.670580   -1.382832
      9          6           0        3.482584   -0.681553   -0.605320
     10          7           0        2.418520    0.135402   -1.132068
     11          6           0        2.255592    0.183160   -2.582940
     12          6           0        1.588839   -1.003183   -3.262373
     13          6           0        0.873397   -2.041085   -2.801275
     14          6           0        0.444614   -2.447829   -1.411516
     15          6           0       -1.089624   -2.587481   -1.336782
     16          6           0       -1.557833   -3.228007   -0.033587
     17          8           0       -0.771077   -3.765573    0.735818
     18          7           0       -2.906093   -3.236918    0.269656
     19          6           0       -4.119853   -2.671660   -0.325106
     20          6           0       -4.143483   -2.637442   -1.868642
     21          8           0       -5.459388   -2.424705   -2.351318
     22          6           0       -6.243031   -3.598983   -2.466482
     23          6           0       -4.584937   -1.322861    0.282797
     24          6           0       -4.871805   -1.417221    1.768730
     25          6           0       -6.180580   -1.671047    2.197821
     26          6           0       -6.468258   -1.818064    3.554984
     27          6           0       -5.448406   -1.703430    4.501265
     28          6           0       -4.142693   -1.441237    4.082636
     29          6           0       -3.853427   -1.301855    2.724407
     30          8           0       -3.576627   -0.315367    0.019020
     31          6           0       -4.030236    0.958590   -0.166780
     32          8           0       -5.202832    1.244353   -0.259964
     33          6           0       -2.922435    1.989299   -0.272692
     34          6           0       -2.658332    2.481239   -1.766177
     35          6           0       -2.392832    1.265225   -2.640143
     36          6           0       -1.168656    0.840909   -2.302539
     37          6           0       -0.707122    1.783487   -1.209075
     38          8           0       -1.337066    3.024845   -1.631824
     39          6           0       -1.499105    1.562680    0.116665
     40          6           0       -0.755948    2.526615    1.049802
     41          8           0       -1.175491    2.990182    2.096082
     42          7           0        0.468911    2.800119    0.480149
     43          6           0        1.495845    3.565704    1.169449
     44          6           0        1.968605    4.806091    0.395761
     45          6           0        0.848723    5.818334    0.121733
     46          6           0        1.279824    7.027052   -0.724102
     47          6           0        2.331204    7.923742   -0.076983
     48          8           0        1.804646    8.414413    1.153106
     49          6           0        0.726392    2.022737   -0.725318
     50          6           0        1.487667    0.713151   -0.285891
     51          8           0        1.306763    0.313977    0.856896
     52          6           0        4.021797   -0.443827    0.669136
     53          6           0        5.109363   -1.164247    1.139774
     54          1           0        7.888655   -0.685226    2.198962
     55          1           0        8.606193   -1.640095    3.513556
     56          1           0        9.192337   -1.829641    1.849656
     57          1           0        7.699037   -3.743373    2.519108
     58          1           0        6.397391   -2.635796    2.880985
     59          1           0        7.589221   -3.457209   -1.017116
     60          1           0        8.565736   -3.897676    0.363312
     61          1           0        6.913292   -5.681794    1.012680
     62          1           0        7.509653   -5.929853   -0.639367
     63          1           0        5.892555   -5.246632   -0.364726
     64          1           0        5.595976   -3.164088   -1.561321
     65          1           0        3.713812   -1.913772   -2.366765
     66          1           0        3.249679    0.315022   -3.029574
     67          1           0        1.690227    1.085683   -2.843829
     68          1           0        1.732972   -0.957763   -4.343786
     69          1           0        0.519869   -2.728741   -3.573732
     70          1           0        0.883578   -3.424766   -1.173419
     71          1           0        0.792808   -1.769143   -0.632760
     72          1           0       -1.443619   -3.206088   -2.172936
     73          1           0       -1.569651   -1.612656   -1.448319
     74          1           0       -3.049011   -3.662226    1.178945
     75          1           0       -4.914570   -3.372731   -0.039924
     76          1           0       -3.730728   -3.577442   -2.262862
     77          1           0       -3.550768   -1.806152   -2.254553
     78          1           0       -5.771936   -4.329347   -3.142126
     79          1           0       -6.423753   -4.088563   -1.497646
     80          1           0       -7.204821   -3.293800   -2.885729
     81          1           0       -5.496072   -1.035167   -0.246550
     82          1           0       -6.981466   -1.740475    1.464844
     83          1           0       -7.490088   -2.007690    3.872801
     84          1           0       -5.671370   -1.809168    5.559550
     85          1           0       -3.344690   -1.341423    4.813155
     86          1           0       -2.837331   -1.088912    2.408204
     87          1           0       -3.248596    2.848086    0.320199
     88          1           0       -3.358969    3.231442   -2.129166
     89          1           0       -3.098614    0.810762   -3.325752
     90          1           0       -0.638384   -0.027280   -2.664716
     91          1           0       -1.430299    0.550037    0.514270
     92          1           0        2.347280    2.908631    1.395958
     93          1           0        1.047333    3.860799    2.122307
     94          1           0        2.768441    5.268572    0.989034
     95          1           0        2.435802    4.499952   -0.553225
     96          1           0        0.028396    5.305729   -0.395085
     97          1           0        0.444514    6.176337    1.075802
     98          1           0        1.673967    6.687955   -1.693318
     99          1           0        0.397409    7.642273   -0.941433
    100          1           0        2.572763    8.753396   -0.761887
    101          1           0        3.264112    7.360934    0.091190
    102          1           0        2.486465    8.957821    1.575345
    103          1           0        1.308766    2.604857   -1.445865
    104          1           0        3.586197    0.307696    1.313535
    105          1           0        5.484591   -0.918193    2.125938
 ---------------------------------------------------------------------

 The electronic state is 1-A.
 Alpha  occ. eigenvalues --  -19.19433 -19.16395 -19.15683 -19.13532 -19.13508
 Alpha  occ. eigenvalues --  -19.12557 -19.10581 -19.10174 -14.38051 -14.35572
 Alpha  occ. eigenvalues --  -14.35139 -14.34709 -10.31625 -10.29608 -10.28506
 Alpha  occ. eigenvalues --  -10.27138 -10.26083 -10.25451 -10.25076 -10.24751
 Alpha  occ. eigenvalues --  -10.24686 -10.24513 -10.24483 -10.23988 -10.22437
 Alpha  occ. eigenvalues --  -10.22259 -10.22248 -10.22149 -10.21836 -10.20764
 Alpha  occ. eigenvalues --  -10.20750 -10.20252 -10.20115 -10.19988 -10.19812
 Alpha  occ. eigenvalues --  -10.19689 -10.19543 -10.19482 -10.19050 -10.18944
 Alpha  occ. eigenvalues --  -10.18821 -10.18737 -10.18649 -10.18569 -10.18439
 Alpha  occ. eigenvalues --  -10.18144 -10.18086 -10.18067 -10.17830 -10.17776
 Alpha  occ. eigenvalues --  -10.17677 -10.17183 -10.16279  -1.09976  -1.06548
 Alpha  occ. eigenvalues --   -1.04702  -1.04585  -1.02649  -1.01872  -1.01500
 Alpha  occ. eigenvalues --   -1.00648  -0.94948  -0.94388  -0.93682  -0.91694
 Alpha  occ. eigenvalues --   -0.85431  -0.83795  -0.82321  -0.81227  -0.80094
 Alpha  occ. eigenvalues --   -0.79502  -0.77786  -0.77445  -0.77305  -0.77199
 Alpha  occ. eigenvalues --   -0.75705  -0.75514  -0.74233  -0.73775  -0.72962
 Alpha  occ. eigenvalues --   -0.72241  -0.71748  -0.71199  -0.69719  -0.68063
 Alpha  occ. eigenvalues --   -0.66961  -0.65700  -0.64435  -0.64127  -0.63606
 Alpha  occ. eigenvalues --   -0.61834  -0.61128  -0.60468  -0.60136  -0.59519
 Alpha  occ. eigenvalues --   -0.58841  -0.58354  -0.56991  -0.56274  -0.56104
 Alpha  occ. eigenvalues --   -0.55887  -0.55153  -0.54960  -0.54536  -0.52491
 Alpha  occ. eigenvalues --   -0.52275  -0.51901  -0.51311  -0.50909  -0.50834
 Alpha  occ. eigenvalues --   -0.50622  -0.50031  -0.49413  -0.48850  -0.48632
 Alpha  occ. eigenvalues --   -0.48147  -0.47449  -0.47112  -0.46581  -0.46274
 Alpha  occ. eigenvalues --   -0.46155  -0.46047  -0.45897  -0.45545  -0.45302
 Alpha  occ. eigenvalues --   -0.45045  -0.44628  -0.44065  -0.43870  -0.43611
 Alpha  occ. eigenvalues --   -0.43384  -0.43239  -0.42881  -0.42582  -0.42381
 Alpha  occ. eigenvalues --   -0.41797  -0.41568  -0.41503  -0.41368  -0.41266
 Alpha  occ. eigenvalues --   -0.40855  -0.40663  -0.40399  -0.40087  -0.39849
 Alpha  occ. eigenvalues --   -0.39654  -0.39202  -0.38876  -0.38757  -0.38667
 Alpha  occ. eigenvalues --   -0.38384  -0.38146  -0.37944  -0.37589  -0.37345
 Alpha  occ. eigenvalues --   -0.37314  -0.36960  -0.36553  -0.36255  -0.36055
 Alpha  occ. eigenvalues --   -0.35517  -0.35471  -0.35283  -0.35095  -0.34830
 Alpha  occ. eigenvalues --   -0.34767  -0.34574  -0.34410  -0.34244  -0.33824
 Alpha  occ. eigenvalues --   -0.33672  -0.33029  -0.32966  -0.32379  -0.31895
 Alpha  occ. eigenvalues --   -0.31495  -0.30453  -0.30270  -0.30140  -0.27544
 Alpha  occ. eigenvalues --   -0.27370  -0.27317  -0.26411  -0.25949  -0.25849
 Alpha  occ. eigenvalues --   -0.25668  -0.25231  -0.25054  -0.24675  -0.24282
 Alpha  occ. eigenvalues --   -0.24081  -0.23972  -0.23358  -0.22832  -0.17700
 Alpha virt. eigenvalues --   -0.01977  -0.00773  -0.00470  -0.00050   0.00522
 Alpha virt. eigenvalues --    0.00642   0.00795   0.02962   0.03667   0.04441
 Alpha virt. eigenvalues --    0.06737   0.07131   0.07487   0.07613   0.08306

 Mulliken charges:
               1
     1  C   -0.442051
     2  C   -0.151217
     3  N   -0.482603
     4  C   -0.150071
     5  C   -0.443524
     6  C    0.384480
     7  C   -0.210519
     8  C   -0.184847
     9  C    0.308110
    10  N   -0.537475
    11  C   -0.208786
    12  C   -0.133563
    13  C   -0.095067
    14  C   -0.318464
    15  C   -0.403243
    16  C    0.606960
    17  O   -0.502666
    18  N   -0.620739
    19  C    0.003304
    20  C   -0.044360
    21  O   -0.462529
    22  C   -0.208591
    23  C    0.051758
    24  C    0.123954
    25  C   -0.176819
    26  C   -0.130948
    27  C   -0.125694
    28  C   -0.129897
    29  C   -0.183567
    30  O   -0.496477
    31  C    0.653747
    32  O   -0.475204
    33  C   -0.217747
    34  C    0.085678
    35  C   -0.160955
    36  C   -0.088073
    37  C    0.207741
    38  O   -0.490426
    39  C   -0.238669
    40  C    0.638922
    41  O   -0.525561
    42  N   -0.398992
    43  C   -0.155780
    44  C   -0.273319
    45  C   -0.261163
    46  C   -0.268687
    47  C   -0.032609
    48  O   -0.614437
    49  C   -0.135076
    50  C    0.604330
    51  O   -0.502258
    52  C   -0.152573
    53  C   -0.209318
    54  H    0.160410
    55  H    0.144114
    56  H    0.148153
    57  H    0.146353
    58  H    0.159225
    59  H    0.151995
    60  H    0.145775
    61  H    0.151276
    62  H    0.142014
    63  H    0.164055
    64  H    0.123883
    65  H    0.135238
    66  H    0.170822
    67  H    0.179308
    68  H    0.131219
    69  H    0.125761
    70  H    0.180413
    71  H    0.196288
    72  H    0.156054
    73  H    0.185172
    74  H    0.336624
    75  H    0.155647
    76  H    0.136506
    77  H    0.164201
    78  H    0.138619
    79  H    0.136483
    80  H    0.169388
    81  H    0.188696
    82  H    0.131058
    83  H    0.131749
    84  H    0.132718
    85  H    0.142316
    86  H    0.162423
    87  H    0.206488
    88  H    0.158185
    89  H    0.156743
    90  H    0.165175
    91  H    0.207002
    92  H    0.144591
    93  H    0.188009
    94  H    0.140460
    95  H    0.118999
    96  H    0.158488
    97  H    0.163603
    98  H    0.122251
    99  H    0.145517
   100  H    0.115982
   101  H    0.115232
   102  H    0.390465
   103  H    0.167466
   104  H    0.158085
   105  H    0.128883
 Sum of Mulliken charges =  -0.00000

 Dipole moment (field-independent basis, Debye):
    X=              4.3082    Y=             -3.8833    Z=             -4.9856  Tot=              7.6483
 Quadrupole moment (field-independent basis, Debye-Ang):
   XX=           -265.5575   YY=           -301.8821   ZZ=           -297.7968
   XY=             28.1730   XZ=              6.5331   YZ=              0.2570

 Normal termination of Gaussian 16 at Fri Nov  4 20:22:18 2022.
