 Gaussian 16, Revision B.01,
 Gaussian 16:  ES64L-G16RevB.01 20-Dec-2017

 -----------------------------
 #p b3lyp/6-31g(d) opt SCF=XQC
 -----------------------------

 ------------------------------
 Gaussian input prepared by ASE
 ------------------------------
 Symbolic Z-matrix:
 Charge =  0 Multiplicity = 1

 SCF Done:  E(RB3LYP) =  -1174.08123234     A.U. after   14 cycles
 SCF Done:  E(RB3LYP) =  -1174.08752035     A.U. after   12 cycles
 SCF Done:  E(RB3LYP) =  -1174.08860657     A.U. after   12 cycles
 SCF Done:  E(RB3LYP) =  -1174.08929710     A.U. after   12 cycles
 SCF Done:  E(RB3LYP) =  -1174.08946167     A.U. after   11 cycles
 SCF Done:  E(RB3LYP) =  -1174.08957890     A.U. after   10 cycles
 SCF Done:  E(RB3LYP) =  -1174.08968217     A.U. after   11 cycles
 SCF Done:  E(RB3LYP) =  -1174.08975036     A.U. after   11 cycles
 SCF Done:  E(RB3LYP) =  -1174.08983778     A.U. after   11 cycles
 SCF Done:  E(RB3LYP) =  -1174.08989898     A.U. after   11 cycles
 SCF Done:  E(RB3LYP) =  -1174.08992163     A.U. after   11 cycles
 SCF Done:  E(RB3LYP) =  -1174.08993933     A.U. after    9 cycles
 SCF Done:  E(RB3LYP) =  -1174.08995803     A.U. after    9 cycles
 SCF Done:  E(RB3LYP) =  -1174.08996697     A.U. after    9 cycles
 SCF Done:  E(RB3LYP) =  -1174.08997309     A.U. after   10 cycles
 SCF Done:  E(RB3LYP) =  -1174.08997440     A.U. after    8 cycles
 SCF Done:  E(RB3LYP) =  -1174.08997467     A.U. after    7 cycles
 SCF Done:  E(RB3LYP) =  -1174.08997482     A.U. after    7 cycles
 Optimization completed.
    -- Stationary point found.

                         Standard orientation:
 ---------------------------------------------------------------------
 Center     Atomic      Atomic             Coordinates (Angstroms)
 Number     Number       Type             X           Y           Z
 ---------------------------------------------------------------------
      1          6           0        8.781420   -0.635663   -0.478904
      2          6           0        7.641785   -1.137957    0.409741
      3          7           0        6.362808   -1.207214   -0.295718
      4          6           0        5.870855    0.117995   -0.697977
      5          6           0        4.371949    0.067976   -1.000970
      6          7           0        3.554694   -0.311031    0.175346
      7          6           0        2.882602    0.815358    0.819681
      8          6           0        1.887435    1.532555   -0.104132
      9          8           0        2.128735    2.674019   -0.500908
     10          7           0        0.739998    0.883726   -0.460621
     11          6           0       -0.211138    1.601888   -1.319074
     12          6           0       -1.602918    0.948431   -1.266537
     13          6           0       -2.013131    0.484054    0.151984
     14          6           0       -2.054259    1.708604    1.086306
     15          8           0       -2.568503    1.302326    2.353979
     16          6           0       -3.393433   -0.223035    0.125910
     17          6           0       -4.622399    0.655280   -0.190424
     18          6           0       -5.900649   -0.156683   -0.232723
     19          6           0       -6.405695   -0.650243   -1.442729
     20          6           0       -7.565415   -1.426608   -1.474801
     21          6           0       -8.242150   -1.723600   -0.290862
     22          6           0       -7.750465   -1.237800    0.922560
     23          6           0       -6.591230   -0.462066    0.948662
     24          6           0       -0.945081   -0.534280    0.673564
     25          6           0        0.374334   -0.488918   -0.116509
     26          6           0        4.316103   -1.106500    1.148659
     27          6           0        5.330157   -1.985488    0.413184
     28          1           0        8.638776    0.406843   -0.782287
     29          1           0        9.733421   -0.693228    0.060875
     30          1           0        8.855876   -1.247743   -1.384240
     31          1           0        7.886650   -2.150587    0.751382
     32          1           0        7.582168   -0.500093    1.316924
     33          1           0        6.408055    0.457339   -1.591933
     34          1           0        6.056077    0.876980    0.088617
     35          1           0        4.042026    1.045175   -1.364030
     36          1           0        4.198318   -0.654207   -1.809580
     37          1           0        2.362855    0.431100    1.707175
     38          1           0        3.579542    1.598775    1.162414
     39          1           0        0.158352    1.628278   -2.354121
     40          1           0       -0.242402    2.641017   -0.981272
     41          1           0       -2.328105    1.665383   -1.668746
     42          1           0       -1.634142    0.078675   -1.935299
     43          1           0       -2.688319    2.492984    0.643268
     44          1           0       -1.043202    2.124783    1.197650
     45          1           0       -2.481732    2.050862    2.962704
     46          1           0       -3.343508   -1.040551   -0.606915
     47          1           0       -3.555031   -0.693132    1.102287
     48          1           0       -4.713739    1.430465    0.578879
     49          1           0       -4.488460    1.167991   -1.151068
     50          1           0       -5.886503   -0.419293   -2.370935
     51          1           0       -7.942202   -1.795575   -2.425491
     52          1           0       -9.147108   -2.325022   -0.313506
     53          1           0       -8.272881   -1.459486    1.849845
     54          1           0       -6.214736   -0.083695    1.896872
     55          1           0       -0.761901   -0.337873    1.735671
     56          1           0       -1.339941   -1.556215    0.613511
     57          1           0        1.193113   -0.954059    0.429511
     58          1           0        0.275262   -1.062462   -1.049241
     59          1           0        4.853406   -0.466338    1.874749
     60          1           0        3.619672   -1.728034    1.729009
     61          1           0        4.786962   -2.618298   -0.302887
     62          1           0        5.816975   -2.659693    1.124946
 ---------------------------------------------------------------------

 The electronic state is 1-A.
 Alpha  occ. eigenvalues --  -19.14987 -19.10065 -14.35584 -14.32656 -14.31650
 Alpha  occ. eigenvalues --  -10.27328 -10.23054 -10.21741 -10.21435 -10.21239
 Alpha  occ. eigenvalues --  -10.20906 -10.20690 -10.20507 -10.20370 -10.20262
 Alpha  occ. eigenvalues --  -10.20072 -10.18981 -10.18946 -10.18424 -10.18396
 Alpha  occ. eigenvalues --  -10.18259 -10.18257 -10.18193 -10.18161 -10.18090
 Alpha  occ. eigenvalues --  -10.17883 -10.17163  -1.02141  -1.02034  -0.93764
 Alpha  occ. eigenvalues --   -0.92844  -0.89563  -0.84907  -0.82451  -0.77418
 Alpha  occ. eigenvalues --   -0.76382  -0.75782  -0.75436  -0.73644  -0.72823
 Alpha  occ. eigenvalues --   -0.71173  -0.69371  -0.65681  -0.65093  -0.64822
 Alpha  occ. eigenvalues --   -0.63329  -0.61148  -0.59791  -0.59602  -0.57287
 Alpha  occ. eigenvalues --   -0.55813  -0.53355  -0.52088  -0.51191  -0.50405
 Alpha  occ. eigenvalues --   -0.50226  -0.49978  -0.49060  -0.48736  -0.46580
 Alpha  occ. eigenvalues --   -0.46145  -0.45962  -0.45441  -0.44543  -0.44156
 Alpha  occ. eigenvalues --   -0.43412  -0.42656  -0.42078  -0.41695  -0.41272
 Alpha  occ. eigenvalues --   -0.41123  -0.41086  -0.40477  -0.39723  -0.39288
 Alpha  occ. eigenvalues --   -0.38754  -0.37917  -0.37477  -0.37290  -0.36974
 Alpha  occ. eigenvalues --   -0.36790  -0.36175  -0.35969  -0.35713  -0.35432
 Alpha  occ. eigenvalues --   -0.34876  -0.34274  -0.34014  -0.33759  -0.33441
 Alpha  occ. eigenvalues --   -0.32975  -0.32818  -0.31647  -0.30963  -0.30365
 Alpha  occ. eigenvalues --   -0.27235  -0.24304  -0.23891  -0.23458  -0.22818
 Alpha  occ. eigenvalues --   -0.20919  -0.20163
 Alpha virt. eigenvalues --    0.00554   0.00663   0.02538   0.06317   0.07222
 Alpha virt. eigenvalues --    0.08213   0.09572   0.10356   0.10740   0.11542
 Alpha virt. eigenvalues --    0.11724   0.12077   0.12311   0.13174   0.13506

 Mulliken charges:
               1
     1  C   -0.450286
     2  C   -0.111529
     3  N   -0.385590
     4  C   -0.129920
     5  C   -0.171414
     6  N   -0.403368
     7  C   -0.218160
     8  C    0.572244
     9  O   -0.531557
    10  N   -0.417307
    11  C   -0.123805
    12  C   -0.323915
    13  C    0.107431
    14  C   -0.058244
    15  O   -0.627310
    16  C   -0.267988
    17  C   -0.364591
    18  C    0.167656
    19  C   -0.181584
    20  C   -0.128457
    21  C   -0.131714
    22  C   -0.129109
    23  C   -0.179387
    24  C   -0.299413
    25  C   -0.155008
    26  C   -0.124861
    27  C   -0.149671
    28  H    0.150331
    29  H    0.141560
    30  H    0.154865
    31  H    0.135251
    32  H    0.107657
    33  H    0.146217
    34  H    0.117187
    35  H    0.174174
    36  H    0.150301
    37  H    0.146595
    38  H    0.149877
    39  H    0.151080
    40  H    0.172404
    41  H    0.146398
    42  H    0.141452
    43  H    0.123108
    44  H    0.139291
    45  H    0.396403
    46  H    0.129004
    47  H    0.161335
    48  H    0.154463
    49  H    0.136657
    50  H    0.118425
    51  H    0.125933
    52  H    0.125643
    53  H    0.126448
    54  H    0.128813
    55  H    0.157826
    56  H    0.137935
    57  H    0.181413
    58  H    0.145926
    59  H    0.120930
    60  H    0.134242
    61  H    0.149361
    62  H    0.138351
 Sum of Mulliken charges =  -0.00000

 Dipole moment (field-independent basis, Debye):
    X=             -0.3508    Y=             -1.1772    Z=              1.4069  Tot=              1.8677
 Quadrupole moment (field-independent basis, Debye-Ang):
   XX=           -165.2603   YY=           -169.9218   ZZ=           -156.7181
   XY=             -7.4090   XZ=              6.6372   YZ=              4.2242

 Normal termination of Gaussian 16 at Fri Nov  4 18:37:33 2022.
