 Gaussian 16, Revision B.01,
 Gaussian 16:  ES64L-G16RevB.01 20-Dec-2017

 -------------------------------------------------------------------
 #p b3lyp/6-31g(d) 6D 10F nosymm GFInput td=(50-50,nstate=2) SCF=XQC
 -------------------------------------------------------------------

 ------------------------------
 Gaussian input prepared by ASE
 ------------------------------
 Symbolic Z-matrix:
 Charge =  0 Multiplicity = 1

                          Input orientation:
 ---------------------------------------------------------------------
 Center     Atomic      Atomic             Coordinates (Angstroms)
 Number     Number       Type             X           Y           Z
 ---------------------------------------------------------------------
      1          6           0        8.467317   -0.860494   -0.326530
      2          6           0        7.287908   -1.377372    0.499659
      3          7           0        6.024868   -1.346564   -0.236570
      4          6           0        5.593919    0.021882   -0.555395
      5          6           0        4.102062    0.052734   -0.893679
      6          7           0        3.242371   -0.374033    0.235069
      7          6           0        2.598254    0.730867    0.942131
      8          6           0        1.654135    1.549441    0.049530
      9          8           0        1.948526    2.705139   -0.260780
     10          7           0        0.491807    0.973106   -0.376506
     11          6           0       -0.409888    1.786358   -1.202899
     12          6           0       -1.826496    1.186794   -1.226654
     13          6           0       -2.288755    0.641929    0.146503
     14          6           0       -2.305905    1.799441    1.163382
     15          8           0       -2.866175    1.327088    2.387915
     16          6           0       -3.694022   -0.006104    0.040833
     17          6           0       -4.880409    0.940283   -0.239704
     18          6           0       -6.187340    0.184770   -0.366700
     19          6           0       -6.681114   -0.203226   -1.619071
     20          6           0       -7.868528   -0.928685   -1.730789
     21          6           0       -8.584895   -1.279826   -0.585623
     22          6           0       -8.104849   -0.899268    0.669320
     23          6           0       -6.917798   -0.174006    0.775029
     24          6           0       -1.273493   -0.451844    0.618400
     25          6           0        0.065633   -0.404428   -0.137654
     26          6           0        3.948769   -1.264747    1.166458
     27          6           0        4.946184   -2.130342    0.393310
     28          1           0        8.372091    0.205385   -0.558997
     29          1           0        9.402925   -0.993211    0.228452
     30          1           0        8.540461   -1.410834   -1.270773
     31          1           0        7.485454   -2.420195    0.774602
     32          1           0        7.230528   -0.802051    1.447878
     33          1           0        6.165416    0.400698   -1.411423
     34          1           0        5.788707    0.716541    0.286391
     35          1           0        3.818715    1.065112   -1.194320
     36          1           0        3.920799   -0.604177   -1.754585
     37          1           0        2.042632    0.307032    1.788941
     38          1           0        3.316029    1.460259    1.354100
     39          1           0       -0.014436    1.869682   -2.225257
     40          1           0       -0.409671    2.799994   -0.793730
     41          1           0       -2.513689    1.958217   -1.593208
     42          1           0       -1.874562    0.367417   -1.955354
     43          1           0       -2.898488    2.637276    0.762826
     44          1           0       -1.282708    2.166295    1.325635
     45          1           0       -2.765783    2.027582    3.049438
     46          1           0       -3.657459   -0.772201   -0.746323
     47          1           0       -3.897319   -0.535930    0.978048
     48          1           0       -4.960856    1.663306    0.579959
     49          1           0       -4.703498    1.512598   -1.158838
     50          1           0       -6.130911    0.070635   -2.517258
     51          1           0       -8.235759   -1.215570   -2.713008
     52          1           0       -9.511353   -1.841703   -0.670114
     53          1           0       -8.657896   -1.163702    1.567169
     54          1           0       -6.550438    0.122437    1.755429
     55          1           0       -1.108992   -0.336976    1.695409
     56          1           0       -1.705536   -1.450616    0.478170
     57          1           0        0.852426   -0.938542    0.392037
     58          1           0       -0.032428   -0.907544   -1.110288
     59          1           0        4.492215   -0.698362    1.947216
     60          1           0        3.215096   -1.896772    1.686452
     61          1           0        4.396889   -2.689859   -0.377069
     62          1           0        5.389310   -2.871114    1.066397
 ---------------------------------------------------------------------

 SCF Done:  E(RB3LYP) =  -1174.08997456     A.U. after   15 cycles

 Excitation energies and oscillator strengths:

 Excited state symmetry could not be determined.
 Excited State   1:      Triplet-?Sym    3.7521 eV  330.44 nm  f=0.0000  <S**2>=2.000
      97 ->103         0.42442
      97 ->104         0.21251
      99 ->103        -0.23475
      99 ->104         0.43355
     100 ->104        -0.14382
 This state for optimization and/or second-order correction.
 Total Energy, E(TD-HF/TD-DFT) =  -1173.95208691
 Copying the excited state density for this state as the 1-particle RhoCI density.

 Excited state symmetry could not be determined.
 Excited State   2:      Triplet-?Sym    4.6040 eV  269.30 nm  f=0.0000  <S**2>=2.000
      99 ->105         0.18261
     100 ->105         0.63516
     101 ->105         0.15949

 Excited state symmetry could not be determined.
 Excited State   3:      Singlet-?Sym    5.2832 eV  234.68 nm  f=0.0005  <S**2>=0.000
      98 ->105        -0.38029
      99 ->105        -0.12157
     100 ->105        -0.22039
     101 ->105         0.52220
     102 ->105         0.11197

 Excited state symmetry could not be determined.
 Excited State   4:      Singlet-?Sym    5.4204 eV  228.74 nm  f=0.0002  <S**2>=0.000
      97 ->104        -0.15217
      99 ->103         0.16121
     102 ->103         0.65482

 Alpha  occ. eigenvalues --  -19.14987 -19.10065 -14.35584 -14.32656 -14.31650
 Alpha  occ. eigenvalues --  -10.27328 -10.23054 -10.21740 -10.21435 -10.21239
 Alpha  occ. eigenvalues --  -10.20906 -10.20690 -10.20508 -10.20370 -10.20262
 Alpha  occ. eigenvalues --  -10.20072 -10.18981 -10.18946 -10.18424 -10.18396
 Alpha  occ. eigenvalues --  -10.18259 -10.18257 -10.18193 -10.18161 -10.18090
 Alpha  occ. eigenvalues --  -10.17883 -10.17163  -1.02140  -1.02034  -0.93764
 Alpha  occ. eigenvalues --   -0.92844  -0.89563  -0.84907  -0.82451  -0.77418
 Alpha  occ. eigenvalues --   -0.76382  -0.75782  -0.75436  -0.73644  -0.72823
 Alpha  occ. eigenvalues --   -0.71173  -0.69371  -0.65681  -0.65093  -0.64822
 Alpha  occ. eigenvalues --   -0.63329  -0.61148  -0.59791  -0.59602  -0.57287
 Alpha  occ. eigenvalues --   -0.55813  -0.53355  -0.52088  -0.51191  -0.50405
 Alpha  occ. eigenvalues --   -0.50226  -0.49978  -0.49060  -0.48736  -0.46580
 Alpha  occ. eigenvalues --   -0.46145  -0.45962  -0.45441  -0.44543  -0.44156
 Alpha  occ. eigenvalues --   -0.43412  -0.42656  -0.42078  -0.41695  -0.41272
 Alpha  occ. eigenvalues --   -0.41123  -0.41086  -0.40477  -0.39723  -0.39288
 Alpha  occ. eigenvalues --   -0.38754  -0.37917  -0.37476  -0.37290  -0.36974
 Alpha  occ. eigenvalues --   -0.36790  -0.36175  -0.35969  -0.35712  -0.35432
 Alpha  occ. eigenvalues --   -0.34876  -0.34274  -0.34014  -0.33759  -0.33441
 Alpha  occ. eigenvalues --   -0.32975  -0.32818  -0.31647  -0.30963  -0.30365
 Alpha  occ. eigenvalues --   -0.27235  -0.24304  -0.23891  -0.23458  -0.22818
 Alpha  occ. eigenvalues --   -0.20919  -0.20163
 Alpha virt. eigenvalues --    0.00554   0.00663   0.02538   0.06317   0.07222
 Alpha virt. eigenvalues --    0.08213   0.09572   0.10356   0.10740   0.11542
 Alpha virt. eigenvalues --    0.11724   0.12077   0.12311   0.13174   0.13506

 Mulliken charges:
               1
     1  C   -0.450288
     2  C   -0.111535
     3  N   -0.385592
     4  C   -0.129934
     5  C   -0.171391
     6  N   -0.403391
     7  C   -0.218158
     8  C    0.572245
     9  O   -0.531558
    10  N   -0.417306
    11  C   -0.123803
    12  C   -0.323938
    13  C    0.107472
    14  C   -0.058276
    15  O   -0.627307
    16  C   -0.267965
    17  C   -0.364605
    18  C    0.167664
    19  C   -0.181596
    20  C   -0.128449
    21  C   -0.131718
    22  C   -0.129110
    23  C   -0.179390
    24  C   -0.299441
    25  C   -0.154990
    26  C   -0.124840
    27  C   -0.149675
    28  H    0.150332
    29  H    0.141561
    30  H    0.154867
    31  H    0.135253
    32  H    0.107660
    33  H    0.146218
    34  H    0.117189
    35  H    0.174170
    36  H    0.150298
    37  H    0.146596
    38  H    0.149877
    39  H    0.151081
    40  H    0.172404
    41  H    0.146401
    42  H    0.141454
    43  H    0.123113
    44  H    0.139295
    45  H    0.396404
    46  H    0.129000
    47  H    0.161330
    48  H    0.154464
    49  H    0.136658
    50  H    0.118426
    51  H    0.125933
    52  H    0.125644
    53  H    0.126448
    54  H    0.128817
    55  H    0.157829
    56  H    0.137938
    57  H    0.181415
    58  H    0.145924
    59  H    0.120928
    60  H    0.134239
    61  H    0.149361
    62  H    0.138352
 Sum of Mulliken charges =  -0.00000

 Dipole moment (field-independent basis, Debye):
    X=             -0.4298    Y=             -1.2571    Z=              1.3129  Tot=              1.8678
 Quadrupole moment (field-independent basis, Debye-Ang):
   XX=           -165.9083   YY=           -170.0353   ZZ=           -155.9179
   XY=             -7.7679   XZ=              5.6297   YZ=              2.9604

 Normal termination of Gaussian 16 at Sat Nov  5 11:11:19 2022.
