 Gaussian 16, Revision B.01,
 Gaussian 16:  ES64L-G16RevB.01 20-Dec-2017

 -------------------------------------------------------------------
 #p b3lyp/6-31g(d) 6D 10F nosymm GFInput td=(50-50,nstate=2) SCF=XQC
 -------------------------------------------------------------------

 ------------------------------
 Gaussian input prepared by ASE
 ------------------------------
 Symbolic Z-matrix:
 Charge =  0 Multiplicity = 1

                          Input orientation:
 ---------------------------------------------------------------------
 Center     Atomic      Atomic             Coordinates (Angstroms)
 Number     Number       Type             X           Y           Z
 ---------------------------------------------------------------------
      1          8           0        4.475231    0.119643    2.168297
      2          6           0        3.658696    0.206919    1.251090
      3          6           0        3.794842   -0.631582   -0.013385
      4         16           0        5.063617   -0.010289   -1.200199
      5          6           0        6.561626   -0.608172   -0.474603
      6          7           0        7.629992   -0.935832   -1.186082
      7          6           0        8.524471   -1.279635   -0.216136
      8          7           0        8.078741   -1.199633    1.029740
      9          7           0        6.810699   -0.751045    0.846668
     10          7           0        2.574173    1.032676    1.381882
     11          6           0        1.549882    1.366722    0.453056
     12          6           0        1.852825    1.811654   -0.840624
     13          6           0        0.824335    2.168961   -1.713443
     14          6           0       -0.507108    2.115665   -1.302282
     15          6           0       -0.796438    1.684308   -0.004773
     16         16           0       -2.516163    1.570942    0.538380
     17          8           0       -2.486573    1.512610    2.002270
     18          8           0       -3.250276    2.609473   -0.187154
     19          7           0       -3.094530    0.098489    0.006681
     20          6           0       -3.484030   -0.030348   -1.407019
     21          6           0       -4.456569   -1.195788   -1.653314
     22          6           0       -5.567527   -1.363387   -0.599583
     23          6           0       -5.144590   -2.220646    0.607238
     24          6           0       -4.071872   -1.614253    1.523976
     25          6           0       -2.812441   -1.106001    0.808595
     26          6           0        0.216836    1.307369    0.875388
     27          1           0        4.070175   -1.644567    0.290192
     28          1           0        2.866084   -0.678102   -0.584180
     29          1           0        9.529937   -1.610179   -0.438691
     30          1           0        6.177242   -0.544000    1.621100
     31          1           0        2.521533    1.458968    2.301932
     32          1           0        2.889782    1.911251   -1.146185
     33          1           0        1.068821    2.522991   -2.710484
     34          1           0       -1.308181    2.437995   -1.958241
     35          1           0       -2.597389   -0.158274   -2.049711
     36          1           0       -3.964972    0.909500   -1.684133
     37          1           0       -3.900320   -2.138554   -1.739818
     38          1           0       -4.897698   -1.020579   -2.642593
     39          1           0       -6.425291   -1.853658   -1.076657
     40          1           0       -5.919533   -0.378657   -0.264754
     41          1           0       -4.787509   -3.190338    0.228717
     42          1           0       -6.030594   -2.442667    1.215921
     43          1           0       -4.484507   -0.769602    2.087975
     44          1           0       -3.768298   -2.369830    2.261888
     45          1           0       -2.054954   -0.858305    1.554967
     46          1           0       -2.381568   -1.875245    0.153876
     47          1           0       -0.030607    0.993839    1.884214
 ---------------------------------------------------------------------

 SCF Done:  E(RB3LYP) =  -1918.08669839     A.U. after   15 cycles

 Excitation energies and oscillator strengths:

 Excited state symmetry could not be determined.
 Excited State   1:      Triplet-?Sym    3.5183 eV  352.39 nm  f=0.0000  <S**2>=2.000
      98 ->105         0.10403
      98 ->106        -0.15740
      99 ->105        -0.14146
      99 ->106         0.21572
     102 ->105         0.37212
     102 ->106         0.24523
     102 ->107        -0.14810
     103 ->105         0.29903
     103 ->106        -0.11018
     104 ->105        -0.13237
 This state for optimization and/or second-order correction.
 Total Energy, E(TD-HF/TD-DFT) =  -1917.95740201
 Copying the excited state density for this state as the 1-particle RhoCI density.

 Excited state symmetry could not be determined.
 Excited State   2:      Triplet-?Sym    3.8912 eV  318.63 nm  f=0.0000  <S**2>=2.000
     104 ->105         0.41621
     104 ->106         0.30573
     104 ->107         0.38726
     104 ->108         0.19746

 Excited state symmetry could not be determined.
 Excited State   3:      Singlet-?Sym    4.1782 eV  296.74 nm  f=0.0016  <S**2>=0.000
     104 ->105         0.60687
     104 ->106         0.29618
     104 ->107         0.18665

 Excited state symmetry could not be determined.
 Excited State   4:      Singlet-?Sym    4.4498 eV  278.63 nm  f=0.0045  <S**2>=0.000
     104 ->105        -0.32761
     104 ->106         0.61500

 Alpha  occ. eigenvalues --  -89.12242 -88.91734 -19.15621 -19.15216 -19.15142
 Alpha  occ. eigenvalues --  -14.40863 -14.40677 -14.37705 -14.35353 -14.32341
 Alpha  occ. eigenvalues --  -10.33372 -10.27877 -10.27516 -10.25739 -10.24799
 Alpha  occ. eigenvalues --  -10.23848 -10.23738 -10.23492 -10.23250 -10.23166
 Alpha  occ. eigenvalues --  -10.23101 -10.22900 -10.20290 -10.19348 -10.19287
 Alpha  occ. eigenvalues --  -10.19265  -8.14679  -7.97769  -6.11161  -6.11113
 Alpha  occ. eigenvalues --   -6.11012  -5.94314  -5.93919  -5.93204  -1.12068
 Alpha  occ. eigenvalues --   -1.07647  -1.06970  -1.01188  -0.97257  -0.94657
 Alpha  occ. eigenvalues --   -0.89275  -0.88984  -0.85035  -0.81473  -0.80591
 Alpha  occ. eigenvalues --   -0.79631  -0.79100  -0.78345  -0.72563  -0.71727
 Alpha  occ. eigenvalues --   -0.68419  -0.67556  -0.66142  -0.63897  -0.62387
 Alpha  occ. eigenvalues --   -0.61268  -0.60577  -0.58785  -0.57967  -0.55740
 Alpha  occ. eigenvalues --   -0.54413  -0.53577  -0.52628  -0.51851  -0.50424
 Alpha  occ. eigenvalues --   -0.50044  -0.49660  -0.47888  -0.47219  -0.46915
 Alpha  occ. eigenvalues --   -0.46178  -0.46041  -0.45291  -0.44931  -0.44561
 Alpha  occ. eigenvalues --   -0.44171  -0.43517  -0.43310  -0.41488  -0.41056
 Alpha  occ. eigenvalues --   -0.40849  -0.40211  -0.39561  -0.39074  -0.37736
 Alpha  occ. eigenvalues --   -0.36879  -0.36070  -0.34844  -0.33882  -0.33533
 Alpha  occ. eigenvalues --   -0.33176  -0.32873  -0.32568  -0.32199  -0.31538
 Alpha  occ. eigenvalues --   -0.30955  -0.30932  -0.29670  -0.29427  -0.28464
 Alpha  occ. eigenvalues --   -0.27384  -0.26911  -0.25609  -0.23606
 Alpha virt. eigenvalues --   -0.05853  -0.05259  -0.02682   0.00394   0.02907
 Alpha virt. eigenvalues --    0.04257   0.05604   0.05908   0.06839   0.07621
 Alpha virt. eigenvalues --    0.08142   0.08534   0.08852   0.09894   0.10171

 Mulliken charges:
               1
     1  O   -0.510348
     2  C    0.620763
     3  C   -0.554761
     4  S    0.197610
     5  C    0.263239
     6  N   -0.451218
     7  C    0.154500
     8  N   -0.247652
     9  N   -0.437198
    10  N   -0.678794
    11  C    0.288980
    12  C   -0.151861
    13  C   -0.140907
    14  C   -0.142488
    15  C   -0.147030
    16  S    1.260210
    17  O   -0.555206
    18  O   -0.549965
    19  N   -0.533964
    20  C   -0.138617
    21  C   -0.291501
    22  C   -0.254359
    23  C   -0.266241
    24  C   -0.245158
    25  C   -0.153664
    26  C   -0.184120
    27  H    0.224653
    28  H    0.206210
    29  H    0.158208
    30  H    0.398626
    31  H    0.354715
    32  H    0.181172
    33  H    0.159793
    34  H    0.179450
    35  H    0.137342
    36  H    0.193626
    37  H    0.139932
    38  H    0.150707
    39  H    0.138603
    40  H    0.153495
    41  H    0.128353
    42  H    0.141254
    43  H    0.166410
    44  H    0.134974
    45  H    0.172094
    46  H    0.146027
    47  H    0.184103
 Sum of Mulliken charges =  -0.00000

 Dipole moment (field-independent basis, Debye):
    X=             -4.7375    Y=             -2.2037    Z=             -2.1661  Tot=              5.6561
 Quadrupole moment (field-independent basis, Debye-Ang):
   XX=           -217.5220   YY=           -169.9502   ZZ=           -170.1250
   XY=             21.1053   XZ=              6.7294   YZ=             -5.0238

 Normal termination of Gaussian 16 at Sat Nov  5 11:13:22 2022.
