 Gaussian 16, Revision B.01,
 Gaussian 16:  ES64L-G16RevB.01 20-Dec-2017

 -----------------------------
 #p b3lyp/6-31g(d) opt SCF=XQC
 -----------------------------

 ------------------------------
 Gaussian input prepared by ASE
 ------------------------------
 Symbolic Z-matrix:
 Charge =  0 Multiplicity = 1

 SCF Done:  E(RB3LYP) =  -1918.07231216     A.U. after   15 cycles
 SCF Done:  E(RB3LYP) =  -1918.08229654     A.U. after   13 cycles
 SCF Done:  E(RB3LYP) =  -1918.06025532     A.U. after   13 cycles
 SCF Done:  E(RB3LYP) =  -1918.07697222     A.U. after   14 cycles
 SCF Done:  E(RB3LYP) =  -1918.08342697     A.U. after   11 cycles
 SCF Done:  E(RB3LYP) =  -1918.08296734     A.U. after   13 cycles
 SCF Done:  E(RB3LYP) =  -1918.08511708     A.U. after   12 cycles
 SCF Done:  E(RB3LYP) =  -1918.08566564     A.U. after   12 cycles
 SCF Done:  E(RB3LYP) =  -1918.08606722     A.U. after   12 cycles
 SCF Done:  E(RB3LYP) =  -1918.08640835     A.U. after   12 cycles
 SCF Done:  E(RB3LYP) =  -1918.08659505     A.U. after   11 cycles
 SCF Done:  E(RB3LYP) =  -1918.08663624     A.U. after   10 cycles
 SCF Done:  E(RB3LYP) =  -1918.08666392     A.U. after   11 cycles
 SCF Done:  E(RB3LYP) =  -1918.08668757     A.U. after   10 cycles
 SCF Done:  E(RB3LYP) =  -1918.08669980     A.U. after   10 cycles
 SCF Done:  E(RB3LYP) =  -1918.08670410     A.U. after    9 cycles
 SCF Done:  E(RB3LYP) =  -1918.08670581     A.U. after    8 cycles
 SCF Done:  E(RB3LYP) =  -1918.08670666     A.U. after    8 cycles
 SCF Done:  E(RB3LYP) =  -1918.08670698     A.U. after    7 cycles
 SCF Done:  E(RB3LYP) =  -1918.08670704     A.U. after    6 cycles
 Optimization completed.
    -- Stationary point found.

                         Standard orientation:
 ---------------------------------------------------------------------
 Center     Atomic      Atomic             Coordinates (Angstroms)
 Number     Number       Type             X           Y           Z
 ---------------------------------------------------------------------
      1          8           0        3.697069   -0.313291    2.062511
      2          6           0        2.877326   -0.089334    1.171736
      3          6           0        3.044063   -0.675879   -0.224216
      4         16           0        4.288021    0.199102   -1.268867
      5          6           0        5.807771   -0.466108   -0.655809
      6          7           0        6.887257   -0.617946   -1.408553
      7          6           0        7.794525   -1.100696   -0.512503
      8          7           0        7.346809   -1.267250    0.724063
      9          7           0        6.062759   -0.839791    0.618376
     10          7           0        1.762719    0.657784    1.444933
     11          6           0        0.726119    1.118612    0.586693
     12          6           0        1.011467    1.804321   -0.601468
     13          6           0       -0.030168    2.277563   -1.400412
     14          6           0       -1.358452    2.100597   -1.014432
     15          6           0       -1.630702    1.428022    0.180069
     16         16           0       -3.344673    1.153491    0.682323
     17          8           0       -3.312099    0.828576    2.110827
     18          8           0       -4.117560    2.279739    0.154993
     19          7           0       -3.867801   -0.216671   -0.114118
     20          6           0       -4.252995   -0.098112   -1.529895
     21          6           0       -5.181356   -1.233627   -1.991953
     22          6           0       -6.284669   -1.632684   -0.993896
     23          6           0       -5.829256   -2.680695    0.037830
     24          6           0       -4.779481   -2.213707    1.057016
     25          6           0       -3.540364   -1.536647    0.454992
     26          6           0       -0.603533    0.933587    0.982533
     27          1           0        3.357300   -1.716512   -0.109887
     28          1           0        2.117378   -0.651081   -0.799718
     29          1           0        8.811536   -1.347434   -0.785557
     30          1           0        5.422428   -0.801938    1.413627
     31          1           0        1.694671    0.905714    2.427220
     32          1           0        2.043796    1.996516   -0.877010
     33          1           0        0.200333    2.817369   -2.314019
     34          1           0       -2.171398    2.508068   -1.605179
     35          1           0       -3.362547   -0.073080   -2.179529
     36          1           0       -4.768944    0.858233   -1.632927
     37          1           0       -4.590247   -2.123312   -2.246421
     38          1           0       -5.629289   -0.896207   -2.935071
     39          1           0       -7.123742   -2.058373   -1.558228
     40          1           0       -6.673110   -0.739820   -0.486335
     41          1           0       -5.436332   -3.550579   -0.509891
     42          1           0       -6.705985   -3.043218    0.589839
     43          1           0       -5.223136   -1.502748    1.763774
     44          1           0       -4.447417   -3.080167    1.645700
     45          1           0       -2.792264   -1.402377    1.238910
     46          1           0       -3.081358   -2.156207   -0.326996
     47          1           0       -0.838499    0.431292    1.915136
 ---------------------------------------------------------------------

 The electronic state is 1-A.
 Alpha  occ. eigenvalues --  -89.12242 -88.91734 -19.15620 -19.15216 -19.15143
 Alpha  occ. eigenvalues --  -14.40863 -14.40677 -14.37705 -14.35353 -14.32341
 Alpha  occ. eigenvalues --  -10.33372 -10.27877 -10.27516 -10.25739 -10.24799
 Alpha  occ. eigenvalues --  -10.23848 -10.23739 -10.23492 -10.23250 -10.23166
 Alpha  occ. eigenvalues --  -10.23101 -10.22900 -10.20290 -10.19348 -10.19288
 Alpha  occ. eigenvalues --  -10.19265  -8.14679  -7.97770  -6.11162  -6.11113
 Alpha  occ. eigenvalues --   -6.11012  -5.94314  -5.93919  -5.93204  -1.12068
 Alpha  occ. eigenvalues --   -1.07647  -1.06970  -1.01188  -0.97257  -0.94657
 Alpha  occ. eigenvalues --   -0.89275  -0.88984  -0.85035  -0.81473  -0.80591
 Alpha  occ. eigenvalues --   -0.79631  -0.79100  -0.78345  -0.72563  -0.71727
 Alpha  occ. eigenvalues --   -0.68419  -0.67556  -0.66142  -0.63897  -0.62387
 Alpha  occ. eigenvalues --   -0.61268  -0.60577  -0.58785  -0.57967  -0.55740
 Alpha  occ. eigenvalues --   -0.54414  -0.53578  -0.52628  -0.51851  -0.50424
 Alpha  occ. eigenvalues --   -0.50044  -0.49661  -0.47888  -0.47219  -0.46915
 Alpha  occ. eigenvalues --   -0.46178  -0.46041  -0.45291  -0.44931  -0.44561
 Alpha  occ. eigenvalues --   -0.44171  -0.43517  -0.43310  -0.41488  -0.41056
 Alpha  occ. eigenvalues --   -0.40849  -0.40211  -0.39561  -0.39074  -0.37736
 Alpha  occ. eigenvalues --   -0.36879  -0.36070  -0.34844  -0.33882  -0.33533
 Alpha  occ. eigenvalues --   -0.33177  -0.32873  -0.32568  -0.32199  -0.31538
 Alpha  occ. eigenvalues --   -0.30955  -0.30932  -0.29670  -0.29427  -0.28464
 Alpha  occ. eigenvalues --   -0.27385  -0.26911  -0.25609  -0.23606
 Alpha virt. eigenvalues --   -0.05853  -0.05259  -0.02682   0.00394   0.02907
 Alpha virt. eigenvalues --    0.04257   0.05604   0.05908   0.06839   0.07621
 Alpha virt. eigenvalues --    0.08142   0.08534   0.08852   0.09894   0.10171

 Mulliken charges:
               1
     1  O   -0.510353
     2  C    0.620777
     3  C   -0.554753
     4  S    0.197583
     5  C    0.263238
     6  N   -0.451216
     7  C    0.154507
     8  N   -0.247655
     9  N   -0.437191
    10  N   -0.678792
    11  C    0.288968
    12  C   -0.151856
    13  C   -0.140904
    14  C   -0.142496
    15  C   -0.147042
    16  S    1.260132
    17  O   -0.555188
    18  O   -0.549933
    19  N   -0.533914
    20  C   -0.138626
    21  C   -0.291494
    22  C   -0.254368
    23  C   -0.266197
    24  C   -0.245172
    25  C   -0.153711
    26  C   -0.184107
    27  H    0.224651
    28  H    0.206210
    29  H    0.158210
    30  H    0.398627
    31  H    0.354715
    32  H    0.181175
    33  H    0.159793
    34  H    0.179455
    35  H    0.137344
    36  H    0.193629
    37  H    0.139931
    38  H    0.150706
    39  H    0.138600
    40  H    0.153499
    41  H    0.128347
    42  H    0.141250
    43  H    0.166412
    44  H    0.134979
    45  H    0.172098
    46  H    0.146036
    47  H    0.184099
 Sum of Mulliken charges =  -0.00000

 Dipole moment (field-independent basis, Debye):
    X=             -4.6526    Y=             -1.9422    Z=             -2.5636  Tot=              5.6560
 Quadrupole moment (field-independent basis, Debye-Ang):
   XX=           -211.8463   YY=           -166.0009   ZZ=           -171.1891
   XY=             20.0819   XZ=             12.8911   YZ=             -3.4123

 Normal termination of Gaussian 16 at Fri Nov  4 18:39:13 2022.
