 Gaussian 16, Revision B.01,
 Gaussian 16:  ES64L-G16RevB.01 20-Dec-2017

 -----------------------------
 #p b3lyp/6-31g(d) opt SCF=XQC
 -----------------------------

 ------------------------------
 Gaussian input prepared by ASE
 ------------------------------
 Symbolic Z-matrix:
 Charge =  0 Multiplicity = 1

 SCF Done:  E(RB3LYP) =  -522.234540953     A.U. after   15 cycles
 SCF Done:  E(RB3LYP) =  -522.238530236     A.U. after   12 cycles
 SCF Done:  E(RB3LYP) =  -522.238829497     A.U. after   12 cycles
 SCF Done:  E(RB3LYP) =  -522.238909646     A.U. after   11 cycles
 SCF Done:  E(RB3LYP) =  -522.238917062     A.U. after   10 cycles
 SCF Done:  E(RB3LYP) =  -522.238918382     A.U. after    8 cycles
 SCF Done:  E(RB3LYP) =  -522.238918570     A.U. after    8 cycles
 Optimization completed.
    -- Stationary point found.

                         Standard orientation:
 ---------------------------------------------------------------------
 Center     Atomic      Atomic             Coordinates (Angstroms)
 Number     Number       Type             X           Y           Z
 ---------------------------------------------------------------------
      1          6           0       -1.557759    1.799560    0.721821
      2          6           0       -0.293948    1.092107    0.249082
      3          6           0        0.296809    1.658651   -1.090349
      4          6           0        1.800498    1.248421   -1.047143
      5          6           0        1.894864    0.417809    0.254842
      6          6           0        0.952190    1.223943    1.168346
      7          6           0        1.119476   -0.932453    0.107342
      8          6           0        1.349077   -1.825628    1.349818
      9          6           0        1.503674   -1.751383   -1.140603
     10          6           0       -0.334282   -0.419567    0.057797
     11          6           0       -1.384109   -1.236560   -0.152262
     12          6           0       -2.756491   -0.857639   -0.244078
     13          7           0       -3.890820   -0.609558   -0.340040
     14          1           0       -2.356880    1.764908   -0.023458
     15          1           0       -1.946404    1.355662    1.644802
     16          1           0       -1.332497    2.853819    0.922671
     17          1           0       -0.234521    1.267610   -1.963706
     18          1           0        0.177600    2.748283   -1.097982
     19          1           0        2.123621    0.702746   -1.937156
     20          1           0        2.443415    2.131795   -0.966674
     21          1           0        2.918195    0.275054    0.615753
     22          1           0        0.800154    0.795695    2.163662
     23          1           0        1.258663    2.269788    1.286942
     24          1           0        0.719581   -2.721113    1.304531
     25          1           0        2.395587   -2.151895    1.387523
     26          1           0        1.121962   -1.311375    2.287755
     27          1           0        2.583721   -1.942806   -1.153042
     28          1           0        0.999383   -2.724195   -1.137736
     29          1           0        1.234745   -1.247904   -2.073081
     30          1           0       -1.210570   -2.302728   -0.288207
 ---------------------------------------------------------------------

 The electronic state is 1-A.
 Alpha  occ. eigenvalues --  -14.32150 -10.22107 -10.21854 -10.21733 -10.21521
 Alpha  occ. eigenvalues --  -10.21139 -10.19761 -10.19251 -10.18979 -10.18945
 Alpha  occ. eigenvalues --  -10.18850 -10.18768 -10.17695  -0.89897  -0.88791
 Alpha  occ. eigenvalues --   -0.80492  -0.78798  -0.73837  -0.71972  -0.69202
 Alpha  occ. eigenvalues --   -0.67195  -0.64863  -0.59014  -0.56453  -0.53510
 Alpha  occ. eigenvalues --   -0.50781  -0.48639  -0.47149  -0.45623  -0.43960
 Alpha  occ. eigenvalues --   -0.43677  -0.41412  -0.40601  -0.39921  -0.39426
 Alpha  occ. eigenvalues --   -0.38802  -0.37393  -0.36093  -0.35484  -0.35197
 Alpha  occ. eigenvalues --   -0.35040  -0.33866  -0.32642  -0.32289  -0.31995
 Alpha  occ. eigenvalues --   -0.31628  -0.30174  -0.25114
 Alpha virt. eigenvalues --   -0.03519   0.03779   0.07061   0.09073   0.10308
 Alpha virt. eigenvalues --    0.11077   0.11786   0.12002   0.12407   0.14421
 Alpha virt. eigenvalues --    0.14670   0.16068   0.16436   0.16986   0.17394

 Mulliken charges:
               1
     1  C   -0.485573
     2  C    0.021856
     3  C   -0.281953
     4  C   -0.280882
     5  C   -0.116969
     6  C   -0.290205
     7  C    0.047616
     8  C   -0.450738
     9  C   -0.458177
    10  C    0.213147
    11  C   -0.270646
    12  C    0.330678
    13  N   -0.502666
    14  H    0.176700
    15  H    0.155028
    16  H    0.140487
    17  H    0.150412
    18  H    0.146079
    19  H    0.143316
    20  H    0.141425
    21  H    0.118850
    22  H    0.145091
    23  H    0.138401
    24  H    0.148296
    25  H    0.147507
    26  H    0.153898
    27  H    0.147668
    28  H    0.145963
    29  H    0.155789
    30  H    0.169602
 Sum of Mulliken charges =  -0.00000

 Dipole moment (field-independent basis, Debye):
    X=              4.9742    Y=              0.1827    Z=              0.4118  Tot=              4.9946
 Quadrupole moment (field-independent basis, Debye-Ang):
   XX=            -99.3880   YY=            -74.9909   ZZ=            -79.0896
   XY=             -1.9763   XZ=             -1.6858   YZ=              0.1427

 1\1\GINC-NODE63\FOpt\RB3LYP\6-31G(d)\C12H17N1\WYKGROUP\04-Nov-2022\0\\
 #p b3lyp/6-31g(d) opt SCF=XQC\\Gaussian input prepared by ASE\\0,1\C,-
 2.1460530183,1.582929684,-0.2186173917\C,-1.1489403881,0.4315516445,-0
 .1827662783\C,-1.6745911637,-0.8510194028,0.5539454475\C,-0.8144911235
 ,-2.0094163103,-0.0373087481\C,0.1681268485,-1.2669820687,-0.973920085
 3\C,-0.7637518638,-0.1869932332,-1.5554710659\C,1.1778848816,-0.405854
 8009,-0.1462502684\C,2.2536593409,0.2061872182,-1.0748726754\C,1.90379
 1655,-1.1796834326,0.971725224\C,0.2358942583,0.6859227851,0.401102026

 Normal termination of Gaussian 16 at Fri Nov  4 18:15:44 2022.
