 Gaussian 16, Revision B.01,
 Gaussian 16:  ES64L-G16RevB.01 20-Dec-2017

 -------------------------------------------------------------------
 #p b3lyp/6-31g(d) 6D 10F nosymm GFInput td=(50-50,nstate=2) SCF=XQC
 -------------------------------------------------------------------

 ------------------------------
 Gaussian input prepared by ASE
 ------------------------------
 Symbolic Z-matrix:
 Charge =  0 Multiplicity = 1

                          Input orientation:
 ---------------------------------------------------------------------
 Center     Atomic      Atomic             Coordinates (Angstroms)
 Number     Number       Type             X           Y           Z
 ---------------------------------------------------------------------
      1          6           0       -2.146053    1.582930   -0.218617
      2          6           0       -1.148940    0.431552   -0.182766
      3          6           0       -1.674591   -0.851019    0.553945
      4          6           0       -0.814491   -2.009416   -0.037309
      5          6           0        0.168127   -1.266982   -0.973920
      6          6           0       -0.763752   -0.186993   -1.555471
      7          6           0        1.177885   -0.405855   -0.146250
      8          6           0        2.253659    0.206187   -1.074873
      9          6           0        1.903792   -1.179683    0.971725
     10          6           0        0.235894    0.685923    0.401102
     11          6           0        0.650083    1.635514    1.261604
     12          6           0       -0.146060    2.665725    1.844924
     13          7           0       -0.745473    3.520838    2.361587
     14          1           0       -2.460544    1.891592    0.781912
     15          1           0       -1.727745    2.462385   -0.720176
     16          1           0       -3.041566    1.273200   -0.770587
     17          1           0       -1.587160   -0.757102    1.640919
     18          1           0       -2.738154   -0.982038    0.323221
     19          1           0       -0.317599   -2.610653    0.728136
     20          1           0       -1.434964   -2.694930   -0.624889
     21          1           0        0.668759   -1.918722   -1.696724
     22          1           0       -0.276944    0.526075   -2.227571
     23          1           0       -1.636890   -0.604280   -2.070529
     24          1           0        2.894346    0.900455   -0.520146
     25          1           0        2.891623   -0.587697   -1.482064
     26          1           0        1.822555    0.757046   -1.915388
     27          1           0        2.418695   -2.054927    0.556847
     28          1           0        2.662591   -0.550665    1.450515
     29          1           0        1.223349   -1.522863    1.755661
     30          1           0        1.689569    1.644402    1.585181
 ---------------------------------------------------------------------

 SCF Done:  E(RB3LYP) =  -522.238922621     A.U. after   15 cycles

 Excitation energies and oscillator strengths:

 Excited state symmetry could not be determined.
 Excited State   1:      Triplet-?Sym    3.2951 eV  376.26 nm  f=0.0000  <S**2>=2.000
      48 -> 49         0.69716
      48 <- 49         0.11489
 This state for optimization and/or second-order correction.
 Total Energy, E(TD-HF/TD-DFT) =  -522.117828238
 Copying the excited state density for this state as the 1-particle RhoCI density.

 Excited state symmetry could not be determined.
 Excited State   2:      Triplet-?Sym    5.6007 eV  221.37 nm  f=0.0000  <S**2>=2.000
      44 -> 49         0.12903
      45 -> 49         0.27262
      47 -> 49         0.54418
      48 -> 50        -0.25795

 Excited state symmetry could not be determined.
 Excited State   3:      Singlet-?Sym    5.7473 eV  215.73 nm  f=0.3931  <S**2>=0.000
      48 -> 49         0.68229

 Excited state symmetry could not be determined.
 Excited State   4:      Singlet-?Sym    6.0214 eV  205.91 nm  f=0.0007  <S**2>=0.000
      45 -> 49         0.21287
      47 -> 49         0.65629

 Alpha  occ. eigenvalues --  -14.32150 -10.22107 -10.21854 -10.21733 -10.21521
 Alpha  occ. eigenvalues --  -10.21139 -10.19761 -10.19251 -10.18980 -10.18945
 Alpha  occ. eigenvalues --  -10.18850 -10.18769 -10.17695  -0.89897  -0.88791
 Alpha  occ. eigenvalues --   -0.80492  -0.78798  -0.73837  -0.71972  -0.69202
 Alpha  occ. eigenvalues --   -0.67195  -0.64863  -0.59014  -0.56453  -0.53510
 Alpha  occ. eigenvalues --   -0.50781  -0.48639  -0.47150  -0.45623  -0.43960
 Alpha  occ. eigenvalues --   -0.43677  -0.41412  -0.40601  -0.39921  -0.39426
 Alpha  occ. eigenvalues --   -0.38802  -0.37393  -0.36093  -0.35484  -0.35197
 Alpha  occ. eigenvalues --   -0.35040  -0.33866  -0.32642  -0.32289  -0.31995
 Alpha  occ. eigenvalues --   -0.31628  -0.30174  -0.25114
 Alpha virt. eigenvalues --   -0.03519   0.03779   0.07061   0.09073   0.10308
 Alpha virt. eigenvalues --    0.11077   0.11786   0.12002   0.12407   0.14421
 Alpha virt. eigenvalues --    0.14670   0.16068   0.16436   0.16986   0.17394

 Mulliken charges:
               1
     1  C   -0.485566
     2  C    0.021856
     3  C   -0.281946
     4  C   -0.280868
     5  C   -0.116968
     6  C   -0.290208
     7  C    0.047547
     8  C   -0.450721
     9  C   -0.458145
    10  C    0.213158
    11  C   -0.270651
    12  C    0.330680
    13  N   -0.502667
    14  H    0.176698
    15  H    0.155028
    16  H    0.140485
    17  H    0.150411
    18  H    0.146078
    19  H    0.143314
    20  H    0.141422
    21  H    0.118853
    22  H    0.145093
    23  H    0.138402
    24  H    0.148296
    25  H    0.147506
    26  H    0.153895
    27  H    0.147668
    28  H    0.145962
    29  H    0.155785
    30  H    0.169602
 Sum of Mulliken charges =  -0.00000

 Dipole moment (field-independent basis, Debye):
    X=              1.4317    Y=             -4.0196    Z=             -2.5959  Tot=              4.9945
 Quadrupole moment (field-independent basis, Debye-Ang):
   XX=            -76.6228   YY=            -94.9177   ZZ=            -85.4180
   XY=              5.2080   XZ=              4.2529   YZ=            -10.2907

 Normal termination of Gaussian 16 at Sat Nov  5 11:15:07 2022.
