 Gaussian 16, Revision B.01,
 Gaussian 16:  ES64L-G16RevB.01 20-Dec-2017

 -----------------------------
 #p b3lyp/6-31g(d) opt SCF=XQC
 -----------------------------

 ------------------------------
 Gaussian input prepared by ASE
 ------------------------------
 Symbolic Z-matrix:
 Charge =  0 Multiplicity = 1

 SCF Done:  E(RB3LYP) =  -1619.34687526     A.U. after   15 cycles
 SCF Done:  E(RB3LYP) =  -1619.35437834     A.U. after   13 cycles
 SCF Done:  E(RB3LYP) =  -1619.35540292     A.U. after   12 cycles
 SCF Done:  E(RB3LYP) =  -1619.35565715     A.U. after   12 cycles
 SCF Done:  E(RB3LYP) =  -1619.35573533     A.U. after   11 cycles
 SCF Done:  E(RB3LYP) =  -1619.35581288     A.U. after   11 cycles
 SCF Done:  E(RB3LYP) =  -1619.35589565     A.U. after   11 cycles
 SCF Done:  E(RB3LYP) =  -1619.35591589     A.U. after   11 cycles
 SCF Done:  E(RB3LYP) =  -1619.35592787     A.U. after   10 cycles
 SCF Done:  E(RB3LYP) =  -1619.35593221     A.U. after   10 cycles
 SCF Done:  E(RB3LYP) =  -1619.35593494     A.U. after    9 cycles
 SCF Done:  E(RB3LYP) =  -1619.35593628     A.U. after   10 cycles
 SCF Done:  E(RB3LYP) =  -1619.35593736     A.U. after    9 cycles
 SCF Done:  E(RB3LYP) =  -1619.35593778     A.U. after    8 cycles
 SCF Done:  E(RB3LYP) =  -1619.35593783     A.U. after    7 cycles
 Optimization completed.
    -- Stationary point found.

                         Standard orientation:
 ---------------------------------------------------------------------
 Center     Atomic      Atomic             Coordinates (Angstroms)
 Number     Number       Type             X           Y           Z
 ---------------------------------------------------------------------
      1          6           0        1.234099    4.015401   -0.601349
      2          6           0        1.523723    2.913669    0.356624
      3          6           0        1.508255    2.808689    1.716068
      4          6           0        1.866216    1.455351    2.028132
      5          6           0        2.078124    0.819615    0.839676
      6          6           0        2.480905   -0.588102    0.485331
      7          6           0        1.601490   -1.180889   -0.641448
      8          7           0        0.200646   -1.251958   -0.269907
      9          6           0       -0.781132   -0.565743   -0.914559
     10          8           0       -0.619735    0.151820   -1.895418
     11          6           0       -2.151410   -0.755828   -0.332533
     12          6           0       -3.348070   -0.169937   -0.815652
     13          6           0       -4.310237   -0.642357    0.036405
     14          6           0       -5.739089   -0.463221    0.144136
     15          6           0       -6.591446   -1.016909    1.074202
     16          6           0       -7.946483   -0.627113    0.887588
     17          6           0       -8.114453    0.216195   -0.177917
     18         16           0       -6.615114    0.553225   -0.978619
     19          8           0       -3.728226   -1.453692    0.962610
     20          7           0       -2.360599   -1.519148    0.720129
     21          7           0        3.899593   -0.802092    0.160858
     22          6           0        4.376205   -0.144306   -1.070896
     23          6           0        5.909103   -0.009172   -1.063511
     24          7           0        6.505522   -1.178515   -0.437665
     25          6           0        7.930629   -1.310566   -0.668995
     26          6           0        6.168488   -1.251878    0.987686
     27          6           0        4.808867   -0.589197    1.280207
     28          8           0        1.875061    1.707542   -0.189584
     29          1           0        0.919811    4.910318   -0.057059
     30          1           0        0.434748    3.731951   -1.296596
     31          1           0        2.115828    4.272098   -1.202299
     32          1           0        1.260463    3.598064    2.412645
     33          1           0        1.942107    1.010171    3.011229
     34          1           0        2.296288   -1.183135    1.390768
     35          1           0        1.649771   -0.569133   -1.543434
     36          1           0        1.985511   -2.180493   -0.876115
     37          1           0       -0.075623   -1.805003    0.532438
     38          1           0       -3.447595    0.491185   -1.662044
     39          1           0       -6.246884   -1.679160    1.859633
     40          1           0       -8.762120   -0.960349    1.519546
     41          1           0       -9.029631    0.661989   -0.543686
     42          1           0        3.937681    0.855985   -1.207512
     43          1           0        4.075406   -0.758907   -1.927751
     44          1           0        6.262045    0.057821   -2.098664
     45          1           0        6.213359    0.935865   -0.569128
     46          1           0        8.528886   -0.484276   -0.233005
     47          1           0        8.287726   -2.248103   -0.226641
     48          1           0        8.132595   -1.346841   -1.745438
     49          1           0        6.148325   -2.309427    1.282134
     50          1           0        6.933694   -0.752254    1.614133
     51          1           0        4.948226    0.481131    1.517725
     52          1           0        4.375579   -1.046669    2.177085
 ---------------------------------------------------------------------

 The electronic state is 1-A.
 Alpha  occ. eigenvalues --  -88.92388 -19.24374 -19.19995 -19.11341 -14.39064
 Alpha  occ. eigenvalues --  -14.35939 -14.32053 -14.31620 -10.29291 -10.27451
 Alpha  occ. eigenvalues --  -10.24063 -10.23477 -10.23170 -10.23122 -10.22634
 Alpha  occ. eigenvalues --  -10.22483 -10.21702 -10.20953 -10.20782 -10.20560
 Alpha  occ. eigenvalues --  -10.20406 -10.20211 -10.20208 -10.19929 -10.19772
 Alpha  occ. eigenvalues --  -10.18676 -10.17698 -10.17451  -7.98488  -5.94903
 Alpha  occ. eigenvalues --   -5.94528  -5.94179  -1.14932  -1.09418  -1.03193
 Alpha  occ. eigenvalues --   -0.93885  -0.92517  -0.89988  -0.89556  -0.87456
 Alpha  occ. eigenvalues --   -0.81294  -0.78781  -0.78592  -0.75477  -0.75179
 Alpha  occ. eigenvalues --   -0.74898  -0.73843  -0.70941  -0.68805  -0.65257
 Alpha  occ. eigenvalues --   -0.64210  -0.63286  -0.62820  -0.60355  -0.59075
 Alpha  occ. eigenvalues --   -0.58542  -0.57324  -0.56703  -0.54160  -0.53559
 Alpha  occ. eigenvalues --   -0.53070  -0.51055  -0.49419  -0.49077  -0.48408
 Alpha  occ. eigenvalues --   -0.48051  -0.47541  -0.47060  -0.45455  -0.45129
 Alpha  occ. eigenvalues --   -0.44264  -0.43124  -0.42785  -0.41988  -0.41602
 Alpha  occ. eigenvalues --   -0.41314  -0.41246  -0.40822  -0.40310  -0.40123
 Alpha  occ. eigenvalues --   -0.39583  -0.39554  -0.39350  -0.39264  -0.38876
 Alpha  occ. eigenvalues --   -0.38194  -0.37789  -0.37243  -0.36776  -0.35890
 Alpha  occ. eigenvalues --   -0.35783  -0.35333  -0.34107  -0.32855  -0.32559
 Alpha  occ. eigenvalues --   -0.31733  -0.30279  -0.29544  -0.26724  -0.26596
 Alpha  occ. eigenvalues --   -0.25597  -0.25133  -0.22670  -0.21849  -0.20547
 Alpha  occ. eigenvalues --   -0.19211
 Alpha virt. eigenvalues --   -0.06094  -0.02366   0.01374   0.01987   0.03186
 Alpha virt. eigenvalues --    0.07083   0.07486   0.08437   0.08662   0.09010
 Alpha virt. eigenvalues --    0.09622   0.10841   0.11203   0.12070   0.12429

 Mulliken charges:
               1
     1  C   -0.531716
     2  C    0.358302
     3  C   -0.217690
     4  C   -0.218967
     5  C    0.373147
     6  C   -0.074276
     7  C   -0.143842
     8  N   -0.627439
     9  C    0.608244
    10  O   -0.528471
    11  C    0.259344
    12  C   -0.288823
    13  C    0.434423
    14  C   -0.217343
    15  C   -0.111418
    16  C   -0.099589
    17  C   -0.335956
    18  S    0.284884
    19  O   -0.393394
    20  N   -0.249303
    21  N   -0.397611
    22  C   -0.114345
    23  C   -0.156909
    24  N   -0.373641
    25  C   -0.292395
    26  C   -0.096966
    27  C   -0.154106
    28  O   -0.473604
    29  H    0.161811
    30  H    0.184314
    31  H    0.166359
    32  H    0.131462
    33  H    0.132382
    34  H    0.134750
    35  H    0.203391
    36  H    0.163868
    37  H    0.349870
    38  H    0.180901
    39  H    0.167095
    40  H    0.152150
    41  H    0.181600
    42  H    0.142665
    43  H    0.144950
    44  H    0.142354
    45  H    0.115298
    46  H    0.114283
    47  H    0.148812
    48  H    0.146902
    49  H    0.140841
    50  H    0.107370
    51  H    0.130011
    52  H    0.136024
 Sum of Mulliken charges =  -0.00000

 Dipole moment (field-independent basis, Debye):
    X=             -1.5749    Y=              1.0368    Z=              1.7775  Tot=              2.5913
 Quadrupole moment (field-independent basis, Debye-Ang):
   XX=           -130.6258   YY=           -166.5095   ZZ=           -169.8463
   XY=             -0.3616   XZ=             -0.1224   YZ=             -2.9434

 Normal termination of Gaussian 16 at Fri Nov  4 18:34:59 2022.
