 Gaussian 16, Revision B.01,
 Gaussian 16:  ES64L-G16RevB.01 20-Dec-2017

 -------------------------------------------------------------------
 #p b3lyp/6-31g(d) 6D 10F nosymm GFInput td=(50-50,nstate=2) SCF=XQC
 -------------------------------------------------------------------

 ------------------------------
 Gaussian input prepared by ASE
 ------------------------------
 Symbolic Z-matrix:
 Charge =  0 Multiplicity = 1

                          Input orientation:
 ---------------------------------------------------------------------
 Center     Atomic      Atomic             Coordinates (Angstroms)
 Number     Number       Type             X           Y           Z
 ---------------------------------------------------------------------
      1          6           0       -0.873361    3.815308   -1.005645
      2          6           0       -0.909218    2.397915   -1.458544
      3          6           0       -0.776605    1.784055   -2.668890
      4          6           0       -0.886665    0.374266   -2.429249
      5          6           0       -1.080014    0.216349   -1.087918
      6          6           0       -1.274586   -0.995059   -0.213794
      7          6           0       -0.396434   -0.943561    1.059233
      8          7           0        1.020992   -0.901268    0.751707
      9          6           0        1.828375    0.142533    1.081813
     10          8           0        1.480927    1.140332    1.703672
     11          6           0        3.250538   -0.009206    0.626870
     12          6           0        4.297546    0.919946    0.848498
     13          6           0        5.383773    0.336166    0.253302
     14          6           0        6.768763    0.711375    0.091027
     15          6           0        7.765854    0.004490   -0.544765
     16          6           0        9.022359    0.670377   -0.518723
     17          6           0        8.972408    1.873192    0.133521
     18         16           0        7.383301    2.219017    0.731747
     19          8           0        5.010828   -0.857900   -0.285191
     20          7           0        3.657727   -1.067511   -0.042983
     21          7           0       -2.659937   -1.316903    0.161665
     22          6           0       -3.326417   -0.333110    1.036318
     23          6           0       -4.856180   -0.486195    0.969366
     24          7           0       -5.207513   -1.892036    0.847139
     25          6           0       -6.605570   -2.176499    1.104818
     26          6           0       -4.758720   -2.445318   -0.434682
     27          6           0       -3.506507   -1.715121   -0.956275
     28          8           0       -1.099980    1.451938   -0.486297
     29          1           0       -0.668805    4.473410   -1.854741
     30          1           0       -0.092216    3.967349   -0.251079
     31          1           0       -1.826959    4.121586   -0.556952
     32          1           0       -0.609148    2.276266   -3.617266
     33          1           0       -0.816659   -0.419772   -3.160705
     34          1           0       -0.929701   -1.848757   -0.813973
     35          1           0       -0.609613   -0.051777    1.650359
     36          1           0       -0.629793   -1.827707    1.663864
     37          1           0        1.441655   -1.661066    0.230467
     38          1           0        4.225925    1.861435    1.369876
     39          1           0        7.592030   -0.958232   -1.010761
     40          1           0        9.925604    0.271087   -0.966381
     41          1           0        9.773779    2.580296    0.300495
     42          1           0       -3.066955    0.703778    0.773461
     43          1           0       -2.994177   -0.507861    2.066606
     44          1           0       -5.290779   -0.091195    1.894403
     45          1           0       -5.272094    0.126427    0.143659
     46          1           0       -7.295877   -1.701390    0.377836
     47          1           0       -6.772487   -3.259312    1.062108
     48          1           0       -6.877931   -1.832380    2.108929
     49          1           0       -4.545890   -3.513034   -0.292546
     50          1           0       -5.546350   -2.368995   -1.210191
     51          1           0       -3.799415   -0.861091   -1.593672
     52          1           0       -2.939826   -2.396638   -1.601113
 ---------------------------------------------------------------------

 SCF Done:  E(RB3LYP) =  -1619.35593849     A.U. after   15 cycles

 Excitation energies and oscillator strengths:

 Excited state symmetry could not be determined.
 Excited State   1:      Triplet-?Sym    2.5667 eV  483.05 nm  f=0.0000  <S**2>=2.000
      97 ->108         0.11211
     103 ->107         0.68161
     103 <-107         0.10032
 This state for optimization and/or second-order correction.
 Total Energy, E(TD-HF/TD-DFT) =  -1619.26161505
 Copying the excited state density for this state as the 1-particle RhoCI density.

 Excited state symmetry could not be determined.
 Excited State   2:      Triplet-?Sym    3.2459 eV  381.97 nm  f=0.0000  <S**2>=2.000
     105 ->107         0.10179
     106 ->107         0.69671

 Excited state symmetry could not be determined.
 Excited State   3:      Singlet-?Sym    3.2475 eV  381.78 nm  f=0.0001  <S**2>=0.000
     105 ->107         0.10208
     106 ->107         0.69752

 Excited state symmetry could not be determined.
 Excited State   4:      Singlet-?Sym    3.5752 eV  346.79 nm  f=0.0000  <S**2>=0.000
     104 ->107        -0.10935
     105 ->107         0.68855
     106 ->107        -0.10132

 Alpha  occ. eigenvalues --  -88.92388 -19.24374 -19.19995 -19.11341 -14.39064
 Alpha  occ. eigenvalues --  -14.35939 -14.32053 -14.31620 -10.29291 -10.27451
 Alpha  occ. eigenvalues --  -10.24063 -10.23477 -10.23169 -10.23122 -10.22634
 Alpha  occ. eigenvalues --  -10.22483 -10.21702 -10.20953 -10.20782 -10.20561
 Alpha  occ. eigenvalues --  -10.20406 -10.20211 -10.20208 -10.19929 -10.19772
 Alpha  occ. eigenvalues --  -10.18676 -10.17698 -10.17451  -7.98488  -5.94903
 Alpha  occ. eigenvalues --   -5.94528  -5.94179  -1.14932  -1.09419  -1.03193
 Alpha  occ. eigenvalues --   -0.93885  -0.92517  -0.89988  -0.89556  -0.87456
 Alpha  occ. eigenvalues --   -0.81294  -0.78781  -0.78592  -0.75477  -0.75179
 Alpha  occ. eigenvalues --   -0.74898  -0.73843  -0.70941  -0.68805  -0.65257
 Alpha  occ. eigenvalues --   -0.64210  -0.63286  -0.62820  -0.60355  -0.59075
 Alpha  occ. eigenvalues --   -0.58542  -0.57324  -0.56703  -0.54160  -0.53559
 Alpha  occ. eigenvalues --   -0.53070  -0.51055  -0.49419  -0.49077  -0.48408
 Alpha  occ. eigenvalues --   -0.48051  -0.47541  -0.47060  -0.45455  -0.45129
 Alpha  occ. eigenvalues --   -0.44264  -0.43124  -0.42785  -0.41988  -0.41602
 Alpha  occ. eigenvalues --   -0.41314  -0.41246  -0.40822  -0.40310  -0.40123
 Alpha  occ. eigenvalues --   -0.39583  -0.39554  -0.39350  -0.39264  -0.38876
 Alpha  occ. eigenvalues --   -0.38194  -0.37789  -0.37243  -0.36776  -0.35890
 Alpha  occ. eigenvalues --   -0.35783  -0.35333  -0.34107  -0.32855  -0.32559
 Alpha  occ. eigenvalues --   -0.31733  -0.30278  -0.29544  -0.26724  -0.26596
 Alpha  occ. eigenvalues --   -0.25597  -0.25133  -0.22670  -0.21849  -0.20547
 Alpha  occ. eigenvalues --   -0.19211
 Alpha virt. eigenvalues --   -0.06094  -0.02366   0.01374   0.01987   0.03186
 Alpha virt. eigenvalues --    0.07084   0.07486   0.08437   0.08662   0.09010
 Alpha virt. eigenvalues --    0.09622   0.10841   0.11203   0.12070   0.12429

 Mulliken charges:
               1
     1  C   -0.531722
     2  C    0.358299
     3  C   -0.217675
     4  C   -0.218975
     5  C    0.373124
     6  C   -0.074240
     7  C   -0.143837
     8  N   -0.627479
     9  C    0.608298
    10  O   -0.528482
    11  C    0.259342
    12  C   -0.288828
    13  C    0.434424
    14  C   -0.217330
    15  C   -0.111432
    16  C   -0.099581
    17  C   -0.335962
    18  S    0.284881
    19  O   -0.393390
    20  N   -0.249305
    21  N   -0.397627
    22  C   -0.114329
    23  C   -0.156921
    24  N   -0.373648
    25  C   -0.292403
    26  C   -0.096951
    27  C   -0.154120
    28  O   -0.473601
    29  H    0.161811
    30  H    0.184319
    31  H    0.166358
    32  H    0.131462
    33  H    0.132382
    34  H    0.134746
    35  H    0.203387
    36  H    0.163866
    37  H    0.349870
    38  H    0.180900
    39  H    0.167095
    40  H    0.152149
    41  H    0.181600
    42  H    0.142667
    43  H    0.144951
    44  H    0.142355
    45  H    0.115299
    46  H    0.114285
    47  H    0.148815
    48  H    0.146904
    49  H    0.140841
    50  H    0.107369
    51  H    0.130014
    52  H    0.136025
 Sum of Mulliken charges =  -0.00000

 Dipole moment (field-independent basis, Debye):
    X=              1.5131    Y=              0.5379    Z=             -2.0337  Tot=              2.5913
 Quadrupole moment (field-independent basis, Debye-Ang):
   XX=           -128.6735   YY=           -163.5406   ZZ=           -171.5171
   XY=              7.0716   XZ=             -2.2907   YZ=              0.4946

 Normal termination of Gaussian 16 at Sat Nov  5 11:18:49 2022.
