 Gaussian 16, Revision B.01,
 Gaussian 16:  ES64L-G16RevB.01 20-Dec-2017

 -------------------------------------------------------------------
 #p b3lyp/6-31g(d) 6D 10F nosymm GFInput td=(50-50,nstate=2) SCF=XQC
 -------------------------------------------------------------------

 ------------------------------
 Gaussian input prepared by ASE
 ------------------------------
 Symbolic Z-matrix:
 Charge =  0 Multiplicity = 1

                          Input orientation:
 ---------------------------------------------------------------------
 Center     Atomic      Atomic             Coordinates (Angstroms)
 Number     Number       Type             X           Y           Z
 ---------------------------------------------------------------------
      1          8           0        1.184298   -0.067150    1.661465
      2          6           0        0.537136    0.353464    0.709313
      3          6           0        1.233767    1.116624   -0.440798
      4          7           0        2.659912    1.201053   -0.273100
      5          6           0        3.291772    1.955963    0.800696
      6          6           0        4.769167    1.554371    0.640843
      7          7           0        4.692425    0.274543   -0.062271
      8          6           0        5.834459   -0.515468   -0.311296
      9          6           0        5.739256   -1.790649   -0.899894
     10          6           0        6.890787   -2.544957   -1.107665
     11          6           0        8.149358   -2.066112   -0.736529
     12          6           0        8.242947   -0.805931   -0.150027
     13          6           0        7.100954   -0.033006    0.061592
     14          6           0        3.434627    0.106893   -0.639736
     15          8           0        3.052828   -0.801446   -1.362726
     16          7           0       -0.824761    0.197015    0.623095
     17          6           0       -1.649017    0.532120   -0.532729
     18          6           0       -2.929273    1.261388   -0.089762
     19          7           0       -3.628131    0.496960    0.935053
     20          6           0       -4.955034    0.118748    0.925773
     21          8           0       -5.443516   -0.541792    1.833247
     22          6           0       -5.812369    0.507981   -0.297200
     23          6           0       -5.688994   -0.570143   -1.424021
     24          6           0       -7.148130   -1.021061   -1.643212
     25          6           0       -7.796414   -0.671734   -0.300693
     26          8           0       -7.179624    0.562084    0.072434
     27          6           0       -2.796143    0.159955    2.092443
     28          6           0       -1.527566   -0.572224    1.654530
     29          1           0        0.820806    2.129584   -0.527979
     30          1           0        1.057891    0.596719   -1.387325
     31          1           0        2.895139    1.652573    1.775384
     32          1           0        3.145475    3.033968    0.669704
     33          1           0        5.327542    2.291470    0.046325
     34          1           0        5.268774    1.441522    1.607254
     35          1           0        4.769957   -2.167778   -1.193265
     36          1           0        6.796743   -3.526948   -1.564404
     37          1           0        9.039773   -2.666203   -0.900948
     38          1           0        9.210691   -0.410141    0.147312
     39          1           0        7.206899    0.946976    0.513524
     40          1           0       -1.927560   -0.388169   -1.069067
     41          1           0       -1.097927    1.169122   -1.225298
     42          1           0       -3.565970    1.410855   -0.961648
     43          1           0       -2.657417    2.251712    0.307248
     44          1           0       -5.555572    1.510260   -0.654402
     45          1           0       -5.070428   -1.410080   -1.090884
     46          1           0       -5.233402   -0.163052   -2.331967
     47          1           0       -7.613620   -0.438538   -2.445450
     48          1           0       -7.227871   -2.082308   -1.898215
     49          1           0       -8.873607   -0.492742   -0.360032
     50          1           0       -7.599204   -1.440068    0.457928
     51          1           0       -2.523304    1.085023    2.621049
     52          1           0       -3.397264   -0.459568    2.758275
     53          1           0       -1.790605   -1.562220    1.254093
     54          1           0       -0.840662   -0.709454    2.489845
 ---------------------------------------------------------------------

 SCF Done:  E(RB3LYP) =  -1297.71856835     A.U. after   15 cycles

 Excitation energies and oscillator strengths:

 Excited state symmetry could not be determined.
 Excited State   1:      Triplet-?Sym    3.6192 eV  342.57 nm  f=0.0000  <S**2>=2.000
      94 ->104        -0.12656
     100 ->105         0.25138
     101 ->105         0.22851
     102 ->105        -0.11088
     103 ->104         0.56275
 This state for optimization and/or second-order correction.
 Total Energy, E(TD-HF/TD-DFT) =  -1297.58556516
 Copying the excited state density for this state as the 1-particle RhoCI density.

 Excited state symmetry could not be determined.
 Excited State   2:      Triplet-?Sym    4.2346 eV  292.79 nm  f=0.0000  <S**2>=2.000
     103 ->105         0.66966

 Excited state symmetry could not be determined.
 Excited State   3:      Singlet-?Sym    5.0098 eV  247.49 nm  f=0.0154  <S**2>=0.000
     100 ->104        -0.20946
     101 ->104        -0.19728
     102 ->104         0.10048
     103 ->104         0.12081
     103 ->105         0.61393

 Excited state symmetry could not be determined.
 Excited State   4:      Singlet-?Sym    5.2125 eV  237.86 nm  f=0.0182  <S**2>=0.000
      95 ->106        -0.11020
      99 ->106         0.12434
     102 ->106        -0.14605
     103 ->104         0.15967
     103 ->105        -0.10101
     103 ->106         0.58960
     103 ->107        -0.17324

 Alpha  occ. eigenvalues --  -19.14573 -19.12360 -19.11517 -19.11102 -14.37785
 Alpha  occ. eigenvalues --  -14.37439 -14.37137 -14.36115 -10.30789 -10.29714
 Alpha  occ. eigenvalues --  -10.28759 -10.25029 -10.24989 -10.24909 -10.24038
 Alpha  occ. eigenvalues --  -10.23748 -10.23165 -10.22828 -10.22826 -10.22709
 Alpha  occ. eigenvalues --  -10.22600 -10.20307 -10.19341 -10.18346 -10.18281
 Alpha  occ. eigenvalues --  -10.17976 -10.17610 -10.17251  -1.05377  -1.04923
 Alpha  occ. eigenvalues --   -1.04213  -1.02468  -0.97019  -0.96681  -0.92735
 Alpha  occ. eigenvalues --   -0.92321  -0.83873  -0.79847  -0.78881  -0.77971
 Alpha  occ. eigenvalues --   -0.76336  -0.74594  -0.73798  -0.73139  -0.71497
 Alpha  occ. eigenvalues --   -0.67737  -0.65869  -0.64918  -0.62408  -0.60799
 Alpha  occ. eigenvalues --   -0.60314  -0.58907  -0.58300  -0.55675  -0.53481
 Alpha  occ. eigenvalues --   -0.52618  -0.52257  -0.52129  -0.50447  -0.50178
 Alpha  occ. eigenvalues --   -0.49939  -0.49064  -0.48562  -0.48302  -0.47885
 Alpha  occ. eigenvalues --   -0.47117  -0.46587  -0.44902  -0.44523  -0.43065
 Alpha  occ. eigenvalues --   -0.43031  -0.42620  -0.42400  -0.42101  -0.41440
 Alpha  occ. eigenvalues --   -0.41320  -0.40982  -0.40665  -0.40237  -0.39284
 Alpha  occ. eigenvalues --   -0.39010  -0.38777  -0.38425  -0.37565  -0.36968
 Alpha  occ. eigenvalues --   -0.36482  -0.35994  -0.35597  -0.35209  -0.35052
 Alpha  occ. eigenvalues --   -0.34211  -0.33660  -0.31849  -0.28914  -0.27188
 Alpha  occ. eigenvalues --   -0.26921  -0.26524  -0.26152  -0.24524  -0.24142
 Alpha  occ. eigenvalues --   -0.23989  -0.23783  -0.20397
 Alpha virt. eigenvalues --    0.00751   0.00919   0.01089   0.01940   0.06204
 Alpha virt. eigenvalues --    0.06457   0.08094   0.08725   0.09075   0.09873
 Alpha virt. eigenvalues --    0.10250   0.11043   0.11500   0.11819   0.12162

 Mulliken charges:
               1
     1  O   -0.509199
     2  C    0.605260
     3  C   -0.258557
     4  N   -0.472662
     5  C   -0.139114
     6  C   -0.143235
     7  N   -0.602487
     8  C    0.336324
     9  C   -0.163872
    10  C   -0.144853
    11  C   -0.126997
    12  C   -0.138523
    13  C   -0.192490
    14  C    0.821377
    15  O   -0.546496
    16  N   -0.440425
    17  C   -0.146147
    18  C   -0.142420
    19  N   -0.439916
    20  C    0.577502
    21  O   -0.505704
    22  C    0.063305
    23  C   -0.321465
    24  C   -0.287953
    25  C   -0.031860
    26  O   -0.474351
    27  C   -0.154207
    28  C   -0.150852
    29  H    0.164596
    30  H    0.204656
    31  H    0.187206
    32  H    0.147526
    33  H    0.158983
    34  H    0.170692
    35  H    0.183464
    36  H    0.129040
    37  H    0.123013
    38  H    0.125096
    39  H    0.125176
    40  H    0.161148
    41  H    0.168683
    42  H    0.165003
    43  H    0.154015
    44  H    0.140969
    45  H    0.160350
    46  H    0.146680
    47  H    0.150379
    48  H    0.147111
    49  H    0.145802
    50  H    0.156377
    51  H    0.152176
    52  H    0.203595
    53  H    0.158017
    54  H    0.200263
 Sum of Mulliken charges =  -0.00000

 Dipole moment (field-independent basis, Debye):
    X=             -0.2766    Y=              3.8012    Z=             -2.2805  Tot=              4.4415
 Quadrupole moment (field-independent basis, Debye-Ang):
   XX=           -175.3884   YY=           -154.9216   ZZ=           -170.0434
   XY=             13.6695   XZ=             25.2880   YZ=              3.1910

 Normal termination of Gaussian 16 at Sat Nov  5 11:14:18 2022.
