 Gaussian 16, Revision B.01,
 Gaussian 16:  ES64L-G16RevB.01 20-Dec-2017

 -----------------------------
 #p b3lyp/6-31g(d) opt SCF=XQC
 -----------------------------

 ------------------------------
 Gaussian input prepared by ASE
 ------------------------------
 Symbolic Z-matrix:
 Charge =  0 Multiplicity = 1

 SCF Done:  E(RB3LYP) =  -1297.71105968     A.U. after   14 cycles
 SCF Done:  E(RB3LYP) =  -1297.71703524     A.U. after   12 cycles
 SCF Done:  E(RB3LYP) =  -1297.71765486     A.U. after   12 cycles
 SCF Done:  E(RB3LYP) =  -1297.71793931     A.U. after   11 cycles
 SCF Done:  E(RB3LYP) =  -1297.71809345     A.U. after   10 cycles
 SCF Done:  E(RB3LYP) =  -1297.71824390     A.U. after   11 cycles
 SCF Done:  E(RB3LYP) =  -1297.71837077     A.U. after   11 cycles
 SCF Done:  E(RB3LYP) =  -1297.71846220     A.U. after   11 cycles
 SCF Done:  E(RB3LYP) =  -1297.71849507     A.U. after   10 cycles
 SCF Done:  E(RB3LYP) =  -1297.71852969     A.U. after   10 cycles
 SCF Done:  E(RB3LYP) =  -1297.71856736     A.U. after    9 cycles
 SCF Done:  E(RB3LYP) =  -1297.71856799     A.U. after    8 cycles
 SCF Done:  E(RB3LYP) =  -1297.71856847     A.U. after    8 cycles
 SCF Done:  E(RB3LYP) =  -1297.71856866     A.U. after    7 cycles
 SCF Done:  E(RB3LYP) =  -1297.71856872     A.U. after    7 cycles
 SCF Done:  E(RB3LYP) =  -1297.71856876     A.U. after    7 cycles
 SCF Done:  E(RB3LYP) =  -1297.71856878     A.U. after    6 cycles
 SCF Done:  E(RB3LYP) =  -1297.71856880     A.U. after    7 cycles
 SCF Done:  E(RB3LYP) =  -1297.71856882     A.U. after    7 cycles
 SCF Done:  E(RB3LYP) =  -1297.71856883     A.U. after    6 cycles
 Optimization completed.
    -- Stationary point found.

                         Standard orientation:
 ---------------------------------------------------------------------
 Center     Atomic      Atomic             Coordinates (Angstroms)
 Number     Number       Type             X           Y           Z
 ---------------------------------------------------------------------
      1          8           0       -0.976563   -1.091488    1.206185
      2          6           0       -0.341372   -0.738608    0.219101
      3          6           0       -1.040900   -0.573060   -1.149737
      4          7           0       -2.457295   -0.816087   -1.087262
      5          6           0       -3.028323   -2.123756   -0.793828
      6          6           0       -4.524112   -1.789361   -0.651271
      7          7           0       -4.517129   -0.364959   -0.320746
      8          6           0       -5.695508    0.333902    0.015983
      9          6           0       -5.666604    1.679397    0.428785
     10          6           0       -6.851902    2.323746    0.772380
     11          6           0       -8.079829    1.659755    0.723945
     12          6           0       -8.107760    0.326892    0.319597
     13          6           0       -6.931160   -0.334327   -0.033594
     14          6           0       -3.283913    0.205047   -0.633632
     15          8           0       -2.958462    1.380999   -0.564467
     16          7           0        1.010419   -0.499404    0.265094
     17          6           0        1.813326    0.061350   -0.815886
     18          6           0        3.133015   -0.714977   -0.967036
     19          7           0        3.831106   -0.795952    0.309330
     20          6           0        5.141603   -0.444753    0.560444
     21          8           0        5.630189   -0.534882    1.679192
     22          6           0        5.977703    0.122086   -0.606526
     23          6           0        5.780370    1.669289   -0.727036
     24          6           0        7.214088    2.220844   -0.583199
     25          6           0        7.913812    1.097174    0.186484
     26          8           0        7.356116   -0.098948   -0.361448
     27          6           0        3.020448   -1.356707    1.392711
     28          6           0        1.712459   -0.581024    1.549618
     29          1           0       -0.591836   -1.248636   -1.888765
     30          1           0       -0.912586    0.453077   -1.507124
     31          1           0       -2.615758   -2.528771    0.136297
     32          1           0       -2.844366   -2.831309   -1.610030
     33          1           0       -5.070531   -1.968153   -1.588293
     34          1           0       -4.999630   -2.373603    0.141721
     35          1           0       -4.721445    2.202007    0.466040
     36          1           0       -6.809038    3.363193    1.087773
     37          1           0       -8.997112    2.173017    0.998053
     38          1           0       -9.050531   -0.212169    0.272854
     39          1           0       -6.986128   -1.369647   -0.351279
     40          1           0        2.040562    1.116813   -0.600161
     41          1           0        1.267493    0.022728   -1.759123
     42          1           0        3.749601   -0.214407   -1.713467
     43          1           0        2.911144   -1.729340   -1.333240
     44          1           0        5.749589   -0.397687   -1.542421
     45          1           0        5.139709    2.042338    0.078871
     46          1           0        5.314840    1.949844   -1.676891
     47          1           0        7.678389    2.344635   -1.567425
     48          1           0        7.245423    3.184083   -0.064722
     49          1           0        8.994951    1.055274    0.027469
     50          1           0        7.709049    1.153551    1.263345
     51          1           0        2.798871   -2.410298    1.168063
     52          1           0        3.616159   -1.310864    2.304586
     53          1           0        1.925437    0.434957    1.913013
     54          1           0        1.045141   -1.068727    2.260429
 ---------------------------------------------------------------------

 The electronic state is 1-A.
 Alpha  occ. eigenvalues --  -19.14573 -19.12360 -19.11517 -19.11102 -14.37785
 Alpha  occ. eigenvalues --  -14.37439 -14.37137 -14.36115 -10.30789 -10.29714
 Alpha  occ. eigenvalues --  -10.28759 -10.25029 -10.24989 -10.24909 -10.24038
 Alpha  occ. eigenvalues --  -10.23748 -10.23165 -10.22828 -10.22826 -10.22710
 Alpha  occ. eigenvalues --  -10.22600 -10.20307 -10.19341 -10.18346 -10.18281
 Alpha  occ. eigenvalues --  -10.17976 -10.17610 -10.17251  -1.05377  -1.04923
 Alpha  occ. eigenvalues --   -1.04213  -1.02468  -0.97019  -0.96681  -0.92735
 Alpha  occ. eigenvalues --   -0.92321  -0.83873  -0.79847  -0.78881  -0.77971
 Alpha  occ. eigenvalues --   -0.76336  -0.74594  -0.73798  -0.73139  -0.71497
 Alpha  occ. eigenvalues --   -0.67737  -0.65869  -0.64918  -0.62408  -0.60799
 Alpha  occ. eigenvalues --   -0.60314  -0.58907  -0.58300  -0.55675  -0.53481
 Alpha  occ. eigenvalues --   -0.52618  -0.52257  -0.52129  -0.50447  -0.50178
 Alpha  occ. eigenvalues --   -0.49939  -0.49064  -0.48562  -0.48302  -0.47885
 Alpha  occ. eigenvalues --   -0.47117  -0.46587  -0.44902  -0.44523  -0.43065
 Alpha  occ. eigenvalues --   -0.43031  -0.42620  -0.42400  -0.42101  -0.41440
 Alpha  occ. eigenvalues --   -0.41320  -0.40982  -0.40665  -0.40237  -0.39284
 Alpha  occ. eigenvalues --   -0.39010  -0.38777  -0.38425  -0.37565  -0.36968
 Alpha  occ. eigenvalues --   -0.36482  -0.35994  -0.35597  -0.35209  -0.35052
 Alpha  occ. eigenvalues --   -0.34211  -0.33660  -0.31849  -0.28914  -0.27188
 Alpha  occ. eigenvalues --   -0.26921  -0.26524  -0.26152  -0.24524  -0.24142
 Alpha  occ. eigenvalues --   -0.23989  -0.23783  -0.20397
 Alpha virt. eigenvalues --    0.00752   0.00919   0.01089   0.01940   0.06204
 Alpha virt. eigenvalues --    0.06457   0.08094   0.08725   0.09075   0.09873
 Alpha virt. eigenvalues --    0.10250   0.11043   0.11500   0.11819   0.12162

 Mulliken charges:
               1
     1  O   -0.509193
     2  C    0.605251
     3  C   -0.258576
     4  N   -0.472642
     5  C   -0.139109
     6  C   -0.143235
     7  N   -0.602502
     8  C    0.336311
     9  C   -0.163850
    10  C   -0.144850
    11  C   -0.127012
    12  C   -0.138513
    13  C   -0.192486
    14  C    0.821373
    15  O   -0.546497
    16  N   -0.440436
    17  C   -0.146112
    18  C   -0.142440
    19  N   -0.439941
    20  C    0.577514
    21  O   -0.505708
    22  C    0.063306
    23  C   -0.321473
    24  C   -0.287949
    25  C   -0.031859
    26  O   -0.474350
    27  C   -0.154164
    28  C   -0.150878
    29  H    0.164602
    30  H    0.204659
    31  H    0.187206
    32  H    0.147526
    33  H    0.158982
    34  H    0.170691
    35  H    0.183463
    36  H    0.129039
    37  H    0.123014
    38  H    0.125095
    39  H    0.125177
    40  H    0.161143
    41  H    0.168680
    42  H    0.165006
    43  H    0.154016
    44  H    0.140971
    45  H    0.160354
    46  H    0.146681
    47  H    0.150377
    48  H    0.147110
    49  H    0.145803
    50  H    0.156376
    51  H    0.152169
    52  H    0.203591
    53  H    0.158021
    54  H    0.200266
 Sum of Mulliken charges =  -0.00000

 Dipole moment (field-independent basis, Debye):
    X=              0.3573    Y=             -1.2942    Z=             -4.2336  Tot=              4.4414
 Quadrupole moment (field-independent basis, Debye-Ang):
   XX=           -177.7419   YY=           -155.9892   ZZ=           -165.9645
   XY=             25.8927   XZ=            -10.7984   YZ=              6.7997

 Normal termination of Gaussian 16 at Fri Nov  4 18:45:58 2022.
