 Gaussian 16, Revision B.01,
 Gaussian 16:  ES64L-G16RevB.01 20-Dec-2017

 -------------------------------------------------------------------
 #p b3lyp/6-31g(d) 6D 10F nosymm GFInput td=(50-50,nstate=2) SCF=XQC
 -------------------------------------------------------------------

 ------------------------------
 Gaussian input prepared by ASE
 ------------------------------
 Symbolic Z-matrix:
 Charge =  0 Multiplicity = 1

                          Input orientation:
 ---------------------------------------------------------------------
 Center     Atomic      Atomic             Coordinates (Angstroms)
 Number     Number       Type             X           Y           Z
 ---------------------------------------------------------------------
      1          6           0       -3.270301    2.520918   -0.410161
      2          6           0       -2.471883    2.110487    0.840671
      3          6           0       -1.354463    1.134207    0.548944
      4          6           0       -0.034103    1.534299    0.471061
      5          6           0        1.029477    0.655395    0.177009
      6          6           0        2.406059    1.083337    0.111403
      7          8           0        2.768336    2.353882    0.377644
      8          6           0        3.376508    0.173156   -0.201888
      9          7           0        4.782242    0.586509   -0.228867
     10          8           0        5.087023    1.501231   -0.991533
     11          8           0        5.551410   -0.006449    0.520036
     12          6           0        3.108582   -1.225070   -0.493326
     13          8           0        3.965065   -2.035161   -0.820836
     14          7           0        1.745263   -1.598882   -0.390079
     15          6           0        1.437952   -3.002099   -0.664645
     16          6           0        0.733275   -0.709576   -0.068942
     17          6           0       -0.605864   -1.140189    0.016390
     18          6           0       -1.623625   -0.240613    0.319622
     19          8           0       -2.931506   -0.596429    0.418916
     20          6           0       -3.297082   -1.957550    0.226860
     21          1           0       -4.060476    3.232281   -0.145007
     22          1           0       -2.620763    2.996122   -1.153719
     23          1           0       -3.740285    1.649731   -0.876179
     24          1           0       -2.043203    3.005656    1.307706
     25          1           0       -3.157375    1.669671    1.573353
     26          1           0        0.164879    2.592460    0.634549
     27          1           0        2.011872    2.852783    0.720809
     28          1           0        0.990345   -3.477880    0.214362
     29          1           0        0.752405   -3.087823   -1.514365
     30          1           0        2.379318   -3.492050   -0.905238
     31          1           0       -0.842348   -2.178626   -0.158827
     32          1           0       -3.048133   -2.298899   -0.785659
     33          1           0       -2.810356   -2.608976    0.963259
     34          1           0       -4.378246   -1.995853    0.366674
 ---------------------------------------------------------------------

 SCF Done:  E(RB3LYP) =  -989.337345536     A.U. after   16 cycles

 Excitation energies and oscillator strengths:

 Excited state symmetry could not be determined.
 Excited State   1:      Triplet-?Sym    2.7452 eV  451.64 nm  f=0.0000  <S**2>=2.000
      67 -> 74         0.24214
      67 -> 75        -0.25502
      70 -> 75         0.10087
      71 -> 74         0.10857
      72 -> 74         0.20814
      73 -> 74         0.51306
 This state for optimization and/or second-order correction.
 Total Energy, E(TD-HF/TD-DFT) =  -989.236460636
 Copying the excited state density for this state as the 1-particle RhoCI density.

 Excited state symmetry could not be determined.
 Excited State   2:      Triplet-?Sym    2.7757 eV  446.67 nm  f=0.0000  <S**2>=2.000
      67 -> 74        -0.34702
      67 -> 75         0.31433
      68 -> 74         0.16457
      68 -> 75        -0.20037
      69 -> 74         0.10691
      71 -> 74        -0.15624
      71 -> 75         0.15175
      72 -> 74         0.17870
      73 -> 74         0.33653

 Excited state symmetry could not be determined.
 Excited State   3:      Singlet-?Sym    3.5110 eV  353.14 nm  f=0.1174  <S**2>=0.000
      70 -> 74        -0.14945
      70 -> 75         0.13500
      72 -> 74         0.11362
      72 -> 75        -0.11527
      73 -> 74         0.59261
      73 -> 75        -0.23515

 Excited state symmetry could not be determined.
 Excited State   4:      Singlet-?Sym    3.8842 eV  319.20 nm  f=0.0280  <S**2>=0.000
      68 -> 74         0.13738
      68 -> 75        -0.10593
      70 -> 74        -0.14459
      70 -> 75         0.12766
      72 -> 74         0.46735
      72 -> 75        -0.20101
      73 -> 74        -0.31694
      73 -> 75        -0.21062

 Alpha  occ. eigenvalues --  -19.21580 -19.21057 -19.16573 -19.16498 -19.11881
 Alpha  occ. eigenvalues --  -14.55719 -14.40184 -10.30457 -10.29888 -10.28129
 Alpha  occ. eigenvalues --  -10.27023 -10.26677 -10.23931 -10.23084 -10.22843
 Alpha  occ. eigenvalues --  -10.22761 -10.21803 -10.21576 -10.20589 -10.18886
 Alpha  occ. eigenvalues --   -1.20892  -1.10248  -1.09646  -1.04764  -1.03506
 Alpha  occ. eigenvalues --   -0.97322  -0.88240  -0.84899  -0.80892  -0.78917
 Alpha  occ. eigenvalues --   -0.75443  -0.74558  -0.72571  -0.69679  -0.66890
 Alpha  occ. eigenvalues --   -0.63515  -0.62654  -0.61037  -0.59263  -0.55307
 Alpha  occ. eigenvalues --   -0.54707  -0.53657  -0.52268  -0.50222  -0.50085
 Alpha  occ. eigenvalues --   -0.49664  -0.48973  -0.48354  -0.48215  -0.46966
 Alpha  occ. eigenvalues --   -0.45106  -0.44925  -0.44075  -0.43633  -0.42150
 Alpha  occ. eigenvalues --   -0.41511  -0.40521  -0.40013  -0.39817  -0.38653
 Alpha  occ. eigenvalues --   -0.38139  -0.37644  -0.36236  -0.35301  -0.34997
 Alpha  occ. eigenvalues --   -0.31124  -0.29293  -0.28922  -0.28804  -0.27250
 Alpha  occ. eigenvalues --   -0.26305  -0.24681  -0.22356
 Alpha virt. eigenvalues --   -0.06931  -0.04265  -0.02177   0.00936   0.03359
 Alpha virt. eigenvalues --    0.06896   0.07657   0.08471   0.09999   0.10746
 Alpha virt. eigenvalues --    0.12310   0.12522   0.13287   0.13315   0.14207

 Mulliken charges:
               1
     1  C   -0.440524
     2  C   -0.331626
     3  C    0.140430
     4  C   -0.312932
     5  C    0.119703
     6  C    0.339423
     7  O   -0.612893
     8  C    0.075182
     9  N    0.390337
    10  O   -0.376914
    11  O   -0.367131
    12  C    0.631193
    13  O   -0.514125
    14  N   -0.628163
    15  C   -0.344839
    16  C    0.363705
    17  C   -0.276247
    18  C    0.347208
    19  O   -0.507133
    20  C   -0.222343
    21  H    0.149074
    22  H    0.147901
    23  H    0.161250
    24  H    0.139749
    25  H    0.161498
    26  H    0.118912
    27  H    0.431388
    28  H    0.167057
    29  H    0.166812
    30  H    0.229033
    31  H    0.149772
    32  H    0.161597
    33  H    0.161989
    34  H    0.181657
 Sum of Mulliken charges =  -0.00000

 Dipole moment (field-independent basis, Debye):
    X=            -10.5114    Y=             -0.6075    Z=              1.3804  Tot=             10.6191
 Quadrupole moment (field-independent basis, Debye-Ang):
   XX=           -161.3314   YY=           -101.6719   ZZ=           -116.2749
   XY=              6.4495   XZ=              4.7647   YZ=              4.5141

 Normal termination of Gaussian 16 at Sat Nov  5 11:09:35 2022.
