 Gaussian 16, Revision B.01,
 Gaussian 16:  ES64L-G16RevB.01 20-Dec-2017

 -----------------------------
 #p b3lyp/6-31g(d) opt SCF=XQC
 -----------------------------

 ------------------------------
 Gaussian input prepared by ASE
 ------------------------------
 Symbolic Z-matrix:
 Charge =  0 Multiplicity = 1

 SCF Done:  E(RB3LYP) =  -989.332839267     A.U. after   16 cycles
 SCF Done:  E(RB3LYP) =  -989.337049449     A.U. after   13 cycles
 SCF Done:  E(RB3LYP) =  -989.336282085     A.U. after   14 cycles
 SCF Done:  E(RB3LYP) =  -989.337007000     A.U. after   14 cycles
 SCF Done:  E(RB3LYP) =  -989.337255763     A.U. after    9 cycles
 SCF Done:  E(RB3LYP) =  -989.337308828     A.U. after   12 cycles
 SCF Done:  E(RB3LYP) =  -989.337315489     A.U. after   11 cycles
 SCF Done:  E(RB3LYP) =  -989.337320258     A.U. after    9 cycles
 SCF Done:  E(RB3LYP) =  -989.337321915     A.U. after    9 cycles
 SCF Done:  E(RB3LYP) =  -989.337322941     A.U. after    9 cycles
 SCF Done:  E(RB3LYP) =  -989.337327505     A.U. after   14 cycles
 SCF Done:  E(RB3LYP) =  -989.337340492     A.U. after   13 cycles
 SCF Done:  E(RB3LYP) =  -989.337333319     A.U. after   12 cycles
 SCF Done:  E(RB3LYP) =  -989.337335095     A.U. after   11 cycles
 SCF Done:  E(RB3LYP) =  -989.337339669     A.U. after   10 cycles
 SCF Done:  E(RB3LYP) =  -989.337340464     A.U. after   10 cycles
 SCF Done:  E(RB3LYP) =  -989.337337806     A.U. after   12 cycles
 SCF Done:  E(RB3LYP) =  -989.337342428     A.U. after   12 cycles
 SCF Done:  E(RB3LYP) =  -989.337342547     A.U. after    8 cycles
 SCF Done:  E(RB3LYP) =  -989.337342574     A.U. after    8 cycles
 Optimization completed.
    -- Stationary point found.

                         Standard orientation:
 ---------------------------------------------------------------------
 Center     Atomic      Atomic             Coordinates (Angstroms)
 Number     Number       Type             X           Y           Z
 ---------------------------------------------------------------------
      1          6           0       -4.290352   -2.155191    0.974193
      2          6           0       -3.571823   -1.935157   -0.369611
      3          6           0       -2.386072   -1.001579   -0.273278
      4          6           0       -1.086116   -1.469320   -0.244579
      5          6           0        0.041179   -0.628835   -0.130852
      6          6           0        1.394712   -1.128953   -0.115133
      7          8           0        1.668936   -2.440715   -0.258304
      8          6           0        2.432402   -0.249696    0.020720
      9          7           0        3.812699   -0.741391   -0.005601
     10          8           0        4.128363   -1.582364    0.833677
     11          8           0        4.550709   -0.282747   -0.871085
     12          6           0        2.260682    1.185840    0.167366
     13          8           0        3.180842    1.974253    0.337019
     14          7           0        0.914618    1.627280    0.119648
     15          6           0        0.702627    3.068264    0.251824
     16          6           0       -0.163963    0.770360   -0.023410
     17          6           0       -1.481618    1.268680   -0.061665
     18          6           0       -2.565080    0.403910   -0.185384
     19          8           0       -3.856571    0.824599   -0.231083
     20          6           0       -4.135186    2.218162   -0.171622
     21          1           0       -5.134524   -2.842732    0.850178
     22          1           0       -3.610212   -2.583058    1.719135
     23          1           0       -4.676868   -1.210895    1.369076
     24          1           0       -3.227748   -2.900870   -0.759775
     25          1           0       -4.288687   -1.538029   -1.097234
     26          1           0       -0.955472   -2.549146   -0.298747
     27          1           0        0.863223   -2.928198   -0.486532
     28          1           0        0.212993    3.469488   -0.641849
     29          1           0        0.090826    3.289025    1.132909
     30          1           0        1.683963    3.524333    0.366212
     31          1           0       -1.649704    2.332502    0.009087
     32          1           0       -3.790675    2.654316    0.774302
     33          1           0       -3.674381    2.753205   -1.011222
     34          1           0       -5.220533    2.305728   -0.237083
 ---------------------------------------------------------------------

 The electronic state is 1-A.
 Alpha  occ. eigenvalues --  -19.21580 -19.21056 -19.16573 -19.16498 -19.11881
 Alpha  occ. eigenvalues --  -14.55719 -14.40184 -10.30457 -10.29888 -10.28129
 Alpha  occ. eigenvalues --  -10.27023 -10.26677 -10.23931 -10.23084 -10.22843
 Alpha  occ. eigenvalues --  -10.22761 -10.21803 -10.21576 -10.20589 -10.18886
 Alpha  occ. eigenvalues --   -1.20892  -1.10248  -1.09646  -1.04764  -1.03506
 Alpha  occ. eigenvalues --   -0.97322  -0.88241  -0.84899  -0.80892  -0.78917
 Alpha  occ. eigenvalues --   -0.75443  -0.74558  -0.72571  -0.69679  -0.66890
 Alpha  occ. eigenvalues --   -0.63515  -0.62654  -0.61037  -0.59263  -0.55307
 Alpha  occ. eigenvalues --   -0.54707  -0.53657  -0.52268  -0.50222  -0.50085
 Alpha  occ. eigenvalues --   -0.49664  -0.48973  -0.48354  -0.48215  -0.46966
 Alpha  occ. eigenvalues --   -0.45106  -0.44925  -0.44075  -0.43633  -0.42150
 Alpha  occ. eigenvalues --   -0.41511  -0.40521  -0.40013  -0.39817  -0.38653
 Alpha  occ. eigenvalues --   -0.38139  -0.37644  -0.36236  -0.35301  -0.34997
 Alpha  occ. eigenvalues --   -0.31124  -0.29293  -0.28922  -0.28804  -0.27250
 Alpha  occ. eigenvalues --   -0.26305  -0.24681  -0.22356
 Alpha virt. eigenvalues --   -0.06931  -0.04265  -0.02177   0.00936   0.03359
 Alpha virt. eigenvalues --    0.06896   0.07657   0.08471   0.09999   0.10746
 Alpha virt. eigenvalues --    0.12310   0.12522   0.13287   0.13315   0.14207

 Mulliken charges:
               1
     1  C   -0.440526
     2  C   -0.331620
     3  C    0.140424
     4  C   -0.312936
     5  C    0.119687
     6  C    0.339451
     7  O   -0.612893
     8  C    0.075175
     9  N    0.390334
    10  O   -0.376912
    11  O   -0.367131
    12  C    0.631194
    13  O   -0.514120
    14  N   -0.628178
    15  C   -0.344843
    16  C    0.363725
    17  C   -0.276239
    18  C    0.347183
    19  O   -0.507119
    20  C   -0.222347
    21  H    0.149074
    22  H    0.147901
    23  H    0.161251
    24  H    0.139748
    25  H    0.161497
    26  H    0.118913
    27  H    0.431388
    28  H    0.167058
    29  H    0.166812
    30  H    0.229033
    31  H    0.149771
    32  H    0.161598
    33  H    0.161990
    34  H    0.181657
 Sum of Mulliken charges =  -0.00000

 Dipole moment (field-independent basis, Debye):
    X=            -10.5415    Y=              1.0822    Z=             -0.6844  Tot=             10.6190
 Quadrupole moment (field-independent basis, Debye-Ang):
   XX=           -142.5300   YY=           -100.0160   ZZ=           -116.8323
   XY=             -5.1272   XZ=             -0.3999   YZ=              3.2247

 Normal termination of Gaussian 16 at Fri Nov  4 18:29:28 2022.
