 Gaussian 16, Revision B.01,
 Gaussian 16:  ES64L-G16RevB.01 20-Dec-2017

 -------------------------------------------------------------------
 #p b3lyp/6-31g(d) 6D 10F nosymm GFInput td=(50-50,nstate=2) SCF=XQC
 -------------------------------------------------------------------

 ------------------------------
 Gaussian input prepared by ASE
 ------------------------------
 Symbolic Z-matrix:
 Charge =  0 Multiplicity = 1

                          Input orientation:
 ---------------------------------------------------------------------
 Center     Atomic      Atomic             Coordinates (Angstroms)
 Number     Number       Type             X           Y           Z
 ---------------------------------------------------------------------
      1          6           0       -3.700492    1.013392    2.371712
      2          6           0       -2.898576    0.917193    1.069171
      3          6           0       -2.723001   -0.530302    0.592097
      4          6           0       -1.847171   -0.723418   -0.665101
      5          6           0       -2.403443   -0.029353   -1.919691
      6          6           0       -1.704433   -0.446259   -3.218232
      7          7           0       -0.464115   -0.299323   -0.427817
      8          6           0        0.502765   -1.161895    0.016393
      9          8           0        0.264277   -2.346361    0.249508
     10          6           0        1.878223   -0.590965    0.193630
     11          6           0        2.953861   -1.487405    0.242739
     12          6           0        4.260782   -1.040751    0.400553
     13          6           0        4.544321    0.328661    0.533419
     14          7           0        5.832482    0.832314    0.641998
     15          6           0        3.448938    1.205729    0.502777
     16          9           0        3.710364    2.530698    0.672176
     17          6           0        2.145809    0.780405    0.339703
     18          1           0       -3.207118    0.460997    3.180556
     19          1           0       -4.706139    0.592187    2.250369
     20          1           0       -3.812502    2.054040    2.697115
     21          1           0       -3.399341    1.512818    0.293819
     22          1           0       -1.909215    1.370874    1.219427
     23          1           0       -3.709968   -0.972465    0.391950
     24          1           0       -2.274619   -1.126033    1.397479
     25          1           0       -1.791013   -1.800799   -0.855058
     26          1           0       -2.341796    1.062263   -1.799100
     27          1           0       -3.473962   -0.262124   -1.988092
     28          1           0       -1.808104   -1.523906   -3.390745
     29          1           0       -2.133390    0.075146   -4.081138
     30          1           0       -0.632620   -0.220761   -3.189242
     31          1           0       -0.191799    0.624693   -0.729208
     32          1           0        2.738648   -2.546754    0.154793
     33          1           0        5.082178   -1.752966    0.421759
     34          1           0        5.892112    1.769087    1.019323
     35          1           0        6.517348    0.201840    1.037668
     36          1           0        1.360711    1.529504    0.373291
 ---------------------------------------------------------------------

 SCF Done:  E(RB3LYP) =  -791.421210597     A.U. after   15 cycles

 Excitation energies and oscillator strengths:

 Excited state symmetry could not be determined.
 Excited State   1:      Triplet-?Sym    3.2861 eV  377.30 nm  f=0.0000  <S**2>=2.000
      61 -> 66        -0.18198
      64 -> 65         0.65121
 This state for optimization and/or second-order correction.
 Total Energy, E(TD-HF/TD-DFT) =  -791.300449287
 Copying the excited state density for this state as the 1-particle RhoCI density.

 Excited state symmetry could not be determined.
 Excited State   2:      Triplet-?Sym    4.0295 eV  307.69 nm  f=0.0000  <S**2>=2.000
      61 -> 66         0.22226
      64 -> 65         0.18057
      64 -> 66         0.63294

 Excited state symmetry could not be determined.
 Excited State   3:      Singlet-?Sym    4.6393 eV  267.25 nm  f=0.0997  <S**2>=0.000
      62 -> 65         0.50265
      63 -> 65        -0.13706
      64 -> 65        -0.42583
      64 -> 66        -0.12952

 Excited state symmetry could not be determined.
 Excited State   4:      Singlet-?Sym    4.8206 eV  257.20 nm  f=0.0695  <S**2>=0.000
      61 -> 65         0.26964
      61 -> 66        -0.12007
      62 -> 65         0.38180
      64 -> 65         0.31607
      64 -> 66         0.39022

 Alpha  occ. eigenvalues --  -24.71062 -19.09945 -14.35501 -14.35011 -10.27815
 Alpha  occ. eigenvalues --  -10.26935 -10.24325 -10.21708 -10.20379 -10.19590
 Alpha  occ. eigenvalues --  -10.19486 -10.19111 -10.18772 -10.17942 -10.17603
 Alpha  occ. eigenvalues --  -10.17505 -10.17193  -1.21884  -1.01878  -0.93226
 Alpha  occ. eigenvalues --   -0.91378  -0.85147  -0.79710  -0.76675  -0.75265
 Alpha  occ. eigenvalues --   -0.74483  -0.70823  -0.65021  -0.63599  -0.62100
 Alpha  occ. eigenvalues --   -0.60488  -0.58438  -0.56295  -0.55090  -0.53015
 Alpha  occ. eigenvalues --   -0.51259  -0.48874  -0.47737  -0.46537  -0.46086
 Alpha  occ. eigenvalues --   -0.45327  -0.44839  -0.44169  -0.42863  -0.42066
 Alpha  occ. eigenvalues --   -0.40580  -0.40451  -0.39710  -0.38671  -0.38036
 Alpha  occ. eigenvalues --   -0.37033  -0.36724  -0.36014  -0.35855  -0.34920
 Alpha  occ. eigenvalues --   -0.34372  -0.32960  -0.32409  -0.31460  -0.30972
 Alpha  occ. eigenvalues --   -0.25330  -0.24248  -0.24113  -0.21092
 Alpha virt. eigenvalues --   -0.02280  -0.00087   0.06345   0.06978   0.08266
 Alpha virt. eigenvalues --    0.09725   0.10529   0.10795   0.12480   0.13442
 Alpha virt. eigenvalues --    0.14025   0.14603   0.15218   0.15932   0.16243

 Mulliken charges:
               1
     1  C   -0.441467
     2  C   -0.257061
     3  C   -0.250986
     4  C    0.056277
     5  C   -0.284031
     6  C   -0.442868
     7  N   -0.628263
     8  C    0.564435
     9  O   -0.535768
    10  C    0.067503
    11  C   -0.163233
    12  C   -0.183995
    13  C    0.265665
    14  N   -0.791013
    15  C    0.330869
    16  F   -0.309875
    17  C   -0.268951
    18  H    0.146616
    19  H    0.142162
    20  H    0.140591
    21  H    0.131270
    22  H    0.127918
    23  H    0.126587
    24  H    0.153125
    25  H    0.166784
    26  H    0.129976
    27  H    0.142998
    28  H    0.152515
    29  H    0.144353
    30  H    0.147092
    31  H    0.322538
    32  H    0.163680
    33  H    0.131204
    34  H    0.335427
    35  H    0.328693
    36  H    0.139232
 Sum of Mulliken charges =  -0.00000

 Dipole moment (field-independent basis, Debye):
    X=              1.4363    Y=              2.4306    Z=              0.0602  Tot=              2.8239
 Quadrupole moment (field-independent basis, Debye-Ang):
   XX=            -77.3649   YY=           -108.1734   ZZ=           -101.2878
   XY=             -1.9166   XZ=             10.5966   YZ=              1.9173

 Normal termination of Gaussian 16 at Sat Nov  5 11:09:43 2022.
