 Gaussian 16, Revision B.01,
 Gaussian 16:  ES64L-G16RevB.01 20-Dec-2017

 -----------------------------
 #p b3lyp/6-31g(d) opt SCF=XQC
 -----------------------------

 ------------------------------
 Gaussian input prepared by ASE
 ------------------------------
 Symbolic Z-matrix:
 Charge =  0 Multiplicity = 1

 SCF Done:  E(RB3LYP) =  -791.417262712     A.U. after   15 cycles
 SCF Done:  E(RB3LYP) =  -791.420626656     A.U. after   12 cycles
 SCF Done:  E(RB3LYP) =  -791.420949076     A.U. after   12 cycles
 SCF Done:  E(RB3LYP) =  -791.421005794     A.U. after   11 cycles
 SCF Done:  E(RB3LYP) =  -791.421106169     A.U. after   10 cycles
 SCF Done:  E(RB3LYP) =  -791.421134600     A.U. after   10 cycles
 SCF Done:  E(RB3LYP) =  -791.421144628     A.U. after   10 cycles
 SCF Done:  E(RB3LYP) =  -791.421148541     A.U. after    9 cycles
 SCF Done:  E(RB3LYP) =  -791.421152366     A.U. after   10 cycles
 SCF Done:  E(RB3LYP) =  -791.421154616     A.U. after    9 cycles
 SCF Done:  E(RB3LYP) =  -791.421177195     A.U. after   13 cycles
 SCF Done:  E(RB3LYP) =  -791.420548638     A.U. after   12 cycles
 SCF Done:  E(RB3LYP) =  -791.420666982     A.U. after   13 cycles
 SCF Done:  E(RB3LYP) =  -791.421201690     A.U. after   10 cycles
 SCF Done:  E(RB3LYP) =  -791.421207010     A.U. after   12 cycles
 SCF Done:  E(RB3LYP) =  -791.421210070     A.U. after   11 cycles
 SCF Done:  E(RB3LYP) =  -791.421210845     A.U. after   10 cycles
 SCF Done:  E(RB3LYP) =  -791.421211321     A.U. after    8 cycles
 SCF Done:  E(RB3LYP) =  -791.421211343     A.U. after    7 cycles
 SCF Done:  E(RB3LYP) =  -791.421211320     A.U. after    7 cycles
 Optimization completed.
    -- Stationary point found.

                         Standard orientation:
 ---------------------------------------------------------------------
 Center     Atomic      Atomic             Coordinates (Angstroms)
 Number     Number       Type             X           Y           Z
 ---------------------------------------------------------------------
      1          6           0        4.064786    2.887058   -0.743765
      2          6           0        3.390927    1.757342    0.042739
      3          6           0        3.365297    0.434281   -0.733482
      4          6           0        2.621116   -0.733366   -0.049586
      5          6           0        3.234033   -1.154275    1.296642
      6          6           0        2.685617   -2.478721    1.838600
      7          7           0        1.195034   -0.438078    0.118039
      8          6           0        0.258578   -0.780856   -0.820985
      9          8           0        0.561864   -1.353017   -1.867326
     10          6           0       -1.165421   -0.433660   -0.503277
     11          6           0       -2.172343   -1.106681   -1.207667
     12          6           0       -3.517401   -0.847332   -0.971018
     13          6           0       -3.911525    0.114294   -0.025882
     14          7           0       -5.237769    0.376220    0.286029
     15          6           0       -2.885206    0.790747    0.651709
     16          9           0       -3.257341    1.753207    1.539272
     17          6           0       -1.545016    0.540963    0.434599
     18          1           0        3.543504    3.074327   -1.690330
     19          1           0        5.105469    2.636907   -0.984319
     20          1           0        4.070651    3.823457   -0.174113
     21          1           0        3.913397    1.624230    0.999823
     22          1           0        2.361465    2.052222    0.288695
     23          1           0        4.395962    0.109327   -0.937946
     24          1           0        2.892200    0.595824   -1.710553
     25          1           0        2.661407   -1.586005   -0.736150
     26          1           0        3.081835   -0.357803    2.039901
     27          1           0        4.320602   -1.234205    1.163036
     28          1           0        2.883142   -3.300066    1.139882
     29          1           0        3.149989   -2.734109    2.797563
     30          1           0        1.601797   -2.433178    1.992648
     31          1           0        0.883356   -0.091096    1.013169
     32          1           0       -1.872872   -1.839951   -1.948548
     33          1           0       -4.282842   -1.391543   -1.519038
     34          1           0       -5.399372    1.263803    0.743799
     35          1           0       -5.906844    0.181299   -0.447074
     36          1           0       -0.823207    1.146087    0.974483
 ---------------------------------------------------------------------

 The electronic state is 1-A.
 Alpha  occ. eigenvalues --  -24.71062 -19.09945 -14.35501 -14.35011 -10.27815
 Alpha  occ. eigenvalues --  -10.26935 -10.24325 -10.21708 -10.20379 -10.19590
 Alpha  occ. eigenvalues --  -10.19486 -10.19111 -10.18772 -10.17942 -10.17603
 Alpha  occ. eigenvalues --  -10.17504 -10.17193  -1.21884  -1.01878  -0.93226
 Alpha  occ. eigenvalues --   -0.91378  -0.85147  -0.79710  -0.76675  -0.75265
 Alpha  occ. eigenvalues --   -0.74483  -0.70823  -0.65021  -0.63599  -0.62100
 Alpha  occ. eigenvalues --   -0.60488  -0.58438  -0.56295  -0.55090  -0.53015
 Alpha  occ. eigenvalues --   -0.51259  -0.48874  -0.47737  -0.46537  -0.46086
 Alpha  occ. eigenvalues --   -0.45327  -0.44839  -0.44169  -0.42863  -0.42066
 Alpha  occ. eigenvalues --   -0.40580  -0.40451  -0.39710  -0.38671  -0.38036
 Alpha  occ. eigenvalues --   -0.37033  -0.36724  -0.36014  -0.35855  -0.34920
 Alpha  occ. eigenvalues --   -0.34372  -0.32960  -0.32409  -0.31460  -0.30972
 Alpha  occ. eigenvalues --   -0.25330  -0.24248  -0.24113  -0.21092
 Alpha virt. eigenvalues --   -0.02280  -0.00087   0.06345   0.06978   0.08266
 Alpha virt. eigenvalues --    0.09725   0.10529   0.10795   0.12480   0.13442
 Alpha virt. eigenvalues --    0.14025   0.14603   0.15218   0.15932   0.16243

 Mulliken charges:
               1
     1  C   -0.441465
     2  C   -0.257068
     3  C   -0.250952
     4  C    0.056259
     5  C   -0.284044
     6  C   -0.442856
     7  N   -0.628245
     8  C    0.564403
     9  O   -0.535765
    10  C    0.067516
    11  C   -0.163235
    12  C   -0.184000
    13  C    0.265670
    14  N   -0.791010
    15  C    0.330867
    16  F   -0.309876
    17  C   -0.268950
    18  H    0.146616
    19  H    0.142161
    20  H    0.140591
    21  H    0.131270
    22  H    0.127916
    23  H    0.126581
    24  H    0.153121
    25  H    0.166786
    26  H    0.129978
    27  H    0.143001
    28  H    0.152514
    29  H    0.144351
    30  H    0.147091
    31  H    0.322541
    32  H    0.163679
    33  H    0.131204
    34  H    0.335427
    35  H    0.328693
    36  H    0.139230
 Sum of Mulliken charges =  -0.00000

 Dipole moment (field-independent basis, Debye):
    X=             -1.6108    Y=              1.4679    Z=              1.7958  Tot=              2.8239
 Quadrupole moment (field-independent basis, Debye-Ang):
   XX=            -78.2771   YY=           -103.5036   ZZ=           -106.9176
   XY=             -2.7353   XZ=              9.7359   YZ=             -2.0154

 Normal termination of Gaussian 16 at Fri Nov  4 18:30:29 2022.
