 Gaussian 16, Revision B.01,
 Gaussian 16:  ES64L-G16RevB.01 20-Dec-2017

 -----------------------------
 #p b3lyp/6-31g(d) opt SCF=XQC
 -----------------------------

 ------------------------------
 Gaussian input prepared by ASE
 ------------------------------
 Symbolic Z-matrix:
 Charge =  0 Multiplicity = 1

 SCF Done:  E(RB3LYP) =  -2034.03957795     A.U. after   15 cycles
 SCF Done:  E(RB3LYP) =  -2034.04964814     A.U. after   12 cycles
 SCF Done:  E(RB3LYP) =  -2034.05079701     A.U. after   11 cycles
 SCF Done:  E(RB3LYP) =  -2034.05100764     A.U. after   11 cycles
 SCF Done:  E(RB3LYP) =  -2034.05104915     A.U. after   11 cycles
 SCF Done:  E(RB3LYP) =  -2034.05107433     A.U. after   11 cycles
 SCF Done:  E(RB3LYP) =  -2034.05108959     A.U. after   10 cycles
 SCF Done:  E(RB3LYP) =  -2034.05110696     A.U. after   10 cycles
 SCF Done:  E(RB3LYP) =  -2034.05111619     A.U. after   10 cycles
 SCF Done:  E(RB3LYP) =  -2034.05112597     A.U. after    9 cycles
 SCF Done:  E(RB3LYP) =  -2034.05113273     A.U. after    9 cycles
 SCF Done:  E(RB3LYP) =  -2034.05113448     A.U. after    8 cycles
 SCF Done:  E(RB3LYP) =  -2034.05113596     A.U. after    8 cycles
 SCF Done:  E(RB3LYP) =  -2034.05113608     A.U. after    7 cycles
 SCF Done:  E(RB3LYP) =  -2034.05113613     A.U. after    7 cycles
 SCF Done:  E(RB3LYP) =  -2034.05113614     A.U. after    7 cycles
 Optimization completed.
    -- Stationary point found.

                         Standard orientation:
 ---------------------------------------------------------------------
 Center     Atomic      Atomic             Coordinates (Angstroms)
 Number     Number       Type             X           Y           Z
 ---------------------------------------------------------------------
      1          6           0       10.133875   -0.742301    0.057735
      2          8           0        8.824238   -0.153478    0.088598
      3          6           0        7.800491   -1.031746   -0.051071
      4          8           0        7.961956   -2.231723   -0.193115
      5          6           0        6.493403   -0.380148   -0.012131
      6         16           0        5.077530   -1.403614   -0.179915
      7          6           0        4.093872    0.051697   -0.033145
      8          7           0        2.720705   -0.075597   -0.091387
      9          6           0        1.748373    0.941371    0.010096
     10          8           0        2.025226    2.114837    0.170478
     11          6           0        0.367991    0.412212   -0.100757
     12          6           0       -0.677170    1.258517   -0.014439
     13          6           0       -2.098695    0.948250   -0.097417
     14          6           0       -3.030971    1.988066    0.053136
     15          6           0       -4.401769    1.757607   -0.003997
     16          6           0       -4.888277    0.461971   -0.234189
     17          7           0       -6.271192    0.210020   -0.337035
     18          6           0       -7.261346    1.287605   -0.336434
     19          6           0       -8.613217    0.602721   -0.580381
     20          6           0       -8.634505   -0.623446    0.331792
     21         16           0       -6.922206   -1.259004    0.321010
     22          8           0       -6.441522   -1.472140    1.689423
     23          8           0       -6.765837   -2.328613   -0.668890
     24          6           0       -3.966247   -0.590033   -0.410417
     25          6           0       -2.606294   -0.347124   -0.329028
     26          7           0        4.755435    1.165915    0.122414
     27          6           0        6.110042    0.939435    0.136640
     28          6           0        7.015715    2.126147    0.308998
     29          1           0       10.828518    0.089225    0.181184
     30          1           0       10.250449   -1.465131    0.869570
     31          1           0       10.305879   -1.249451   -0.895348
     32          1           0        2.372605   -1.016390   -0.217476
     33          1           0        0.226992   -0.656604   -0.247883
     34          1           0       -0.423460    2.306795    0.139090
     35          1           0       -2.672484    2.998869    0.230642
     36          1           0       -5.084860    2.587852    0.136428
     37          1           0       -7.017887    1.990907   -1.138431
     38          1           0       -7.269438    1.840243    0.616509
     39          1           0       -8.688304    0.296483   -1.628037
     40          1           0       -9.445502    1.276033   -0.356135
     41          1           0       -8.855006   -0.370746    1.372213
     42          1           0       -9.282473   -1.435446   -0.003361
     43          1           0       -4.325109   -1.590257   -0.626686
     44          1           0       -1.923617   -1.180062   -0.468059
     45          1           0        7.640856    2.021954    1.201439
     46          1           0        7.695366    2.233871   -0.542229
     47          1           0        6.403558    3.025506    0.399213
 ---------------------------------------------------------------------

 The electronic state is 1-A.
 Alpha  occ. eigenvalues --  -89.12329 -88.91579 -19.19031 -19.15717 -19.15653
 Alpha  occ. eigenvalues --  -19.12820 -19.12149 -14.39423 -14.39275 -14.32846
 Alpha  occ. eigenvalues --  -10.31614 -10.30128 -10.29791 -10.26187 -10.25578
 Alpha  occ. eigenvalues --  -10.25192 -10.23876 -10.23867 -10.23777 -10.21965
 Alpha  occ. eigenvalues --  -10.21293 -10.20993 -10.20868 -10.20740 -10.20725
 Alpha  occ. eigenvalues --  -10.20277 -10.20258 -10.17983  -8.15021  -7.97710
 Alpha  occ. eigenvalues --   -6.11533  -6.11382  -6.11311  -5.94130  -5.93777
 Alpha  occ. eigenvalues --   -5.93355  -1.12235  -1.09739  -1.04411  -1.01116
 Alpha  occ. eigenvalues --   -1.00767  -0.98524  -0.97411  -0.93032  -0.87651
 Alpha  occ. eigenvalues --   -0.84145  -0.80839  -0.80379  -0.77762  -0.76867
 Alpha  occ. eigenvalues --   -0.75598  -0.74681  -0.72979  -0.69830  -0.66975
 Alpha  occ. eigenvalues --   -0.65619  -0.64255  -0.62094  -0.61800  -0.59587
 Alpha  occ. eigenvalues --   -0.57516  -0.56891  -0.55038  -0.54575  -0.54077
 Alpha  occ. eigenvalues --   -0.52525  -0.52014  -0.50143  -0.48784  -0.48221
 Alpha  occ. eigenvalues --   -0.47953  -0.47406  -0.46947  -0.46399  -0.45995
 Alpha  occ. eigenvalues --   -0.45355  -0.45149  -0.44793  -0.43679  -0.43285
 Alpha  occ. eigenvalues --   -0.43155  -0.42233  -0.42062  -0.41050  -0.40722
 Alpha  occ. eigenvalues --   -0.40245  -0.39644  -0.39556  -0.38980  -0.38891
 Alpha  occ. eigenvalues --   -0.38095  -0.37399  -0.36017  -0.35955  -0.35041
 Alpha  occ. eigenvalues --   -0.35010  -0.34602  -0.32117  -0.31595  -0.31247
 Alpha  occ. eigenvalues --   -0.30712  -0.29776  -0.29436  -0.27881  -0.27538
 Alpha  occ. eigenvalues --   -0.26961  -0.26747  -0.24598  -0.22551  -0.21632
 Alpha virt. eigenvalues --   -0.07247  -0.04104  -0.01687   0.00042   0.00881
 Alpha virt. eigenvalues --    0.03555   0.03946   0.04812   0.06171   0.06731
 Alpha virt. eigenvalues --    0.07289   0.07539   0.08690   0.09192   0.09407

 Mulliken charges:
               1
     1  C   -0.216119
     2  O   -0.470906
     3  C    0.625125
     4  O   -0.501787
     5  C   -0.264870
     6  S    0.240261
     7  C    0.333578
     8  N   -0.705149
     9  C    0.628531
    10  O   -0.471922
    11  C   -0.231919
    12  C   -0.153689
    13  C    0.181569
    14  C   -0.203555
    15  C   -0.179232
    16  C    0.346731
    17  N   -0.679968
    18  C   -0.127606
    19  C   -0.300534
    20  C   -0.505981
    21  S    1.229169
    22  O   -0.499630
    23  O   -0.518146
    24  C   -0.169605
    25  C   -0.188781
    26  N   -0.448253
    27  C    0.326887
    28  C   -0.507534
    29  H    0.163384
    30  H    0.172016
    31  H    0.171901
    32  H    0.348486
    33  H    0.126022
    34  H    0.171525
    35  H    0.145260
    36  H    0.136609
    37  H    0.182355
    38  H    0.161601
    39  H    0.189202
    40  H    0.175823
    41  H    0.214879
    42  H    0.221333
    43  H    0.187560
    44  H    0.137793
    45  H    0.173105
    46  H    0.172867
    47  H    0.181609
 Sum of Mulliken charges =  -0.00000

 Dipole moment (field-independent basis, Debye):
    X=             -6.4870    Y=              2.7597    Z=             -1.0143  Tot=              7.1222
 Quadrupole moment (field-independent basis, Debye-Ang):
   XX=            -96.9618   YY=           -186.2253   ZZ=           -180.7949
   XY=            -19.5091   XZ=              5.8845   YZ=              0.2086

 Normal termination of Gaussian 16 at Fri Nov  4 18:28:56 2022.
