 Gaussian 16, Revision B.01,
 Gaussian 16:  ES64L-G16RevB.01 20-Dec-2017

 -------------------------------------------------------------------
 #p b3lyp/6-31g(d) 6D 10F nosymm GFInput td=(50-50,nstate=2) SCF=XQC
 -------------------------------------------------------------------

 ------------------------------
 Gaussian input prepared by ASE
 ------------------------------
 Symbolic Z-matrix:
 Charge =  0 Multiplicity = 1

                          Input orientation:
 ---------------------------------------------------------------------
 Center     Atomic      Atomic             Coordinates (Angstroms)
 Number     Number       Type             X           Y           Z
 ---------------------------------------------------------------------
      1          6           0      -10.252804   -1.043497   -0.909249
      2          8           0       -8.914895   -1.150836   -0.398082
      3          6           0       -7.956469   -0.609682   -1.190223
      4          8           0       -8.195011   -0.070226   -2.257125
      5          6           0       -6.617030   -0.746406   -0.622960
      6         16           0       -5.279269   -0.085652   -1.547152
      7          6           0       -4.208166   -0.639640   -0.261504
      8          7           0       -2.854058   -0.404021   -0.388235
      9          6           0       -1.823864   -0.748290    0.511836
     10          8           0       -2.022979   -1.325153    1.563966
     11          6           0       -0.488424   -0.326689    0.025415
     12          6           0        0.601842   -0.575456    0.777397
     13          6           0        1.992089   -0.248874    0.486809
     14          6           0        2.978160   -0.572480    1.433362
     15          6           0        4.321398   -0.277927    1.222616
     16          6           0        4.726854    0.343726    0.032026
     17          7           0        6.086280    0.615279   -0.222393
     18          6           0        7.152169    0.157723    0.669860
     19          6           0        8.464139    0.555303   -0.020644
     20          6           0        8.266553    1.991482   -0.504737
     21         16           0        6.524349    2.079747   -1.045985
     22          8           0        5.853576    3.234964   -0.442182
     23          8           0        6.412019    1.859474   -2.490726
     24          6           0        3.753265    0.655008   -0.939126
     25          6           0        2.418592    0.374718   -0.704209
     26          7           0       -4.791607   -1.245908    0.736183
     27          6           0       -6.150385   -1.314066    0.547681
     28          6           0       -6.971337   -1.985227    1.612489
     29          1           0      -10.887719   -1.520823   -0.162091
     30          1           0      -10.532622    0.005330   -1.038917
     31          1           0      -10.339674   -1.554747   -1.871658
     32          1           0       -2.570106    0.079838   -1.229315
     33          1           0       -0.416774    0.180820   -0.934375
     34          1           0        0.416314   -1.083450    1.723096
     35          1           0        2.682927   -1.055921    2.361191
     36          1           0        5.045533   -0.529345    1.989465
     37          1           0        7.073361   -0.927335    0.786251
     38          1           0        7.080789    0.617954    1.668192
     39          1           0        8.650088   -0.108357   -0.870338
     40          1           0        9.312010    0.483508    0.666593
     41          1           0        8.369274    2.724953    0.299268
     42          1           0        8.884547    2.279125   -1.357310
     43          1           0        4.054784    1.101123   -1.880439
     44          1           0        1.694465    0.628853   -1.472466
     45          1           0       -7.713918   -1.299359    2.032331
     46          1           0       -7.523138   -2.839953    1.208662
     47          1           0       -6.305128   -2.327322    2.406755
 ---------------------------------------------------------------------

 SCF Done:  E(RB3LYP) =  -2034.05113150     A.U. after   15 cycles

 Excitation energies and oscillator strengths:

 Excited state symmetry could not be determined.
 Excited State   1:      Triplet-?Sym    2.4345 eV  509.27 nm  f=0.0000  <S**2>=2.000
     105 ->111        -0.18044
     107 ->113         0.10161
     109 ->111        -0.29794
     109 ->112        -0.15748
     110 ->111         0.56077
     110 ->112         0.11813
 This state for optimization and/or second-order correction.
 Total Energy, E(TD-HF/TD-DFT) =  -2033.96166419
 Copying the excited state density for this state as the 1-particle RhoCI density.

 Excited state symmetry could not be determined.
 Excited State   2:      Triplet-?Sym    2.7347 eV  453.37 nm  f=0.0000  <S**2>=2.000
     109 ->111         0.45617
     109 ->112        -0.28440
     110 ->111         0.25961
     110 ->112        -0.35671

 Excited state symmetry could not be determined.
 Excited State   3:      Singlet-?Sym    3.5385 eV  350.38 nm  f=1.1699  <S**2>=0.000
     109 ->111         0.11252
     110 ->111         0.69585

 Excited state symmetry could not be determined.
 Excited State   4:      Singlet-?Sym    3.7174 eV  333.52 nm  f=0.0002  <S**2>=0.000
     106 ->111        -0.16064
     108 ->111         0.67120

 Alpha  occ. eigenvalues --  -89.12329 -88.91579 -19.19031 -19.15716 -19.15653
 Alpha  occ. eigenvalues --  -19.12820 -19.12149 -14.39423 -14.39275 -14.32846
 Alpha  occ. eigenvalues --  -10.31614 -10.30128 -10.29791 -10.26187 -10.25578
 Alpha  occ. eigenvalues --  -10.25192 -10.23876 -10.23867 -10.23777 -10.21965
 Alpha  occ. eigenvalues --  -10.21293 -10.20993 -10.20868 -10.20740 -10.20725
 Alpha  occ. eigenvalues --  -10.20277 -10.20258 -10.17983  -8.15021  -7.97710
 Alpha  occ. eigenvalues --   -6.11533  -6.11382  -6.11311  -5.94130  -5.93777
 Alpha  occ. eigenvalues --   -5.93354  -1.12235  -1.09739  -1.04411  -1.01116
 Alpha  occ. eigenvalues --   -1.00767  -0.98524  -0.97411  -0.93031  -0.87651
 Alpha  occ. eigenvalues --   -0.84145  -0.80839  -0.80379  -0.77761  -0.76867
 Alpha  occ. eigenvalues --   -0.75598  -0.74681  -0.72979  -0.69830  -0.66975
 Alpha  occ. eigenvalues --   -0.65619  -0.64255  -0.62094  -0.61800  -0.59587
 Alpha  occ. eigenvalues --   -0.57516  -0.56891  -0.55038  -0.54575  -0.54077
 Alpha  occ. eigenvalues --   -0.52525  -0.52014  -0.50143  -0.48784  -0.48221
 Alpha  occ. eigenvalues --   -0.47953  -0.47406  -0.46947  -0.46399  -0.45995
 Alpha  occ. eigenvalues --   -0.45355  -0.45149  -0.44793  -0.43679  -0.43285
 Alpha  occ. eigenvalues --   -0.43155  -0.42233  -0.42062  -0.41050  -0.40722
 Alpha  occ. eigenvalues --   -0.40245  -0.39644  -0.39556  -0.38980  -0.38891
 Alpha  occ. eigenvalues --   -0.38095  -0.37399  -0.36017  -0.35955  -0.35041
 Alpha  occ. eigenvalues --   -0.35010  -0.34602  -0.32116  -0.31595  -0.31246
 Alpha  occ. eigenvalues --   -0.30712  -0.29776  -0.29436  -0.27881  -0.27538
 Alpha  occ. eigenvalues --   -0.26961  -0.26747  -0.24598  -0.22551  -0.21632
 Alpha virt. eigenvalues --   -0.07247  -0.04104  -0.01687   0.00042   0.00881
 Alpha virt. eigenvalues --    0.03555   0.03946   0.04812   0.06171   0.06731
 Alpha virt. eigenvalues --    0.07289   0.07539   0.08690   0.09192   0.09407

 Mulliken charges:
               1
     1  C   -0.216120
     2  O   -0.470906
     3  C    0.625124
     4  O   -0.501785
     5  C   -0.264878
     6  S    0.240265
     7  C    0.333577
     8  N   -0.705152
     9  C    0.628532
    10  O   -0.471922
    11  C   -0.231921
    12  C   -0.153688
    13  C    0.181569
    14  C   -0.203560
    15  C   -0.179231
    16  C    0.346743
    17  N   -0.679967
    18  C   -0.127615
    19  C   -0.300540
    20  C   -0.505958
    21  S    1.229165
    22  O   -0.499640
    23  O   -0.518138
    24  C   -0.169617
    25  C   -0.188774
    26  N   -0.448252
    27  C    0.326895
    28  C   -0.507537
    29  H    0.163385
    30  H    0.172017
    31  H    0.171901
    32  H    0.348485
    33  H    0.126022
    34  H    0.171525
    35  H    0.145261
    36  H    0.136609
    37  H    0.182358
    38  H    0.161602
    39  H    0.189203
    40  H    0.175823
    41  H    0.214873
    42  H    0.221329
    43  H    0.187561
    44  H    0.137793
    45  H    0.173104
    46  H    0.172867
    47  H    0.181609
 Sum of Mulliken charges =  -0.00000

 Dipole moment (field-independent basis, Debye):
    X=              6.7665    Y=             -1.3882    Z=              1.7359  Tot=              7.1222
 Quadrupole moment (field-independent basis, Debye-Ang):
   XX=            -96.6524   YY=           -185.7286   ZZ=           -184.9212
   XY=             -1.7286   XZ=             10.7929   YZ=              4.9366

 Normal termination of Gaussian 16 at Sat Nov  5 11:09:56 2022.
