 Gaussian 16, Revision B.01,
 Gaussian 16:  ES64L-G16RevB.01 20-Dec-2017

 -------------------------------------------------------------------
 #p b3lyp/6-31g(d) 6D 10F nosymm GFInput td=(50-50,nstate=2) SCF=XQC
 -------------------------------------------------------------------

 ------------------------------
 Gaussian input prepared by ASE
 ------------------------------
 Symbolic Z-matrix:
 Charge =  0 Multiplicity = 1

                          Input orientation:
 ---------------------------------------------------------------------
 Center     Atomic      Atomic             Coordinates (Angstroms)
 Number     Number       Type             X           Y           Z
 ---------------------------------------------------------------------
      1          8           0       -0.201889   -2.385217    0.653910
      2          6           0       -0.076860   -1.198880    0.382418
      3          7           0        1.156893   -0.645410    0.096036
      4          6           0        1.403576    0.656514   -0.490268
      5          6           0        2.875898    0.860167   -0.866575
      6          7           0        3.815616    0.833948    0.261020
      7         16           0        4.632202   -0.575638    0.675759
      8          8           0        4.858988   -0.482550    2.117310
      9          8           0        3.966937   -1.734472    0.059912
     10          6           0        6.212683   -0.408877   -0.169182
     11          6           0        6.625117   -1.412389   -1.047133
     12          6           0        7.874814   -1.309652   -1.664984
     13          6           0        8.699627   -0.218014   -1.406938
     14          6           0        8.254735    0.764024   -0.521142
     15          7           0        9.121302    1.927238   -0.247843
     16          8           0        8.691046    2.788093    0.516649
     17          8           0       10.215888    1.960688   -0.805690
     18          6           0        7.021344    0.690619    0.114279
     19          7           0       -1.135117   -0.297970    0.341707
     20          6           0       -2.491914   -0.559745    0.613080
     21          6           0       -3.387774    0.519151    0.605542
     22          6           0       -4.737230    0.310489    0.852572
     23          6           0       -5.154306   -1.003929    1.095979
     24          8           0       -6.457538   -1.332519    1.399746
     25          6           0       -7.492427   -0.504590    1.006169
     26          6           0       -7.721623   -0.214628   -0.342708
     27          6           0       -8.824186    0.556963   -0.706823
     28          6           0       -9.684679    1.014229    0.286039
     29          9           0      -10.754912    1.758568   -0.067584
     30          6           0       -9.476763    0.724832    1.629385
     31          6           0       -8.366125   -0.038803    1.989928
     32          7           0       -4.326748   -2.036917    1.112973
     33          6           0       -3.024923   -1.832443    0.882830
     34          1           0        1.902662   -1.334252    0.067286
     35          1           0        0.811863    0.809488   -1.407643
     36          1           0        1.117124    1.460196    0.209979
     37          1           0        3.188106    0.094585   -1.582101
     38          1           0        2.973133    1.830906   -1.365441
     39          1           0        3.508667    1.299463    1.111897
     40          1           0        5.971600   -2.256737   -1.236412
     41          1           0        8.204166   -2.085188   -2.349110
     42          1           0        9.671457   -0.111894   -1.872935
     43          1           0        6.715273    1.471460    0.799073
     44          1           0       -0.915506    0.677689    0.201268
     45          1           0       -3.027212    1.528506    0.413939
     46          1           0       -5.436896    1.137930    0.862371
     47          1           0       -7.044822   -0.600020   -1.098538
     48          1           0       -9.029287    0.795215   -1.745320
     49          1           0      -10.174106    1.095879    2.373094
     50          1           0       -8.171676   -0.288266    3.027870
     51          1           0       -2.376200   -2.697841    0.911987
 ---------------------------------------------------------------------

 SCF Done:  E(RB3LYP) =  -1995.93106625     A.U. after   17 cycles

 Excitation energies and oscillator strengths:

 Excited state symmetry could not be determined.
 Excited State   1:      Triplet-?Sym    2.4792 eV  500.10 nm  f=0.0000  <S**2>=2.000
     123 ->124         0.70652
 This state for optimization and/or second-order correction.
 Total Energy, E(TD-HF/TD-DFT) =  -1995.83995755
 Copying the excited state density for this state as the 1-particle RhoCI density.

 Excited state symmetry could not be determined.
 Excited State   2:      Singlet-?Sym    2.4792 eV  500.09 nm  f=0.0000  <S**2>=0.000
     123 ->124         0.70653

 Excited state symmetry could not be determined.
 Excited State   3:      Triplet-?Sym    2.7680 eV  447.93 nm  f=0.0000  <S**2>=2.000
     110 ->124         0.64636
     110 ->126         0.10968
     110 ->127        -0.18420
     112 ->124        -0.18248
     114 ->124        -0.10162
     116 ->124         0.10314
     110 <-124         0.15756

 Excited state symmetry could not be determined.
 Excited State   4:      Singlet-?Sym    3.3240 eV  373.00 nm  f=0.0000  <S**2>=0.000
     122 ->124         0.70603

 Alpha  occ. eigenvalues --  -89.14488 -24.70500 -19.20192 -19.20176 -19.18597
 Alpha  occ. eigenvalues --  -19.17682 -19.17158 -19.10917 -14.59332 -14.39843
 Alpha  occ. eigenvalues --  -14.38195 -14.36032 -14.32531 -10.31970 -10.28193
 Alpha  occ. eigenvalues --  -10.27687 -10.27420 -10.26998 -10.26615 -10.26260
 Alpha  occ. eigenvalues --  -10.25474 -10.25465 -10.25065 -10.24910 -10.24433
 Alpha  occ. eigenvalues --  -10.24238 -10.21602 -10.21401 -10.20529 -10.20428
 Alpha  occ. eigenvalues --  -10.20363 -10.20309 -10.20287  -8.16970  -6.13478
 Alpha  occ. eigenvalues --   -6.13389  -6.13274  -1.24555  -1.21632  -1.14178
 Alpha  occ. eigenvalues --   -1.08161  -1.07326  -1.04901  -1.03317  -0.96192
 Alpha  occ. eigenvalues --   -0.95352  -0.93582  -0.92313  -0.91710  -0.86502
 Alpha  occ. eigenvalues --   -0.83942  -0.81417  -0.80536  -0.78451  -0.76835
 Alpha  occ. eigenvalues --   -0.76369  -0.73646  -0.73078  -0.70997  -0.67607
 Alpha  occ. eigenvalues --   -0.66510  -0.64812  -0.64705  -0.63374  -0.61743
 Alpha  occ. eigenvalues --   -0.61364  -0.59342  -0.58806  -0.56738  -0.55713
 Alpha  occ. eigenvalues --   -0.55318  -0.55171  -0.54261  -0.54025  -0.53796
 Alpha  occ. eigenvalues --   -0.53266  -0.51805  -0.51500  -0.50417  -0.50372
 Alpha  occ. eigenvalues --   -0.49547  -0.49143  -0.48491  -0.47296  -0.46427
 Alpha  occ. eigenvalues --   -0.46208  -0.45943  -0.45860  -0.45190  -0.44216
 Alpha  occ. eigenvalues --   -0.43955  -0.43507  -0.42594  -0.42376  -0.42147
 Alpha  occ. eigenvalues --   -0.41739  -0.41446  -0.41314  -0.40638  -0.40023
 Alpha  occ. eigenvalues --   -0.39641  -0.38614  -0.37377  -0.36183  -0.35171
 Alpha  occ. eigenvalues --   -0.34892  -0.34359  -0.34264  -0.33419  -0.32996
 Alpha  occ. eigenvalues --   -0.32523  -0.31908  -0.31173  -0.30906  -0.30540
 Alpha  occ. eigenvalues --   -0.29172  -0.28147  -0.26928  -0.26638  -0.25809
 Alpha  occ. eigenvalues --   -0.25321  -0.23958  -0.21037
 Alpha virt. eigenvalues --   -0.11058  -0.07028  -0.02669  -0.02666  -0.01244
 Alpha virt. eigenvalues --   -0.00644   0.00711   0.02593   0.04829   0.05426
 Alpha virt. eigenvalues --    0.05879   0.06299   0.07113   0.08102   0.08341

 Mulliken charges:
               1
     1  O   -0.518673
     2  C    0.777502
     3  N   -0.655150
     4  C   -0.129314
     5  C   -0.178521
     6  N   -0.697253
     7  S    1.239794
     8  O   -0.513092
     9  O   -0.553506
    10  C   -0.156246
    11  C   -0.124943
    12  C   -0.137197
    13  C   -0.135200
    14  C    0.266366
    15  N    0.391566
    16  O   -0.386597
    17  O   -0.383890
    18  C   -0.141248
    19  N   -0.766888
    20  C    0.355152
    21  C   -0.174805
    22  C   -0.182782
    23  C    0.484545
    24  O   -0.537157
    25  C    0.333496
    26  C   -0.155170
    27  C   -0.206102
    28  C    0.382076
    29  F   -0.299171
    30  C   -0.206614
    31  C   -0.166187
    32  N   -0.459664
    33  C    0.003488
    34  H    0.385291
    35  H    0.160020
    36  H    0.142142
    37  H    0.194896
    38  H    0.177511
    39  H    0.365146
    40  H    0.199738
    41  H    0.168048
    42  H    0.197213
    43  H    0.211376
    44  H    0.328980
    45  H    0.129581
    46  H    0.152424
    47  H    0.155573
    48  H    0.151640
    49  H    0.152501
    50  H    0.154954
    51  H    0.204354
 Sum of Mulliken charges =  -0.00000

 Dipole moment (field-independent basis, Debye):
    X=              2.5933    Y=              4.8834    Z=             -5.1943  Tot=              7.5865
 Quadrupole moment (field-independent basis, Debye-Ang):
   XX=           -223.0165   YY=           -211.2511   ZZ=           -190.1143
   XY=            -34.2388   XZ=            -21.7888   YZ=             11.0085

 Normal termination of Gaussian 16 at Sat Nov  5 11:16:38 2022.
