 Gaussian 16, Revision B.01,
 Gaussian 16:  ES64L-G16RevB.01 20-Dec-2017

 -----------------------------
 #p b3lyp/6-31g(d) opt SCF=XQC
 -----------------------------

 ------------------------------
 Gaussian input prepared by ASE
 ------------------------------
 Symbolic Z-matrix:
 Charge =  0 Multiplicity = 1

 SCF Done:  E(RB3LYP) =  -1995.91938425     A.U. after   18 cycles
 SCF Done:  E(RB3LYP) =  -1995.92756885     A.U. after   14 cycles
 SCF Done:  E(RB3LYP) =  -1995.92976582     A.U. after   14 cycles
 SCF Done:  E(RB3LYP) =  -1995.92680715     A.U. after   14 cycles
 SCF Done:  E(RB3LYP) =  -1995.92977704     A.U. after   14 cycles
 SCF Done:  E(RB3LYP) =  -1995.93073665     A.U. after   14 cycles
 SCF Done:  E(RB3LYP) =  -1995.93081129     A.U. after   13 cycles
 SCF Done:  E(RB3LYP) =  -1995.93087755     A.U. after   11 cycles
 SCF Done:  E(RB3LYP) =  -1995.93091541     A.U. after   12 cycles
 SCF Done:  E(RB3LYP) =  -1995.93093478     A.U. after   11 cycles
 SCF Done:  E(RB3LYP) =  -1995.93106809     A.U. after    9 cycles
 SCF Done:  E(RB3LYP) =  -1995.93106855     A.U. after   10 cycles
 SCF Done:  E(RB3LYP) =  -1995.93106872     A.U. after    8 cycles
 SCF Done:  E(RB3LYP) =  -1995.93106881     A.U. after    8 cycles
 SCF Done:  E(RB3LYP) =  -1995.93106885     A.U. after    7 cycles
 SCF Done:  E(RB3LYP) =  -1995.93106888     A.U. after    7 cycles
 SCF Done:  E(RB3LYP) =  -1995.93106890     A.U. after    7 cycles
 SCF Done:  E(RB3LYP) =  -1995.93106892     A.U. after    7 cycles
 SCF Done:  E(RB3LYP) =  -1995.93106893     A.U. after    7 cycles
 SCF Done:  E(RB3LYP) =  -1995.93106893     A.U. after    7 cycles
 Optimization completed.
    -- Stationary point found.

                         Standard orientation:
 ---------------------------------------------------------------------
 Center     Atomic      Atomic             Coordinates (Angstroms)
 Number     Number       Type             X           Y           Z
 ---------------------------------------------------------------------
      1          8           0        0.585998   -2.330703    0.009912
      2          6           0        0.416452   -1.121160    0.080569
      3          7           0       -0.845608   -0.570405    0.200415
      4          6           0       -1.159476    0.798899    0.555527
      5          6           0       -2.657289    1.010746    0.805509
      6          7           0       -3.521518    0.775880   -0.357751
      7         16           0       -4.277006   -0.707651   -0.590400
      8          8           0       -4.412487   -0.850825   -2.039300
      9          8           0       -3.626320   -1.732162    0.241300
     10          6           0       -5.912082   -0.461801    0.120755
     11          6           0       -6.357036   -1.327181    1.121288
     12          6           0       -7.645992   -1.169459    1.638737
     13          6           0       -8.477370   -0.160040    1.160755
     14          6           0       -7.999033    0.683978    0.157865
     15          7           0       -8.872730    1.760250   -0.349076
     16          8           0       -8.414024    2.503339   -1.213973
     17          8           0      -10.001476    1.845235    0.129610
     18          6           0       -6.725887    0.551893   -0.382557
     19          7           0        1.448864   -0.190722    0.040356
     20          6           0        2.825997   -0.447174   -0.103880
     21          6           0        3.694433    0.648329   -0.214930
     22          6           0        5.061450    0.447896   -0.344098
     23          6           0        5.523497   -0.873990   -0.349121
     24          8           0        6.850817   -1.203262   -0.517825
     25          6           0        7.838851   -0.289917   -0.200092
     26          6           0        7.973890    0.216743    1.096495
     27          6           0        9.032636    1.072069    1.398249
     28          6           0        9.944580    1.394987    0.398550
     29          9           0       10.972375    2.220694    0.692376
     30          6           0        9.830401    0.890458   -0.891401
     31          6           0        8.763187    0.043283   -1.191388
     32          7           0        4.722756   -1.923426   -0.250619
     33          6           0        3.404442   -1.728222   -0.134566
     34          1           0       -1.575624   -1.270281    0.293964
     35          1           0       -0.631803    1.114200    1.470540
     36          1           0       -0.847061    1.490964   -0.245565
     37          1           0       -2.997260    0.357845    1.614030
     38          1           0       -2.808798    2.044324    1.136290
     39          1           0       -3.171161    1.111102   -1.252061
     40          1           0       -5.697815   -2.109048    1.481765
     41          1           0       -8.000815   -1.837705    2.416879
     42          1           0       -9.479399   -0.013790    1.544699
     43          1           0       -6.394371    1.224502   -1.163600
     44          1           0        1.198255    0.787095    0.009834
     45          1           0        3.299131    1.662830   -0.208870
     46          1           0        5.741059    1.286028   -0.443862
     47          1           0        7.258831   -0.066603    1.862178
     48          1           0        9.164832    1.477904    2.395809
     49          1           0       10.565504    1.162238   -1.641617
     50          1           0        8.641839   -0.373178   -2.185975
     51          1           0        2.779042   -2.608285   -0.064073
 ---------------------------------------------------------------------

 The electronic state is 1-A.
 Alpha  occ. eigenvalues --  -89.14488 -24.70500 -19.20192 -19.20176 -19.18597
 Alpha  occ. eigenvalues --  -19.17682 -19.17158 -19.10917 -14.59332 -14.39843
 Alpha  occ. eigenvalues --  -14.38195 -14.36032 -14.32531 -10.31970 -10.28193
 Alpha  occ. eigenvalues --  -10.27687 -10.27420 -10.26998 -10.26615 -10.26260
 Alpha  occ. eigenvalues --  -10.25474 -10.25464 -10.25065 -10.24910 -10.24433
 Alpha  occ. eigenvalues --  -10.24238 -10.21602 -10.21401 -10.20529 -10.20428
 Alpha  occ. eigenvalues --  -10.20363 -10.20309 -10.20287  -8.16970  -6.13478
 Alpha  occ. eigenvalues --   -6.13389  -6.13274  -1.24555  -1.21632  -1.14178
 Alpha  occ. eigenvalues --   -1.08161  -1.07326  -1.04901  -1.03317  -0.96192
 Alpha  occ. eigenvalues --   -0.95352  -0.93582  -0.92313  -0.91710  -0.86502
 Alpha  occ. eigenvalues --   -0.83942  -0.81417  -0.80536  -0.78451  -0.76835
 Alpha  occ. eigenvalues --   -0.76369  -0.73646  -0.73078  -0.70997  -0.67607
 Alpha  occ. eigenvalues --   -0.66510  -0.64812  -0.64705  -0.63374  -0.61743
 Alpha  occ. eigenvalues --   -0.61364  -0.59342  -0.58806  -0.56738  -0.55712
 Alpha  occ. eigenvalues --   -0.55318  -0.55171  -0.54261  -0.54025  -0.53796
 Alpha  occ. eigenvalues --   -0.53266  -0.51805  -0.51500  -0.50417  -0.50372
 Alpha  occ. eigenvalues --   -0.49547  -0.49143  -0.48491  -0.47296  -0.46427
 Alpha  occ. eigenvalues --   -0.46208  -0.45943  -0.45860  -0.45190  -0.44216
 Alpha  occ. eigenvalues --   -0.43955  -0.43507  -0.42594  -0.42376  -0.42147
 Alpha  occ. eigenvalues --   -0.41739  -0.41446  -0.41314  -0.40638  -0.40023
 Alpha  occ. eigenvalues --   -0.39641  -0.38614  -0.37377  -0.36183  -0.35171
 Alpha  occ. eigenvalues --   -0.34892  -0.34359  -0.34264  -0.33419  -0.32997
 Alpha  occ. eigenvalues --   -0.32523  -0.31908  -0.31173  -0.30906  -0.30540
 Alpha  occ. eigenvalues --   -0.29172  -0.28147  -0.26928  -0.26638  -0.25809
 Alpha  occ. eigenvalues --   -0.25321  -0.23958  -0.21037
 Alpha virt. eigenvalues --   -0.11058  -0.07028  -0.02669  -0.02666  -0.01244
 Alpha virt. eigenvalues --   -0.00644   0.00711   0.02593   0.04829   0.05426
 Alpha virt. eigenvalues --    0.05879   0.06299   0.07113   0.08102   0.08341

 Mulliken charges:
               1
     1  O   -0.518660
     2  C    0.777463
     3  N   -0.655139
     4  C   -0.129319
     5  C   -0.178521
     6  N   -0.697259
     7  S    1.239837
     8  O   -0.513093
     9  O   -0.553512
    10  C   -0.156271
    11  C   -0.124943
    12  C   -0.137187
    13  C   -0.135205
    14  C    0.266384
    15  N    0.391562
    16  O   -0.386596
    17  O   -0.383891
    18  C   -0.141267
    19  N   -0.766861
    20  C    0.355145
    21  C   -0.174796
    22  C   -0.182789
    23  C    0.484539
    24  O   -0.537158
    25  C    0.333491
    26  C   -0.155176
    27  C   -0.206093
    28  C    0.382072
    29  F   -0.299171
    30  C   -0.206618
    31  C   -0.166176
    32  N   -0.459662
    33  C    0.003492
    34  H    0.385290
    35  H    0.160021
    36  H    0.142141
    37  H    0.194897
    38  H    0.177511
    39  H    0.365145
    40  H    0.199734
    41  H    0.168047
    42  H    0.197211
    43  H    0.211378
    44  H    0.328979
    45  H    0.129579
    46  H    0.152425
    47  H    0.155573
    48  H    0.151638
    49  H    0.152501
    50  H    0.154952
    51  H    0.204353
 Sum of Mulliken charges =  -0.00000

 Dipole moment (field-independent basis, Debye):
    X=             -3.0346    Y=              5.5540    Z=              4.1832  Tot=              7.5865
 Quadrupole moment (field-independent basis, Debye-Ang):
   XX=           -223.4215   YY=           -210.8344   ZZ=           -188.3522
   XY=             31.6712   XZ=            -28.3352   YZ=             -4.2778

 Normal termination of Gaussian 16 at Fri Nov  4 19:53:32 2022.
