 Gaussian 16, Revision B.01,
 Gaussian 16:  ES64L-G16RevB.01 20-Dec-2017

 -----------------------------
 #p b3lyp/6-31g(d) opt SCF=XQC
 -----------------------------

 ------------------------------
 Gaussian input prepared by ASE
 ------------------------------
 Symbolic Z-matrix:
 Charge =  0 Multiplicity = 1

 SCF Done:  E(RB3LYP) =  -1609.20582461     A.U. after   15 cycles
 SCF Done:  E(RB3LYP) =  -1609.21139363     A.U. after   12 cycles
 SCF Done:  E(RB3LYP) =  -1609.21199488     A.U. after   13 cycles
 SCF Done:  E(RB3LYP) =  -1609.21235364     A.U. after   11 cycles
 SCF Done:  E(RB3LYP) =  -1609.21246028     A.U. after   12 cycles
 SCF Done:  E(RB3LYP) =  -1609.21251698     A.U. after   11 cycles
 SCF Done:  E(RB3LYP) =  -1609.21254769     A.U. after   10 cycles
 SCF Done:  E(RB3LYP) =  -1609.21255859     A.U. after    9 cycles
 SCF Done:  E(RB3LYP) =  -1609.21256263     A.U. after    8 cycles
 SCF Done:  E(RB3LYP) =  -1609.21256528     A.U. after    8 cycles
 SCF Done:  E(RB3LYP) =  -1609.21256939     A.U. after    9 cycles
 SCF Done:  E(RB3LYP) =  -1609.21257068     A.U. after    9 cycles
 SCF Done:  E(RB3LYP) =  -1609.21257160     A.U. after    9 cycles
 SCF Done:  E(RB3LYP) =  -1609.21257210     A.U. after    8 cycles
 SCF Done:  E(RB3LYP) =  -1609.21257251     A.U. after    8 cycles
 SCF Done:  E(RB3LYP) =  -1609.21257296     A.U. after    9 cycles
 SCF Done:  E(RB3LYP) =  -1609.21257328     A.U. after    8 cycles
 SCF Done:  E(RB3LYP) =  -1609.21257345     A.U. after    8 cycles
 SCF Done:  E(RB3LYP) =  -1609.21257352     A.U. after    7 cycles
 SCF Done:  E(RB3LYP) =  -1609.21257356     A.U. after    7 cycles
 Optimization completed.
    -- Stationary point found.

                         Standard orientation:
 ---------------------------------------------------------------------
 Center     Atomic      Atomic             Coordinates (Angstroms)
 Number     Number       Type             X           Y           Z
 ---------------------------------------------------------------------
      1          6           0        6.463635   -1.947079    2.029832
      2          6           0        7.160416   -1.164219    0.909518
      3          6           0        8.640488   -1.554293    0.784466
      4          6           0        6.468337   -1.366484   -0.441090
      5          8           0        5.080278   -0.966991   -0.416335
      6          6           0        4.839983    0.351302   -0.663045
      7          8           0        5.707625    1.180868   -0.887224
      8          7           0        3.500860    0.619810   -0.632082
      9          6           0        2.483823   -0.390812   -0.340910
     10          6           0        1.123589    0.066712   -0.872294
     11          7           0        0.737268    1.355404   -0.292312
     12          6           0       -0.506665    1.678230    0.198618
     13          8           0       -0.655839    2.643668    0.951001
     14          6           0       -1.685652    0.869308   -0.204886
     15          6           0       -1.975137    0.118239   -1.323754
     16          6           0       -3.294644   -0.398218   -1.332331
     17          6           0       -4.032395   -0.033800   -0.221869
     18          6           0       -5.421210   -0.363426    0.118282
     19          6           0       -6.168333    0.415681    1.024840
     20          6           0       -7.479978    0.096505    1.362810
     21          6           0       -8.097786   -1.020278    0.796039
     22          6           0       -7.391720   -1.812093   -0.108446
     23          6           0       -6.083743   -1.476078   -0.427427
     24          9           0       -5.431214   -2.276260   -1.302637
     25         16           0       -3.075031    0.969909    0.844472
     26          6           0        1.827729    2.277357    0.062105
     27          6           0        3.058235    2.005705   -0.796036
     28          1           0        6.935312   -1.746263    2.998560
     29          1           0        5.405414   -1.677408    2.105571
     30          1           0        6.522749   -3.028689    1.848507
     31          1           0        7.105367   -0.091845    1.137355
     32          1           0        9.149006   -0.964155    0.013145
     33          1           0        9.165994   -1.390403    1.731726
     34          1           0        8.750840   -2.615694    0.525425
     35          1           0        6.981023   -0.805266   -1.226108
     36          1           0        6.440784   -2.427931   -0.709506
     37          1           0        2.758573   -1.332160   -0.821889
     38          1           0        2.413414   -0.580836    0.739836
     39          1           0        1.167517    0.125394   -1.969733
     40          1           0        0.376489   -0.684177   -0.609644
     41          1           0       -1.279604   -0.037485   -2.139998
     42          1           0       -3.693506   -1.002540   -2.135309
     43          1           0       -5.708904    1.299712    1.457299
     44          1           0       -8.021433    0.725323    2.063091
     45          1           0       -9.122513   -1.273741    1.050835
     46          1           0       -7.831350   -2.689759   -0.570843
     47          1           0        1.478018    3.301208   -0.090635
     48          1           0        2.075815    2.182810    1.127994
     49          1           0        3.877704    2.661746   -0.497084
     50          1           0        2.837471    2.219540   -1.851734
 ---------------------------------------------------------------------

 The electronic state is 1-A.
 Alpha  occ. eigenvalues --  -88.91259 -24.71610 -19.18439 -19.11496 -19.11251
 Alpha  occ. eigenvalues --  -14.37054 -14.36772 -10.32783 -10.29434 -10.28287
 Alpha  occ. eigenvalues --  -10.24189 -10.23758 -10.23604 -10.23511 -10.22904
 Alpha  occ. eigenvalues --  -10.22794 -10.22693 -10.22287 -10.20773 -10.20748
 Alpha  occ. eigenvalues --  -10.20729 -10.20495 -10.20142 -10.19930 -10.19056
 Alpha  occ. eigenvalues --  -10.17761 -10.17372  -7.97311  -5.93724  -5.93348
 Alpha  occ. eigenvalues --   -5.93010  -1.22658  -1.09771  -1.03534  -1.00492
 Alpha  occ. eigenvalues --   -0.96173  -0.92187  -0.89343  -0.86760  -0.80592
 Alpha  occ. eigenvalues --   -0.79234  -0.78684  -0.75869  -0.75559  -0.74265
 Alpha  occ. eigenvalues --   -0.72631  -0.69572  -0.68434  -0.67536  -0.64844
 Alpha  occ. eigenvalues --   -0.62568  -0.62306  -0.59761  -0.57597  -0.57528
 Alpha  occ. eigenvalues --   -0.56650  -0.54024  -0.53662  -0.52968  -0.52376
 Alpha  occ. eigenvalues --   -0.51540  -0.49919  -0.49191  -0.47914  -0.47249
 Alpha  occ. eigenvalues --   -0.47003  -0.46809  -0.45191  -0.44770  -0.44678
 Alpha  occ. eigenvalues --   -0.44067  -0.43809  -0.42714  -0.42068  -0.41539
 Alpha  occ. eigenvalues --   -0.41152  -0.40895  -0.40379  -0.40036  -0.39664
 Alpha  occ. eigenvalues --   -0.39446  -0.38891  -0.38431  -0.38086  -0.37817
 Alpha  occ. eigenvalues --   -0.37418  -0.36726  -0.36083  -0.35661  -0.35338
 Alpha  occ. eigenvalues --   -0.34570  -0.33930  -0.33375  -0.32695  -0.28808
 Alpha  occ. eigenvalues --   -0.28753  -0.27044  -0.26307  -0.25642  -0.25486
 Alpha  occ. eigenvalues --   -0.24462  -0.24133  -0.22074
 Alpha virt. eigenvalues --   -0.06129  -0.01097  -0.00527   0.03304   0.04637
 Alpha virt. eigenvalues --    0.05112   0.07151   0.07768   0.08173   0.08919
 Alpha virt. eigenvalues --    0.09307   0.10704   0.11622   0.12492   0.12714

 Mulliken charges:
               1
     1  C   -0.443617
     2  C   -0.095798
     3  C   -0.453012
     4  C   -0.029998
     5  O   -0.505500
     6  C    0.802532
     7  O   -0.532452
     8  N   -0.480424
     9  C   -0.123379
    10  C   -0.167697
    11  N   -0.454607
    12  C    0.585296
    13  O   -0.523581
    14  C   -0.217676
    15  C   -0.125553
    16  C   -0.133821
    17  C   -0.207325
    18  C    0.100434
    19  C   -0.207798
    20  C   -0.130045
    21  C   -0.127977
    22  C   -0.193403
    23  C    0.327699
    24  F   -0.292646
    25  S    0.304796
    26  C   -0.133267
    27  C   -0.152779
    28  H    0.144154
    29  H    0.151360
    30  H    0.135635
    31  H    0.154189
    32  H    0.151067
    33  H    0.149464
    34  H    0.138869
    35  H    0.167616
    36  H    0.139828
    37  H    0.177864
    38  H    0.161432
    39  H    0.158674
    40  H    0.177787
    41  H    0.149153
    42  H    0.156478
    43  H    0.162484
    44  H    0.140867
    45  H    0.142739
    46  H    0.150466
    47  H    0.183476
    48  H    0.166445
    49  H    0.193900
    50  H    0.157650
 Sum of Mulliken charges =  -0.00000

 Dipole moment (field-independent basis, Debye):
    X=             -1.5829    Y=             -3.4653    Z=             -0.8952  Tot=              3.9135
 Quadrupole moment (field-independent basis, Debye-Ang):
   XX=           -145.0267   YY=           -169.9046   ZZ=           -162.3529
   XY=             -4.9545   XZ=              0.4998   YZ=             -0.3200

 Normal termination of Gaussian 16 at Fri Nov  4 18:36:33 2022.
