 Gaussian 16, Revision B.01,
 Gaussian 16:  ES64L-G16RevB.01 20-Dec-2017

 -------------------------------------------------------------------
 #p b3lyp/6-31g(d) 6D 10F nosymm GFInput td=(50-50,nstate=2) SCF=XQC
 -------------------------------------------------------------------

 ------------------------------
 Gaussian input prepared by ASE
 ------------------------------
 Symbolic Z-matrix:
 Charge =  0 Multiplicity = 1

                          Input orientation:
 ---------------------------------------------------------------------
 Center     Atomic      Atomic             Coordinates (Angstroms)
 Number     Number       Type             X           Y           Z
 ---------------------------------------------------------------------
      1          6           0       -5.723830    1.899354    1.259877
      2          6           0       -6.350506    0.734146    0.483319
      3          6           0       -7.854362    0.949453    0.258666
      4          6           0       -5.663575    0.516111   -0.867463
      5          8           0       -4.249890    0.251220   -0.732393
      6          6           0       -3.909929   -1.051286   -0.521660
      7          8           0       -4.711379   -1.968712   -0.436539
      8          7           0       -2.554852   -1.194802   -0.424319
      9          6           0       -1.618499   -0.073934   -0.510346
     10          6           0       -0.223355   -0.583981   -0.878254
     11          7           0        0.252756   -1.567561    0.097574
     12          6           0        1.512916   -1.612901    0.647610
     13          8           0        1.726959   -2.252144    1.680062
     14          6           0        2.631886   -0.905075   -0.026236
     15          6           0        2.874450   -0.559191   -1.338219
     16          6           0        4.151855    0.018613   -1.543834
     17          6           0        4.904914    0.107511   -0.388324
     18          6           0        6.262282    0.633486   -0.203758
     19          6           0        7.057360    0.264972    0.900368
     20          6           0        8.338574    0.774770    1.087739
     21          6           0        8.876451    1.674940    0.165513
     22          6           0        8.121349    2.059074   -0.941671
     23          6           0        6.844882    1.540195   -1.105534
     24          9           0        6.142286    1.946019   -2.188929
     25         16           0        4.015627   -0.541905    0.971267
     26          6           0       -0.769088   -2.391584    0.762056
     27          6           0       -2.008822   -2.517852   -0.116273
     28          1           0       -6.187733    2.005269    2.247205
     29          1           0       -4.649170    1.749425    1.404514
     30          1           0       -5.861734    2.847887    0.723667
     31          1           0       -6.217752   -0.190241    1.060219
     32          1           0       -8.310724    0.097150   -0.258154
     33          1           0       -8.374504    1.078783    1.214200
     34          1           0       -8.041173    1.848922   -0.342923
     35          1           0       -6.126127   -0.314022   -1.406900
     36          1           0       -5.712790    1.422513   -1.480235
     37          1           0       -1.958355    0.625634   -1.277201
     38          1           0       -1.571933    0.476122    0.440627
     39          1           0       -0.253148   -1.014590   -1.889903
     40          1           0        0.463414    0.263909   -0.898464
     41          1           0        2.176448   -0.740896   -2.146951
     42          1           0        4.511643    0.342044   -2.510796
     43          1           0        6.661262   -0.450922    1.614657
     44          1           0        8.919182    0.462191    1.950390
     45          1           0        9.877179    2.073936    0.301810
     46          1           0        8.498442    2.757394   -1.681627
     47          1           0       -0.342771   -3.378076    0.959504
     48          1           0       -1.032879   -1.959370    1.736843
     49          1           0       -2.779753   -3.091521    0.401280
     50          1           0       -1.763482   -3.060476   -1.040571
 ---------------------------------------------------------------------

 SCF Done:  E(RB3LYP) =  -1609.21257505     A.U. after   15 cycles

 Excitation energies and oscillator strengths:

 Excited state symmetry could not be determined.
 Excited State   1:      Triplet-?Sym    2.5755 eV  481.41 nm  f=0.0000  <S**2>=2.000
     103 ->104         0.68021
 This state for optimization and/or second-order correction.
 Total Energy, E(TD-HF/TD-DFT) =  -1609.11792859
 Copying the excited state density for this state as the 1-particle RhoCI density.

 Excited state symmetry could not be determined.
 Excited State   2:      Triplet-?Sym    3.6320 eV  341.37 nm  f=0.0000  <S**2>=2.000
      99 ->105        -0.10878
     100 ->104        -0.18277
     101 ->104        -0.41162
     102 ->104         0.42562
     102 ->106        -0.12677
     103 ->106         0.13780

 Excited state symmetry could not be determined.
 Excited State   3:      Singlet-?Sym    4.0059 eV  309.50 nm  f=0.6322  <S**2>=0.000
      98 ->104         0.10330
     100 ->104         0.11698
     103 ->104         0.67559

 Excited state symmetry could not be determined.
 Excited State   4:      Singlet-?Sym    4.2135 eV  294.25 nm  f=0.1076  <S**2>=0.000
      98 ->104         0.23359
     100 ->104         0.29214
     101 ->104         0.44064
     102 ->104        -0.32688
     103 ->104        -0.16001

 Alpha  occ. eigenvalues --  -88.91259 -24.71610 -19.18439 -19.11496 -19.11251
 Alpha  occ. eigenvalues --  -14.37054 -14.36772 -10.32783 -10.29434 -10.28287
 Alpha  occ. eigenvalues --  -10.24189 -10.23759 -10.23604 -10.23511 -10.22904
 Alpha  occ. eigenvalues --  -10.22794 -10.22693 -10.22287 -10.20773 -10.20748
 Alpha  occ. eigenvalues --  -10.20729 -10.20495 -10.20142 -10.19931 -10.19056
 Alpha  occ. eigenvalues --  -10.17760 -10.17372  -7.97311  -5.93724  -5.93348
 Alpha  occ. eigenvalues --   -5.93010  -1.22658  -1.09771  -1.03534  -1.00492
 Alpha  occ. eigenvalues --   -0.96173  -0.92187  -0.89343  -0.86760  -0.80592
 Alpha  occ. eigenvalues --   -0.79234  -0.78684  -0.75869  -0.75559  -0.74265
 Alpha  occ. eigenvalues --   -0.72631  -0.69572  -0.68434  -0.67536  -0.64844
 Alpha  occ. eigenvalues --   -0.62568  -0.62306  -0.59761  -0.57597  -0.57528
 Alpha  occ. eigenvalues --   -0.56650  -0.54024  -0.53662  -0.52969  -0.52376
 Alpha  occ. eigenvalues --   -0.51540  -0.49919  -0.49191  -0.47914  -0.47249
 Alpha  occ. eigenvalues --   -0.47003  -0.46809  -0.45191  -0.44770  -0.44678
 Alpha  occ. eigenvalues --   -0.44067  -0.43809  -0.42714  -0.42068  -0.41539
 Alpha  occ. eigenvalues --   -0.41152  -0.40895  -0.40379  -0.40036  -0.39664
 Alpha  occ. eigenvalues --   -0.39446  -0.38891  -0.38431  -0.38086  -0.37817
 Alpha  occ. eigenvalues --   -0.37418  -0.36726  -0.36083  -0.35661  -0.35338
 Alpha  occ. eigenvalues --   -0.34570  -0.33930  -0.33375  -0.32695  -0.28808
 Alpha  occ. eigenvalues --   -0.28753  -0.27044  -0.26307  -0.25642  -0.25486
 Alpha  occ. eigenvalues --   -0.24462  -0.24133  -0.22074
 Alpha virt. eigenvalues --   -0.06129  -0.01097  -0.00527   0.03304   0.04637
 Alpha virt. eigenvalues --    0.05112   0.07151   0.07768   0.08173   0.08919
 Alpha virt. eigenvalues --    0.09307   0.10704   0.11622   0.12492   0.12714

 Mulliken charges:
               1
     1  C   -0.443625
     2  C   -0.095773
     3  C   -0.453015
     4  C   -0.030007
     5  O   -0.505500
     6  C    0.802523
     7  O   -0.532446
     8  N   -0.480426
     9  C   -0.123389
    10  C   -0.167702
    11  N   -0.454593
    12  C    0.585297
    13  O   -0.523579
    14  C   -0.217682
    15  C   -0.125552
    16  C   -0.133826
    17  C   -0.207335
    18  C    0.100433
    19  C   -0.207800
    20  C   -0.130037
    21  C   -0.127980
    22  C   -0.193408
    23  C    0.327718
    24  F   -0.292650
    25  S    0.304798
    26  C   -0.133273
    27  C   -0.152775
    28  H    0.144155
    29  H    0.151361
    30  H    0.135635
    31  H    0.154187
    32  H    0.151066
    33  H    0.149464
    34  H    0.138868
    35  H    0.167616
    36  H    0.139828
    37  H    0.177866
    38  H    0.161436
    39  H    0.158673
    40  H    0.177789
    41  H    0.149152
    42  H    0.156483
    43  H    0.162484
    44  H    0.140866
    45  H    0.142739
    46  H    0.150467
    47  H    0.183476
    48  H    0.166445
    49  H    0.193901
    50  H    0.157652
 Sum of Mulliken charges =  -0.00000

 Dipole moment (field-independent basis, Debye):
    X=              1.3283    Y=              3.0617    Z=             -2.0438  Tot=              3.9135
 Quadrupole moment (field-independent basis, Debye-Ang):
   XX=           -142.0717   YY=           -170.2803   ZZ=           -163.0543
   XY=             -0.4795   XZ=             -1.2464   YZ=              2.7836

 Normal termination of Gaussian 16 at Sat Nov  5 11:05:51 2022.
