 Gaussian 16, Revision B.01,
 Gaussian 16:  ES64L-G16RevB.01 20-Dec-2017

 -----------------------------
 #p b3lyp/6-31g(d) opt SCF=XQC
 -----------------------------

 ------------------------------
 Gaussian input prepared by ASE
 ------------------------------
 Symbolic Z-matrix:
 Charge =  0 Multiplicity = 1

 SCF Done:  E(RB3LYP) =  -1207.76237215     A.U. after   15 cycles
 SCF Done:  E(RB3LYP) =  -1207.77022658     A.U. after   12 cycles
 SCF Done:  E(RB3LYP) =  -1207.77102013     A.U. after   13 cycles
 SCF Done:  E(RB3LYP) =  -1207.77145496     A.U. after   12 cycles
 SCF Done:  E(RB3LYP) =  -1207.77157403     A.U. after   12 cycles
 SCF Done:  E(RB3LYP) =  -1207.77168340     A.U. after   11 cycles
 SCF Done:  E(RB3LYP) =  -1207.77172466     A.U. after   10 cycles
 SCF Done:  E(RB3LYP) =  -1207.77173961     A.U. after   10 cycles
 SCF Done:  E(RB3LYP) =  -1207.77174882     A.U. after   10 cycles
 SCF Done:  E(RB3LYP) =  -1207.77176375     A.U. after   10 cycles
 SCF Done:  E(RB3LYP) =  -1207.77200166     A.U. after   10 cycles
 SCF Done:  E(RB3LYP) =  -1207.77200552     A.U. after    9 cycles
 SCF Done:  E(RB3LYP) =  -1207.77200787     A.U. after   10 cycles
 SCF Done:  E(RB3LYP) =  -1207.77200947     A.U. after    9 cycles
 SCF Done:  E(RB3LYP) =  -1207.77201121     A.U. after   10 cycles
 SCF Done:  E(RB3LYP) =  -1207.77201198     A.U. after    9 cycles
 SCF Done:  E(RB3LYP) =  -1207.77201259     A.U. after    9 cycles
 SCF Done:  E(RB3LYP) =  -1207.77201283     A.U. after    8 cycles
 SCF Done:  E(RB3LYP) =  -1207.77201300     A.U. after    7 cycles
 SCF Done:  E(RB3LYP) =  -1207.77201307     A.U. after    7 cycles
 Optimization completed.
    -- Stationary point found.

                         Standard orientation:
 ---------------------------------------------------------------------
 Center     Atomic      Atomic             Coordinates (Angstroms)
 Number     Number       Type             X           Y           Z
 ---------------------------------------------------------------------
      1          7           0        6.903950    1.911193    0.458734
      2          6           0        5.576269    1.778343    0.129398
      3          8           0        4.842742    2.757907   -0.002221
      4          6           0        5.122753    0.395877   -0.093666
      5          6           0        5.800990   -0.808070   -0.180620
      6          7           0        4.947610   -1.846651   -0.409706
      7          6           0        3.745477   -1.291868   -0.463044
      8          7           0        3.787029    0.057953   -0.295224
      9          6           0        2.601344    0.918254   -0.293809
     10          6           0        1.464525    0.200938   -1.027179
     11          7           0        1.291785   -1.163435   -0.529267
     12          6           0        0.316012   -1.577378    0.357855
     13          8           0        0.430636   -2.601729    1.023711
     14          6           0       -0.948885   -0.765220    0.464610
     15          6           0       -1.677805   -0.339841   -0.655812
     16          6           0       -2.899591    0.310800   -0.500370
     17          6           0       -3.415091    0.550280    0.779449
     18          6           0       -4.727459    1.290166    0.958254
     19          7           0       -5.814617    0.744452    0.146819
     20          6           0       -6.575396   -0.357158    0.305627
     21          7           0       -7.392600   -0.469005   -0.721041
     22          7           0       -7.111134    0.591837   -1.528756
     23          7           0       -6.170875    1.324047   -1.026222
     24          6           0       -2.695950    0.111660    1.896157
     25          6           0       -1.480012   -0.550646    1.741335
     26          6           0        2.460830   -2.026956   -0.717641
     27          1           0        7.412770    1.138136    0.862517
     28          1           0        7.192327    2.840637    0.732992
     29          1           0        6.869257   -0.972766   -0.112971
     30          1           0        2.312302    1.134640    0.741445
     31          1           0        2.855772    1.863846   -0.771979
     32          1           0        0.546110    0.769442   -0.892045
     33          1           0        1.681958    0.159619   -2.102767
     34          1           0       -1.301430   -0.538608   -1.655363
     35          1           0       -3.461076    0.625112   -1.376129
     36          1           0       -4.638976    2.337003    0.653206
     37          1           0       -5.041339    1.273434    2.005970
     38          1           0       -6.510272   -1.027346    1.149820
     39          1           0       -3.092200    0.279247    2.895088
     40          1           0       -0.940446   -0.923228    2.606105
     41          1           0        2.367554   -2.872716   -0.034738
     42          1           0        2.464573   -2.423706   -1.743691
 ---------------------------------------------------------------------

 The electronic state is 1-A.
 Alpha  occ. eigenvalues --  -19.12903 -19.12326 -14.44895 -14.40935 -14.40900
 Alpha  occ. eigenvalues --  -14.39291 -14.38552 -14.36447 -14.36312 -14.32318
 Alpha  occ. eigenvalues --  -10.30622 -10.30584 -10.27461 -10.27239 -10.25966
 Alpha  occ. eigenvalues --  -10.25229 -10.24651 -10.24122 -10.23219 -10.22923
 Alpha  occ. eigenvalues --  -10.22524 -10.22126 -10.22048 -10.21978 -10.21801
 Alpha  occ. eigenvalues --  -10.21746  -1.14104  -1.05200  -1.04577  -1.02924
 Alpha  occ. eigenvalues --   -0.96226  -0.95601  -0.91296  -0.89903  -0.89369
 Alpha  occ. eigenvalues --   -0.88499  -0.81371  -0.78920  -0.78570  -0.77392
 Alpha  occ. eigenvalues --   -0.74893  -0.71298  -0.68347  -0.67139  -0.65405
 Alpha  occ. eigenvalues --   -0.63995  -0.63861  -0.62127  -0.60538  -0.58590
 Alpha  occ. eigenvalues --   -0.56217  -0.56085  -0.55206  -0.53324  -0.52620
 Alpha  occ. eigenvalues --   -0.51633  -0.50472  -0.49495  -0.49377  -0.48315
 Alpha  occ. eigenvalues --   -0.48040  -0.46845  -0.46333  -0.45871  -0.45168
 Alpha  occ. eigenvalues --   -0.44749  -0.43949  -0.43510  -0.42480  -0.42237
 Alpha  occ. eigenvalues --   -0.41052  -0.40921  -0.39864  -0.39695  -0.38671
 Alpha  occ. eigenvalues --   -0.38370  -0.38009  -0.37288  -0.36659  -0.31716
 Alpha  occ. eigenvalues --   -0.30773  -0.30342  -0.29183  -0.28746  -0.28463
 Alpha  occ. eigenvalues --   -0.28233  -0.27940  -0.27897  -0.26260  -0.25986
 Alpha  occ. eigenvalues --   -0.25655  -0.23713
 Alpha virt. eigenvalues --   -0.05263  -0.03104  -0.03019  -0.02064   0.01543
 Alpha virt. eigenvalues --    0.02387   0.03199   0.06807   0.07593   0.08445
 Alpha virt. eigenvalues --    0.09559   0.09750   0.10053   0.10931   0.11152

 Mulliken charges:
               1
     1  N   -0.754116
     2  C    0.541572
     3  O   -0.529754
     4  C    0.259122
     5  C   -0.072766
     6  N   -0.489253
     7  C    0.484332
     8  N   -0.503270
     9  C   -0.123438
    10  C   -0.200221
    11  N   -0.442060
    12  C    0.519802
    13  O   -0.496973
    14  C    0.063427
    15  C   -0.168657
    16  C   -0.176589
    17  C    0.161402
    18  C   -0.245715
    19  N   -0.249644
    20  C    0.257061
    21  N   -0.307350
    22  N   -0.086063
    23  N   -0.070702
    24  C   -0.194368
    25  C   -0.147932
    26  C   -0.212200
    27  H    0.337807
    28  H    0.343571
    29  H    0.139137
    30  H    0.172555
    31  H    0.211744
    32  H    0.183260
    33  H    0.169874
    34  H    0.154788
    35  H    0.167394
    36  H    0.210521
    37  H    0.181448
    38  H    0.197345
    39  H    0.138073
    40  H    0.163248
    41  H    0.231171
    42  H    0.182418
 Sum of Mulliken charges =  -0.00000

 Dipole moment (field-independent basis, Debye):
    X=              3.9364    Y=              2.7441    Z=              3.9072  Tot=              6.1880
 Quadrupole moment (field-independent basis, Debye-Ang):
   XX=           -168.3639   YY=           -165.4862   ZZ=           -143.1773
   XY=              5.4218   XZ=            -20.7666   YZ=              8.3961

 Normal termination of Gaussian 16 at Fri Nov  4 18:46:16 2022.
