 Gaussian 16, Revision B.01,
 Gaussian 16:  ES64L-G16RevB.01 20-Dec-2017

 -------------------------------------------------------------------
 #p b3lyp/6-31g(d) 6D 10F nosymm GFInput td=(50-50,nstate=2) SCF=XQC
 -------------------------------------------------------------------

 ------------------------------
 Gaussian input prepared by ASE
 ------------------------------
 Symbolic Z-matrix:
 Charge =  0 Multiplicity = 1

                          Input orientation:
 ---------------------------------------------------------------------
 Center     Atomic      Atomic             Coordinates (Angstroms)
 Number     Number       Type             X           Y           Z
 ---------------------------------------------------------------------
      1          7           0       -6.808937    1.072197    1.062785
      2          6           0       -5.507390    0.635360    1.126027
      3          8           0       -4.872728    0.648245    2.180527
      4          6           0       -4.959538    0.117658   -0.138287
      5          6           0       -5.538883   -0.156494   -1.365583
      6          7           0       -4.623495   -0.639858   -2.253171
      7          6           0       -3.481183   -0.664361   -1.582145
      8          7           0       -3.621935   -0.234594   -0.298635
      9          6           0       -2.517056   -0.144944    0.659057
     10          6           0       -1.389936   -1.078191    0.208077
     11          7           0       -1.061436   -0.868073   -1.201606
     12          6           0        0.017215   -0.145704   -1.676122
     13          8           0        0.045964    0.314149   -2.813446
     14          6           0        1.213698    0.032367   -0.777412
     15          6           0        1.806879   -1.029955   -0.079397
     16          6           0        2.978277   -0.832800    0.648073
     17          6           0        3.578106    0.431804    0.692916
     18          6           0        4.833898    0.663144    1.512171
     19          7           0        5.890660   -0.309775    1.238628
     20          6           0        6.752206   -0.419631    0.207502
     21          7           0        7.486209   -1.500684    0.371650
     22          7           0        7.049135   -2.065796    1.532093
     23          7           0        6.096405   -1.368675    2.060378
     24          6           0        2.995436    1.487261   -0.016375
     25          6           0        1.830878    1.288052   -0.754782
     26          6           0       -2.165326   -1.142419   -2.125717
     27          1           0       -7.214884    1.350839    0.181239
     28          1           0       -7.150349    1.540778    1.891105
     29          1           0       -6.579929   -0.050993   -1.644847
     30          1           0       -2.160795    0.890962    0.704835
     31          1           0       -2.889723   -0.411807    1.647706
     32          1           0       -0.514540   -0.896633    0.829094
     33          1           0       -1.693253   -2.124272    0.348033
     34          1           0        1.365442   -2.021658   -0.123290
     35          1           0        3.435254   -1.666133    1.175083
     36          1           0        4.632097    0.574320    2.583684
     37          1           0        5.235505    1.664206    1.330252
     38          1           0        6.815347    0.280377   -0.612288
     39          1           0        3.459178    2.470961   -0.000871
     40          1           0        1.399643    2.097824   -1.334507
     41          1           0       -1.943762   -0.645006   -3.071157
     42          1           0       -2.222357   -2.223486   -2.321274
 ---------------------------------------------------------------------

 SCF Done:  E(RB3LYP) =  -1207.77201400     A.U. after   15 cycles

 Excitation energies and oscillator strengths:

 Excited state symmetry could not be determined.
 Excited State   1:      Triplet-?Sym    3.5200 eV  352.23 nm  f=0.0000  <S**2>=2.000
      84 -> 93         0.10039
      85 -> 93         0.18940
      86 -> 93        -0.17138
      87 -> 94        -0.30163
      88 -> 94        -0.10629
      89 -> 93         0.24603
      90 -> 93         0.33924
      91 -> 93         0.30318
 This state for optimization and/or second-order correction.
 Total Energy, E(TD-HF/TD-DFT) =  -1207.64265702
 Copying the excited state density for this state as the 1-particle RhoCI density.

 Excited state symmetry could not be determined.
 Excited State   2:      Triplet-?Sym    3.6067 eV  343.76 nm  f=0.0000  <S**2>=2.000
      92 -> 95         0.67225

 Excited state symmetry could not be determined.
 Excited State   3:      Singlet-?Sym    4.4992 eV  275.57 nm  f=0.0271  <S**2>=0.000
      86 -> 93         0.10141
      89 -> 93         0.12511
      90 -> 93         0.19492
      91 -> 93         0.18842
      92 -> 93         0.61159

 Excited state symmetry could not be determined.
 Excited State   4:      Singlet-?Sym    4.6890 eV  264.42 nm  f=0.0121  <S**2>=0.000
      85 -> 93        -0.15546
      86 -> 93         0.15297
      89 -> 93         0.17186
      90 -> 93         0.32258
      91 -> 93         0.40671
      92 -> 93        -0.34788

 Alpha  occ. eigenvalues --  -19.12903 -19.12326 -14.44895 -14.40935 -14.40900
 Alpha  occ. eigenvalues --  -14.39291 -14.38552 -14.36447 -14.36312 -14.32319
 Alpha  occ. eigenvalues --  -10.30622 -10.30584 -10.27461 -10.27239 -10.25966
 Alpha  occ. eigenvalues --  -10.25229 -10.24651 -10.24122 -10.23219 -10.22924
 Alpha  occ. eigenvalues --  -10.22524 -10.22126 -10.22048 -10.21978 -10.21801
 Alpha  occ. eigenvalues --  -10.21746  -1.14104  -1.05200  -1.04577  -1.02924
 Alpha  occ. eigenvalues --   -0.96226  -0.95601  -0.91296  -0.89904  -0.89369
 Alpha  occ. eigenvalues --   -0.88499  -0.81371  -0.78920  -0.78570  -0.77392
 Alpha  occ. eigenvalues --   -0.74893  -0.71298  -0.68347  -0.67139  -0.65405
 Alpha  occ. eigenvalues --   -0.63995  -0.63861  -0.62127  -0.60538  -0.58590
 Alpha  occ. eigenvalues --   -0.56217  -0.56085  -0.55206  -0.53324  -0.52620
 Alpha  occ. eigenvalues --   -0.51633  -0.50472  -0.49495  -0.49377  -0.48315
 Alpha  occ. eigenvalues --   -0.48040  -0.46845  -0.46333  -0.45871  -0.45168
 Alpha  occ. eigenvalues --   -0.44749  -0.43949  -0.43510  -0.42481  -0.42237
 Alpha  occ. eigenvalues --   -0.41052  -0.40921  -0.39864  -0.39695  -0.38671
 Alpha  occ. eigenvalues --   -0.38370  -0.38009  -0.37288  -0.36659  -0.31716
 Alpha  occ. eigenvalues --   -0.30773  -0.30342  -0.29183  -0.28746  -0.28463
 Alpha  occ. eigenvalues --   -0.28233  -0.27940  -0.27897  -0.26260  -0.25986
 Alpha  occ. eigenvalues --   -0.25655  -0.23713
 Alpha virt. eigenvalues --   -0.05263  -0.03104  -0.03019  -0.02064   0.01543
 Alpha virt. eigenvalues --    0.02387   0.03199   0.06807   0.07593   0.08445
 Alpha virt. eigenvalues --    0.09559   0.09750   0.10053   0.10931   0.11152

 Mulliken charges:
               1
     1  N   -0.754113
     2  C    0.541566
     3  O   -0.529750
     4  C    0.259112
     5  C   -0.072758
     6  N   -0.489253
     7  C    0.484340
     8  N   -0.503276
     9  C   -0.123424
    10  C   -0.200247
    11  N   -0.442053
    12  C    0.519802
    13  O   -0.496972
    14  C    0.063440
    15  C   -0.168664
    16  C   -0.176588
    17  C    0.161395
    18  C   -0.245704
    19  N   -0.249654
    20  C    0.257044
    21  N   -0.307333
    22  N   -0.086068
    23  N   -0.070693
    24  C   -0.194363
    25  C   -0.147941
    26  C   -0.212200
    27  H    0.337807
    28  H    0.343571
    29  H    0.139138
    30  H    0.172554
    31  H    0.211744
    32  H    0.183263
    33  H    0.169877
    34  H    0.154787
    35  H    0.167396
    36  H    0.210519
    37  H    0.181447
    38  H    0.197346
    39  H    0.138073
    40  H    0.163249
    41  H    0.231168
    42  H    0.182417
 Sum of Mulliken charges =  -0.00000

 Dipole moment (field-independent basis, Debye):
    X=             -3.8092    Y=              4.6208    Z=              1.5593  Tot=              6.1881
 Quadrupole moment (field-independent basis, Debye-Ang):
   XX=           -165.1695   YY=           -145.4505   ZZ=           -169.7395
   XY=             22.0391   XZ=             -8.3210   YZ=              5.6695

 Normal termination of Gaussian 16 at Sat Nov  5 11:10:04 2022.
