 Gaussian 16, Revision B.01,
 Gaussian 16:  ES64L-G16RevB.01 20-Dec-2017

 -------------------------------------------------------------------
 #p b3lyp/6-31g(d) 6D 10F nosymm GFInput td=(50-50,nstate=2) SCF=XQC
 -------------------------------------------------------------------

 ------------------------------
 Gaussian input prepared by ASE
 ------------------------------
 Symbolic Z-matrix:
 Charge =  0 Multiplicity = 1

                          Input orientation:
 ---------------------------------------------------------------------
 Center     Atomic      Atomic             Coordinates (Angstroms)
 Number     Number       Type             X           Y           Z
 ---------------------------------------------------------------------
      1          6           0       -4.346094    1.083820    0.647752
      2          8           0       -2.937333    1.003923    0.804613
      3          6           0       -2.265494    0.033478    0.142220
      4          6           0       -2.861380   -0.918707   -0.699853
      5          6           0       -2.080830   -1.888222   -1.340571
      6          6           0       -0.697038   -1.945310   -1.170269
      7          6           0       -0.111790   -0.995970   -0.336146
      8          6           0       -0.871257   -0.021780    0.314243
      9          6           0        0.030173    0.847564    1.127944
     10          8           0       -0.226688    1.838317    1.794269
     11          7           0        1.293748    0.295893    0.969135
     12          6           0        2.518862    0.934458    1.405537
     13          6           0        3.406961    1.245493    0.185363
     14          7           0        3.562003    0.110151   -0.732001
     15          6           0        2.270297   -0.423327   -1.165674
     16          6           0        1.343998   -0.807383    0.017131
     17          1           0       -4.843335    0.170045    0.998590
     18          1           0       -4.625365    1.270084   -0.397526
     19          1           0       -4.662887    1.927317    1.262878
     20          1           0       -3.932996   -0.915230   -0.861353
     21          1           0       -2.573964   -2.612153   -1.984102
     22          1           0       -0.105580   -2.706356   -1.671307
     23          1           0        3.057640    0.269986    2.099433
     24          1           0        2.236362    1.839372    1.951273
     25          1           0        4.401251    1.571044    0.511792
     26          1           0        2.958659    2.070414   -0.383098
     27          1           0        4.099358   -0.626388   -0.273555
     28          1           0        1.768487    0.347920   -1.763348
     29          1           0        2.439187   -1.290835   -1.813877
     30          1           0        1.755043   -1.707620    0.504070
 ---------------------------------------------------------------------

 SCF Done:  E(RB3LYP) =  -725.658937283     A.U. after   15 cycles

 Excitation energies and oscillator strengths:

 Excited state symmetry could not be determined.
 Excited State   1:      Triplet-?Sym    3.5179 eV  352.44 nm  f=0.0000  <S**2>=2.000
      54 -> 59        -0.15282
      55 -> 59        -0.28223
      57 -> 59        -0.36306
      57 -> 60         0.27132
      58 -> 59         0.37161
      58 -> 60        -0.16745
 This state for optimization and/or second-order correction.
 Total Energy, E(TD-HF/TD-DFT) =  -725.529657352
 Copying the excited state density for this state as the 1-particle RhoCI density.

 Excited state symmetry could not be determined.
 Excited State   2:      Triplet-?Sym    3.7810 eV  327.91 nm  f=0.0000  <S**2>=2.000
      54 -> 59         0.27903
      57 -> 59         0.18027
      57 -> 60        -0.17937
      58 -> 59         0.55250
      58 -> 60         0.10506

 Excited state symmetry could not be determined.
 Excited State   3:      Singlet-?Sym    4.3528 eV  284.84 nm  f=0.1435  <S**2>=0.000
      56 -> 59        -0.10010
      58 -> 59         0.68538

 Excited state symmetry could not be determined.
 Excited State   4:      Singlet-?Sym    4.5080 eV  275.03 nm  f=0.0048  <S**2>=0.000
      56 -> 59         0.68720

 Alpha  occ. eigenvalues --  -19.18083 -19.09779 -14.35093 -14.32809 -10.27384
 Alpha  occ. eigenvalues --  -10.25850 -10.24191 -10.23282 -10.21865 -10.21534
 Alpha  occ. eigenvalues --  -10.21283 -10.20431 -10.20185 -10.19388 -10.19277
 Alpha  occ. eigenvalues --  -10.19131  -1.06963  -1.01875  -0.95279  -0.90111
 Alpha  occ. eigenvalues --   -0.85806  -0.79343  -0.76717  -0.73799  -0.71734
 Alpha  occ. eigenvalues --   -0.69392  -0.65577  -0.62841  -0.59954  -0.59059
 Alpha  occ. eigenvalues --   -0.55859  -0.51959  -0.50703  -0.49285  -0.47571
 Alpha  occ. eigenvalues --   -0.47056  -0.46733  -0.46332  -0.46029  -0.45043
 Alpha  occ. eigenvalues --   -0.41843  -0.41482  -0.41075  -0.39869  -0.39086
 Alpha  occ. eigenvalues --   -0.37827  -0.37455  -0.36557  -0.35927  -0.35171
 Alpha  occ. eigenvalues --   -0.35006  -0.33087  -0.32264  -0.25800  -0.24930
 Alpha  occ. eigenvalues --   -0.23626  -0.22789  -0.20850
 Alpha virt. eigenvalues --   -0.02740   0.00209   0.06447   0.08833   0.08876
 Alpha virt. eigenvalues --    0.10734   0.11315   0.11920   0.12878   0.13137
 Alpha virt. eigenvalues --    0.14600   0.15289   0.15842   0.16403   0.16528

 Mulliken charges:
               1
     1  C   -0.219134
     2  O   -0.479827
     3  C    0.324783
     4  C   -0.201100
     5  C   -0.133254
     6  C   -0.200245
     7  C    0.096937
     8  C   -0.010079
     9  C    0.573267
    10  O   -0.519924
    11  N   -0.465925
    12  C   -0.147444
    13  C   -0.155395
    14  N   -0.526416
    15  C   -0.140496
    16  C   -0.033313
    17  H    0.152577
    18  H    0.152688
    19  H    0.179862
    20  H    0.135648
    21  H    0.134428
    22  H    0.126856
    23  H    0.134330
    24  H    0.184925
    25  H    0.145316
    26  H    0.157738
    27  H    0.289855
    28  H    0.155730
    29  H    0.144013
    30  H    0.143598
 Sum of Mulliken charges =  -0.00000

 Dipole moment (field-independent basis, Debye):
    X=             -0.4761    Y=             -3.0183    Z=             -1.6387  Tot=              3.4673
 Quadrupole moment (field-independent basis, Debye-Ang):
   XX=            -73.1118   YY=            -93.9424   ZZ=            -98.3115
   XY=             -1.8590   XZ=              7.0321   YZ=             -1.6544

 Normal termination of Gaussian 16 at Sat Nov  5 11:04:49 2022.
