 Gaussian 16, Revision B.01,
 Gaussian 16:  ES64L-G16RevB.01 20-Dec-2017

 -----------------------------
 #p b3lyp/6-31g(d) opt SCF=XQC
 -----------------------------

 ------------------------------
 Gaussian input prepared by ASE
 ------------------------------
 Symbolic Z-matrix:
 Charge =  0 Multiplicity = 1

 SCF Done:  E(RB3LYP) =  -725.655930651     A.U. after   15 cycles
 SCF Done:  E(RB3LYP) =  -725.658727887     A.U. after   12 cycles
 SCF Done:  E(RB3LYP) =  -725.658861106     A.U. after   11 cycles
 SCF Done:  E(RB3LYP) =  -725.658920776     A.U. after   10 cycles
 SCF Done:  E(RB3LYP) =  -725.658933883     A.U. after    9 cycles
 SCF Done:  E(RB3LYP) =  -725.658937620     A.U. after    9 cycles
 SCF Done:  E(RB3LYP) =  -725.658939298     A.U. after    8 cycles
 SCF Done:  E(RB3LYP) =  -725.658939859     A.U. after    8 cycles
 Optimization completed.
    -- Stationary point found.

                         Standard orientation:
 ---------------------------------------------------------------------
 Center     Atomic      Atomic             Coordinates (Angstroms)
 Number     Number       Type             X           Y           Z
 ---------------------------------------------------------------------
      1          6           0       -4.180624   -1.305513    0.401547
      2          8           0       -2.778023   -1.279573    0.183295
      3          6           0       -2.166226   -0.080583    0.041801
      4          6           0       -2.819875    1.160823    0.091585
      5          6           0       -2.099387    2.350230   -0.069493
      6          6           0       -0.720339    2.348931   -0.282487
      7          6           0       -0.077512    1.114324   -0.327676
      8          6           0       -0.776636   -0.083896   -0.171677
      9          6           0        0.177158   -1.229462   -0.263332
     10          8           0       -0.019167   -2.426976   -0.125581
     11          7           0        1.406199   -0.646908   -0.539505
     12          6           0        2.668055   -1.357860   -0.502343
     13          6           0        3.566584   -0.766181    0.600766
     14          7           0        3.651736    0.698766    0.565062
     15          6           0        2.329443    1.324686    0.595738
     16          6           0        1.388405    0.811007   -0.524591
     17          1           0       -4.727775   -0.858330   -0.438677
     18          1           0       -4.453837   -0.786365    1.329519
     19          1           0       -4.445483   -2.360511    0.485541
     20          1           0       -3.890300    1.211999    0.252915
     21          1           0       -2.636387    3.294306   -0.027774
     22          1           0       -0.175984    3.280356   -0.409681
     23          1           0        3.171184   -1.273432   -1.478575
     24          1           0        2.440619   -2.413321   -0.326902
     25          1           0        4.579499   -1.178319    0.527978
     26          1           0        3.163600   -1.049643    1.581516
     27          1           0        4.148162    0.989981   -0.277652
     28          1           0        1.869818    1.098489    1.566010
     29          1           0        2.445105    2.412383    0.526473
     30          1           0        1.749473    1.202748   -1.490337
 ---------------------------------------------------------------------

 The electronic state is 1-A.
 Alpha  occ. eigenvalues --  -19.18083 -19.09779 -14.35093 -14.32809 -10.27384
 Alpha  occ. eigenvalues --  -10.25850 -10.24191 -10.23282 -10.21865 -10.21534
 Alpha  occ. eigenvalues --  -10.21283 -10.20432 -10.20185 -10.19388 -10.19277
 Alpha  occ. eigenvalues --  -10.19131  -1.06963  -1.01875  -0.95279  -0.90111
 Alpha  occ. eigenvalues --   -0.85806  -0.79343  -0.76717  -0.73799  -0.71734
 Alpha  occ. eigenvalues --   -0.69392  -0.65577  -0.62841  -0.59954  -0.59059
 Alpha  occ. eigenvalues --   -0.55859  -0.51959  -0.50703  -0.49285  -0.47571
 Alpha  occ. eigenvalues --   -0.47056  -0.46733  -0.46332  -0.46029  -0.45043
 Alpha  occ. eigenvalues --   -0.41843  -0.41482  -0.41075  -0.39869  -0.39086
 Alpha  occ. eigenvalues --   -0.37827  -0.37455  -0.36557  -0.35927  -0.35171
 Alpha  occ. eigenvalues --   -0.35006  -0.33087  -0.32264  -0.25800  -0.24930
 Alpha  occ. eigenvalues --   -0.23626  -0.22789  -0.20849
 Alpha virt. eigenvalues --   -0.02740   0.00209   0.06447   0.08833   0.08876
 Alpha virt. eigenvalues --    0.10734   0.11315   0.11920   0.12878   0.13137
 Alpha virt. eigenvalues --    0.14600   0.15289   0.15842   0.16403   0.16528

 Mulliken charges:
               1
     1  C   -0.219135
     2  O   -0.479824
     3  C    0.324779
     4  C   -0.201087
     5  C   -0.133255
     6  C   -0.200246
     7  C    0.096946
     8  C   -0.010083
     9  C    0.573246
    10  O   -0.519922
    11  N   -0.465892
    12  C   -0.147470
    13  C   -0.155396
    14  N   -0.526404
    15  C   -0.140498
    16  C   -0.033336
    17  H    0.152576
    18  H    0.152688
    19  H    0.179862
    20  H    0.135646
    21  H    0.134428
    22  H    0.126857
    23  H    0.134336
    24  H    0.184928
    25  H    0.145316
    26  H    0.157741
    27  H    0.289854
    28  H    0.155732
    29  H    0.144014
    30  H    0.143599
 Sum of Mulliken charges =  -0.00000

 Dipole moment (field-independent basis, Debye):
    X=             -0.6565    Y=              3.3366    Z=             -0.6767  Tot=              3.4673
 Quadrupole moment (field-independent basis, Debye-Ang):
   XX=            -73.4484   YY=            -96.6803   ZZ=            -94.4758
   XY=             -1.8427   XZ=             -7.2644   YZ=             -2.5860

 Normal termination of Gaussian 16 at Fri Nov  4 18:15:31 2022.
