 Gaussian 16, Revision B.01,
 Gaussian 16:  ES64L-G16RevB.01 20-Dec-2017

 -------------------------------------------------------------------
 #p b3lyp/6-31g(d) 6D 10F nosymm GFInput td=(50-50,nstate=2) SCF=XQC
 -------------------------------------------------------------------

 ------------------------------
 Gaussian input prepared by ASE
 ------------------------------
 Symbolic Z-matrix:
 Charge =  0 Multiplicity = 1

                          Input orientation:
 ---------------------------------------------------------------------
 Center     Atomic      Atomic             Coordinates (Angstroms)
 Number     Number       Type             X           Y           Z
 ---------------------------------------------------------------------
      1          8           0       -2.458122   -3.339481   -0.947962
      2          6           0       -2.520252   -2.205692   -0.485423
      3          7           0       -3.512462   -1.728174    0.326238
      4          6           0       -4.648274   -2.393241    0.804483
      5          6           0       -4.962909   -3.728576    0.514426
      6          6           0       -6.129395   -4.256529    1.063327
      7          6           0       -6.936311   -3.456180    1.871240
      8          7           0       -6.644287   -2.179124    2.154205
      9          6           0       -5.530178   -1.673648    1.630178
     10          6           0       -1.457230   -1.167167   -0.781078
     11          6           0       -0.412251   -1.502235   -1.617709
     12          6           0        0.532878   -0.481050   -1.839500
     13          8           0        1.540746   -0.775916   -2.673549
     14          6           0        2.650127    0.126145   -2.830752
     15          6           0        3.895368   -0.465959   -2.171264
     16          7           0        3.782743   -0.561952   -0.725498
     17          6           0        3.877442    0.740744   -0.053875
     18          6           0        4.217381    0.555209    1.420359
     19          8           0        5.492418   -0.051127    1.616211
     20          6           0        5.855861   -0.987353    0.601051
     21          6           0        4.629483   -1.585644   -0.087957
     22          7           0        0.435648    0.721191   -1.288227
     23          6           0       -0.636471    0.942613   -0.491291
     24          7           0       -0.750115    2.181108    0.071173
     25          6           0        0.154471    3.276610   -0.276571
     26          6           0       -0.604572    4.600011   -0.219634
     27          8           0       -1.182102    4.867804    1.055938
     28          6           0       -1.456179    3.709221    1.835920
     29          6           0       -1.839604    2.492504    0.998222
     30          7           0       -1.597716    0.044149   -0.209900
     31          1           0       -3.379789   -0.757417    0.598229
     32          1           0       -4.308401   -4.313349   -0.117447
     33          1           0       -6.408279   -5.286945    0.862403
     34          1           0       -7.851449   -3.848957    2.309855
     35          1           0       -5.310278   -0.632138    1.871933
     36          1           0       -0.325924   -2.482560   -2.064648
     37          1           0        2.390417    1.106387   -2.430429
     38          1           0        2.815728    0.213357   -3.909352
     39          1           0        4.761685    0.147988   -2.498019
     40          1           0        4.038941   -1.472383   -2.578216
     41          1           0        4.656117    1.379975   -0.515047
     42          1           0        2.922858    1.274027   -0.143270
     43          1           0        4.256266    1.527561    1.922324
     44          1           0        3.428927   -0.041266    1.905908
     45          1           0        6.503050   -0.496680   -0.144101
     46          1           0        6.446830   -1.772321    1.087723
     47          1           0        4.948553   -2.315081   -0.839706
     48          1           0        4.040053   -2.137707    0.657219
     49          1           0        0.538560    3.113373   -1.285390
     50          1           0        1.019536    3.305218    0.402630
     51          1           0       -1.390935    4.596844   -0.990307
     52          1           0        0.078640    5.427227   -0.441597
     53          1           0       -2.282625    3.970459    2.504468
     54          1           0       -0.585670    3.458153    2.462532
     55          1           0       -2.012333    1.635123    1.654648
     56          1           0       -2.776606    2.682848    0.454878
 ---------------------------------------------------------------------

 SCF Done:  E(RB3LYP) =  -1407.16564480     A.U. after   15 cycles

 Excitation energies and oscillator strengths:

 Excited state symmetry could not be determined.
 Excited State   1:      Triplet-?Sym    3.0026 eV  412.92 nm  f=0.0000  <S**2>=2.000
      99 ->111        -0.10352
     109 ->111         0.63885
     110 ->111         0.22647
 This state for optimization and/or second-order correction.
 Total Energy, E(TD-HF/TD-DFT) =  -1407.05530033
 Copying the excited state density for this state as the 1-particle RhoCI density.

 Excited state symmetry could not be determined.
 Excited State   2:      Triplet-?Sym    3.1971 eV  387.80 nm  f=0.0000  <S**2>=2.000
     102 ->112        -0.14085
     108 ->111         0.63384
     108 ->113         0.14132
     108 ->114        -0.16873

 Excited state symmetry could not be determined.
 Excited State   3:      Singlet-?Sym    3.6636 eV  338.42 nm  f=0.0205  <S**2>=0.000
     110 ->111         0.70416

 Excited state symmetry could not be determined.
 Excited State   4:      Singlet-?Sym    3.8744 eV  320.01 nm  f=0.0398  <S**2>=0.000
     108 ->111        -0.11451
     109 ->111         0.68813

 Alpha  occ. eigenvalues --  -19.19478 -19.15608 -19.14405 -19.12667 -14.37855
 Alpha  occ. eigenvalues --  -14.37425 -14.33768 -14.33640 -14.33300 -14.32827
 Alpha  occ. eigenvalues --  -10.30172 -10.30171 -10.29942 -10.24848 -10.24736
 Alpha  occ. eigenvalues --  -10.24729 -10.24706 -10.24221 -10.23543 -10.23496
 Alpha  occ. eigenvalues --  -10.23455 -10.23331 -10.22390 -10.22174 -10.21737
 Alpha  occ. eigenvalues --  -10.21496 -10.21424 -10.19816 -10.19543 -10.19327
 Alpha  occ. eigenvalues --   -1.08980  -1.04546  -1.04416  -1.03003  -1.00952
 Alpha  occ. eigenvalues --   -0.95533  -0.93876  -0.92841  -0.92564  -0.89336
 Alpha  occ. eigenvalues --   -0.80562  -0.79587  -0.79137  -0.77371  -0.77073
 Alpha  occ. eigenvalues --   -0.75948  -0.72993  -0.70686  -0.68646  -0.67543
 Alpha  occ. eigenvalues --   -0.66550  -0.64483  -0.64112  -0.63374  -0.61446
 Alpha  occ. eigenvalues --   -0.58466  -0.56829  -0.55748  -0.55303  -0.54260
 Alpha  occ. eigenvalues --   -0.53926  -0.52667  -0.51970  -0.51425  -0.51166
 Alpha  occ. eigenvalues --   -0.50618  -0.48570  -0.48437  -0.47690  -0.47483
 Alpha  occ. eigenvalues --   -0.46715  -0.46013  -0.45615  -0.44959  -0.44314
 Alpha  occ. eigenvalues --   -0.43836  -0.43671  -0.43432  -0.42972  -0.42080
 Alpha  occ. eigenvalues --   -0.41479  -0.41374  -0.41117  -0.40011  -0.39915
 Alpha  occ. eigenvalues --   -0.39808  -0.39460  -0.39335  -0.39173  -0.38492
 Alpha  occ. eigenvalues --   -0.37976  -0.37353  -0.36702  -0.35553  -0.34794
 Alpha  occ. eigenvalues --   -0.32646  -0.32461  -0.31567  -0.30840  -0.30567
 Alpha  occ. eigenvalues --   -0.27988  -0.27606  -0.27145  -0.26320  -0.25896
 Alpha  occ. eigenvalues --   -0.24916  -0.24724  -0.22691  -0.22283  -0.21474
 Alpha virt. eigenvalues --   -0.06002  -0.01746  -0.00514   0.00365   0.06407
 Alpha virt. eigenvalues --    0.06458   0.07717   0.08968   0.09678   0.10377
 Alpha virt. eigenvalues --    0.10553   0.10901   0.11272   0.11732   0.12071

 Mulliken charges:
               1
     1  O   -0.517178
     2  C    0.592096
     3  N   -0.751184
     4  C    0.352211
     5  C   -0.125619
     6  C   -0.155114
     7  C    0.035914
     8  N   -0.411735
     9  C   -0.020930
    10  C    0.286426
    11  C   -0.241412
    12  C    0.621503
    13  O   -0.501132
    14  C   -0.063520
    15  C   -0.130306
    16  N   -0.390587
    17  C   -0.160879
    18  C   -0.034033
    19  O   -0.486830
    20  C   -0.016909
    21  C   -0.163069
    22  N   -0.590271
    23  C    0.704574
    24  N   -0.496891
    25  C   -0.152882
    26  C   -0.028235
    27  O   -0.483519
    28  C   -0.037335
    29  C   -0.138018
    30  N   -0.634161
    31  H    0.361714
    32  H    0.195217
    33  H    0.140085
    34  H    0.139609
    35  H    0.132079
    36  H    0.176861
    37  H    0.182753
    38  H    0.152866
    39  H    0.115127
    40  H    0.153933
    41  H    0.120345
    42  H    0.162417
    43  H    0.145624
    44  H    0.137320
    45  H    0.126173
    46  H    0.143087
    47  H    0.143165
    48  H    0.157071
    49  H    0.181433
    50  H    0.155937
    51  H    0.140171
    52  H    0.151776
    53  H    0.157231
    54  H    0.137624
    55  H    0.170220
    56  H    0.159188
 Sum of Mulliken charges =  -0.00000

 Dipole moment (field-independent basis, Debye):
    X=              3.2822    Y=              2.1264    Z=             -1.8892  Tot=              4.3432
 Quadrupole moment (field-independent basis, Debye-Ang):
   XX=           -185.9095   YY=           -176.3588   ZZ=           -176.6518
   XY=             -2.7520   XZ=             -7.6805   YZ=             -5.1615

 Normal termination of Gaussian 16 at Sat Nov  5 11:10:35 2022.
