 Gaussian 16, Revision B.01,
 Gaussian 16:  ES64L-G16RevB.01 20-Dec-2017

 -----------------------------
 #p b3lyp/6-31g(d) opt SCF=XQC
 -----------------------------

 ------------------------------
 Gaussian input prepared by ASE
 ------------------------------
 Symbolic Z-matrix:
 Charge =  0 Multiplicity = 1

 SCF Done:  E(RB3LYP) =  -1407.15306665     A.U. after   15 cycles
 SCF Done:  E(RB3LYP) =  -1407.15968575     A.U. after   14 cycles
 SCF Done:  E(RB3LYP) =  -1407.16173483     A.U. after   13 cycles
 SCF Done:  E(RB3LYP) =  -1407.16390009     A.U. after   12 cycles
 SCF Done:  E(RB3LYP) =  -1407.16467287     A.U. after   12 cycles
 SCF Done:  E(RB3LYP) =  -1407.16515274     A.U. after   11 cycles
 SCF Done:  E(RB3LYP) =  -1407.16540620     A.U. after   12 cycles
 SCF Done:  E(RB3LYP) =  -1407.16556162     A.U. after   12 cycles
 SCF Done:  E(RB3LYP) =  -1407.16559281     A.U. after   10 cycles
 SCF Done:  E(RB3LYP) =  -1407.16560676     A.U. after   10 cycles
 SCF Done:  E(RB3LYP) =  -1407.16563769     A.U. after    7 cycles
 SCF Done:  E(RB3LYP) =  -1407.16563889     A.U. after    9 cycles
 SCF Done:  E(RB3LYP) =  -1407.16563914     A.U. after    8 cycles
 SCF Done:  E(RB3LYP) =  -1407.16563920     A.U. after    7 cycles
 SCF Done:  E(RB3LYP) =  -1407.16563924     A.U. after    6 cycles
 SCF Done:  E(RB3LYP) =  -1407.16563929     A.U. after    7 cycles
 SCF Done:  E(RB3LYP) =  -1407.16563931     A.U. after    7 cycles
 SCF Done:  E(RB3LYP) =  -1407.16563934     A.U. after    7 cycles
 SCF Done:  E(RB3LYP) =  -1407.16563935     A.U. after    7 cycles
 SCF Done:  E(RB3LYP) =  -1407.16563937     A.U. after    6 cycles
 Optimization completed.
    -- Stationary point found.

                         Standard orientation:
 ---------------------------------------------------------------------
 Center     Atomic      Atomic             Coordinates (Angstroms)
 Number     Number       Type             X           Y           Z
 ---------------------------------------------------------------------
      1          8           0       -2.768945   -2.596252   -0.843440
      2          6           0       -2.557916   -1.420823   -0.565744
      3          7           0       -3.468292   -0.551430   -0.030331
      4          6           0       -4.804784   -0.786481    0.315564
      5          6           0       -5.455456   -2.019245    0.163366
      6          6           0       -6.790373   -2.103186    0.552808
      7          6           0       -7.429884   -0.978863    1.073693
      8          7           0       -6.816780    0.203520    1.222995
      9          6           0       -5.541472    0.284896    0.851086
     10          6           0       -1.205594   -0.778923   -0.800592
     11          6           0       -0.199852   -1.532496   -1.370517
     12          6           0        1.025607   -0.861568   -1.553223
     13          8           0        2.007760   -1.566756   -2.133279
     14          6           0        3.344359   -1.040037   -2.205564
     15          6           0        4.254937   -1.807339   -1.247321
     16          7           0        3.918504   -1.594887    0.150469
     17          6           0        4.298420   -0.262192    0.636935
     18          6           0        4.359429   -0.249760    2.159916
     19          8           0        5.358650   -1.126046    2.675086
     20          6           0        5.567788   -2.299576    1.888798
     21          6           0        4.328188   -2.667851    1.073658
     22          7           0        1.211261    0.404680   -1.205531
     23          6           0        0.151893    1.050597   -0.663218
     24          7           0        0.331159    2.357601   -0.312850
     25          6           0        1.557773    3.085789   -0.636094
     26          6           0        1.222483    4.549775   -0.910142
     27          8           0        0.577564    5.197939    0.183613
     28          6           0       -0.131913    4.323522    1.054156
     29          6           0       -0.736250    3.117761    0.339964
     30          7           0       -1.060932    0.511204   -0.442947
     31          1           0       -3.094602    0.381944    0.121717
     32          1           0       -4.921014   -2.865912   -0.245451
     33          1           0       -7.329781   -3.040495    0.450855
     34          1           0       -8.471961   -1.022969    1.383958
     35          1           0       -5.060246    1.256143    0.980100
     36          1           0       -0.344938   -2.566406   -1.650203
     37          1           0        3.332020    0.031260   -2.003691
     38          1           0        3.677068   -1.205566   -3.235279
     39          1           0        5.300469   -1.520060   -1.489270
     40          1           0        4.150695   -2.873637   -1.473715
     41          1           0        5.287306    0.046979    0.244318
     42          1           0        3.565740    0.479647    0.295660
     43          1           0        4.612852    0.753594    2.517696
     44          1           0        3.370504   -0.511310    2.568351
     45          1           0        6.428190   -2.149353    1.216485
     46          1           0        5.827118   -3.107178    2.583632
     47          1           0        4.519606   -3.584355    0.505865
     48          1           0        3.504283   -2.891499    1.765503
     49          1           0        2.013447    2.638450   -1.521608
     50          1           0        2.289224    3.010266    0.182286
     51          1           0        0.585690    4.611058   -1.806275
     52          1           0        2.143184    5.107263   -1.114712
     53          1           0       -0.929394    4.917251    1.512112
     54          1           0        0.529562    3.972308    1.861970
     55          1           0       -1.243882    2.477605    1.066835
     56          1           0       -1.490101    3.445065   -0.390795
 ---------------------------------------------------------------------

 The electronic state is 1-A.
 Alpha  occ. eigenvalues --  -19.19478 -19.15608 -19.14405 -19.12667 -14.37855
 Alpha  occ. eigenvalues --  -14.37425 -14.33768 -14.33640 -14.33300 -14.32827
 Alpha  occ. eigenvalues --  -10.30172 -10.30171 -10.29942 -10.24848 -10.24736
 Alpha  occ. eigenvalues --  -10.24729 -10.24706 -10.24221 -10.23543 -10.23496
 Alpha  occ. eigenvalues --  -10.23455 -10.23331 -10.22390 -10.22174 -10.21737
 Alpha  occ. eigenvalues --  -10.21496 -10.21424 -10.19816 -10.19543 -10.19327
 Alpha  occ. eigenvalues --   -1.08980  -1.04546  -1.04416  -1.03003  -1.00952
 Alpha  occ. eigenvalues --   -0.95532  -0.93876  -0.92840  -0.92564  -0.89336
 Alpha  occ. eigenvalues --   -0.80562  -0.79587  -0.79137  -0.77371  -0.77073
 Alpha  occ. eigenvalues --   -0.75948  -0.72993  -0.70686  -0.68646  -0.67543
 Alpha  occ. eigenvalues --   -0.66550  -0.64483  -0.64112  -0.63374  -0.61446
 Alpha  occ. eigenvalues --   -0.58466  -0.56829  -0.55748  -0.55303  -0.54260
 Alpha  occ. eigenvalues --   -0.53926  -0.52667  -0.51970  -0.51425  -0.51166
 Alpha  occ. eigenvalues --   -0.50618  -0.48570  -0.48437  -0.47690  -0.47483
 Alpha  occ. eigenvalues --   -0.46715  -0.46013  -0.45615  -0.44959  -0.44314
 Alpha  occ. eigenvalues --   -0.43836  -0.43671  -0.43432  -0.42972  -0.42080
 Alpha  occ. eigenvalues --   -0.41479  -0.41374  -0.41117  -0.40011  -0.39915
 Alpha  occ. eigenvalues --   -0.39808  -0.39460  -0.39335  -0.39173  -0.38492
 Alpha  occ. eigenvalues --   -0.37976  -0.37353  -0.36702  -0.35553  -0.34794
 Alpha  occ. eigenvalues --   -0.32646  -0.32461  -0.31567  -0.30840  -0.30568
 Alpha  occ. eigenvalues --   -0.27988  -0.27606  -0.27145  -0.26320  -0.25896
 Alpha  occ. eigenvalues --   -0.24916  -0.24724  -0.22691  -0.22283  -0.21474
 Alpha virt. eigenvalues --   -0.06002  -0.01746  -0.00514   0.00365   0.06407
 Alpha virt. eigenvalues --    0.06458   0.07717   0.08968   0.09678   0.10378
 Alpha virt. eigenvalues --    0.10553   0.10901   0.11272   0.11733   0.12072

 Mulliken charges:
               1
     1  O   -0.517173
     2  C    0.592080
     3  N   -0.751158
     4  C    0.352170
     5  C   -0.125603
     6  C   -0.155112
     7  C    0.035913
     8  N   -0.411737
     9  C   -0.020915
    10  C    0.286438
    11  C   -0.241436
    12  C    0.621562
    13  O   -0.501156
    14  C   -0.063501
    15  C   -0.130305
    16  N   -0.390606
    17  C   -0.160868
    18  C   -0.034025
    19  O   -0.486833
    20  C   -0.016917
    21  C   -0.163056
    22  N   -0.590292
    23  C    0.704567
    24  N   -0.496880
    25  C   -0.152889
    26  C   -0.028225
    27  O   -0.483526
    28  C   -0.037331
    29  C   -0.138028
    30  N   -0.634162
    31  H    0.361712
    32  H    0.195213
    33  H    0.140085
    34  H    0.139609
    35  H    0.132079
    36  H    0.176863
    37  H    0.182748
    38  H    0.152864
    39  H    0.115125
    40  H    0.153931
    41  H    0.120346
    42  H    0.162415
    43  H    0.145619
    44  H    0.137321
    45  H    0.126174
    46  H    0.143088
    47  H    0.143163
    48  H    0.157069
    49  H    0.181433
    50  H    0.155936
    51  H    0.140169
    52  H    0.151775
    53  H    0.157231
    54  H    0.137624
    55  H    0.170226
    56  H    0.159186
 Sum of Mulliken charges =  -0.00000

 Dipole moment (field-independent basis, Debye):
    X=              3.9932    Y=              0.7767    Z=             -1.5214  Tot=              4.3432
 Quadrupole moment (field-independent basis, Debye-Ang):
   XX=           -180.7317   YY=           -176.6015   ZZ=           -178.4108
   XY=             -0.4429   XZ=            -10.2274   YZ=             -3.1246

 Normal termination of Gaussian 16 at Fri Nov  4 18:53:15 2022.
