 Gaussian 16, Revision B.01,
 Gaussian 16:  ES64L-G16RevB.01 20-Dec-2017

 -----------------------------
 #p b3lyp/6-31g(d) opt SCF=XQC
 -----------------------------

 ------------------------------
 Gaussian input prepared by ASE
 ------------------------------
 Symbolic Z-matrix:
 Charge =  0 Multiplicity = 1

 SCF Done:  E(RB3LYP) =  -1050.37359012     A.U. after   15 cycles
 SCF Done:  E(RB3LYP) =  -1050.37827421     A.U. after   12 cycles
 SCF Done:  E(RB3LYP) =  -1050.37877178     A.U. after   12 cycles
 SCF Done:  E(RB3LYP) =  -1050.37927672     A.U. after   13 cycles
 SCF Done:  E(RB3LYP) =  -1050.37957356     A.U. after   13 cycles
 SCF Done:  E(RB3LYP) =  -1050.37975723     A.U. after   12 cycles
 SCF Done:  E(RB3LYP) =  -1050.37980520     A.U. after   11 cycles
 SCF Done:  E(RB3LYP) =  -1050.37981715     A.U. after   10 cycles
 SCF Done:  E(RB3LYP) =  -1050.37982587     A.U. after   11 cycles
 SCF Done:  E(RB3LYP) =  -1050.37983054     A.U. after    9 cycles
 SCF Done:  E(RB3LYP) =  -1050.37987273     A.U. after   11 cycles
 SCF Done:  E(RB3LYP) =  -1050.37987470     A.U. after   10 cycles
 SCF Done:  E(RB3LYP) =  -1050.37987824     A.U. after   10 cycles
 SCF Done:  E(RB3LYP) =  -1050.37987839     A.U. after    8 cycles
 SCF Done:  E(RB3LYP) =  -1050.37987862     A.U. after    9 cycles
 SCF Done:  E(RB3LYP) =  -1050.37987880     A.U. after    8 cycles
 SCF Done:  E(RB3LYP) =  -1050.37987883     A.U. after    6 cycles
 SCF Done:  E(RB3LYP) =  -1050.37987886     A.U. after    7 cycles
 SCF Done:  E(RB3LYP) =  -1050.37987887     A.U. after    7 cycles
 SCF Done:  E(RB3LYP) =  -1050.37987887     A.U. after    6 cycles
 Optimization completed.
    -- Stationary point found.

                         Standard orientation:
 ---------------------------------------------------------------------
 Center     Atomic      Atomic             Coordinates (Angstroms)
 Number     Number       Type             X           Y           Z
 ---------------------------------------------------------------------
      1          6           0       -7.514402   -1.860237    1.104953
      2          6           0       -7.100147   -1.198496   -0.221959
      3          6           0       -5.679213   -0.676991   -0.204162
      4          6           0       -4.606645   -1.471182   -0.621068
      5          6           0       -3.292754   -1.008256   -0.571070
      6          6           0       -3.009453    0.281215   -0.093055
      7          7           0       -1.664635    0.726211   -0.032348
      8          6           0       -0.549152   -0.201454   -0.240914
      9          6           0        0.693654    0.592148    0.220346
     10          6           0        1.940634    0.180244   -0.542948
     11          8           0        2.013914    0.188219   -1.772534
     12          7           0        2.985929   -0.226011    0.221077
     13          7           0        4.187175   -0.528861   -0.406843
     14          6           0        5.320227   -0.504044    0.358661
     15          8           0        5.244507   -0.357473    1.579892
     16          6           0        6.593415   -0.703975   -0.384016
     17          6           0        7.822012    0.019196    0.144813
     18          6           0        7.702553   -1.457585    0.331990
     19          6           0        0.282168    2.048666   -0.050163
     20          6           0       -1.239449    2.043162    0.074479
     21          8           0       -1.937701    3.031025    0.220913
     22          6           0       -4.077863    1.093558    0.326277
     23          6           0       -5.381406    0.609846    0.263570
     24          1           0       -6.864861   -2.711577    1.338193
     25          1           0       -7.441731   -1.150548    1.936794
     26          1           0       -8.547695   -2.223321    1.056710
     27          1           0       -7.214264   -1.924876   -1.036787
     28          1           0       -7.790375   -0.374148   -0.442487
     29          1           0       -4.795921   -2.472625   -1.002057
     30          1           0       -2.496826   -1.654263   -0.924812
     31          1           0       -0.695490   -1.112981    0.346457
     32          1           0       -0.452031   -0.475849   -1.298788
     33          1           0        0.835524    0.442897    1.297166
     34          1           0        3.094831   -0.099662    1.221651
     35          1           0        4.142820   -0.399938   -1.411472
     36          1           0        6.510202   -0.836849   -1.459695
     37          1           0        7.665649    0.649800    1.014321
     38          1           0        8.522716    0.402793   -0.590805
     39          1           0        8.318834   -2.117265   -0.271504
     40          1           0        7.464311   -1.820024    1.326919
     41          1           0        0.544850    2.337202   -1.075534
     42          1           0        0.720881    2.778379    0.634159
     43          1           0       -3.879609    2.095453    0.678892
     44          1           0       -6.191936    1.258980    0.588905
 ---------------------------------------------------------------------

 The electronic state is 1-A.
 Alpha  occ. eigenvalues --  -19.13489 -19.13080 -19.12085 -14.41763 -14.41285
 Alpha  occ. eigenvalues --  -14.38032 -10.30923 -10.30684 -10.29232 -10.24093
 Alpha  occ. eigenvalues --  -10.23121 -10.22846 -10.21872 -10.20639 -10.20639
 Alpha  occ. eigenvalues --  -10.20587 -10.18896 -10.18739 -10.18571 -10.18553
 Alpha  occ. eigenvalues --  -10.18260 -10.17911 -10.17533  -1.08473  -1.04645
 Alpha  occ. eigenvalues --   -1.04039  -0.99452  -0.96074  -0.87913  -0.86324
 Alpha  occ. eigenvalues --   -0.85322  -0.81723  -0.77426  -0.74415  -0.73110
 Alpha  occ. eigenvalues --   -0.71865  -0.69130  -0.65996  -0.64345  -0.63488
 Alpha  occ. eigenvalues --   -0.61496  -0.60385  -0.59042  -0.57854  -0.55420
 Alpha  occ. eigenvalues --   -0.54383  -0.53889  -0.52958  -0.50952  -0.48574
 Alpha  occ. eigenvalues --   -0.47608  -0.47207  -0.46642  -0.45929  -0.45634
 Alpha  occ. eigenvalues --   -0.44369  -0.43738  -0.43201  -0.42471  -0.42069
 Alpha  occ. eigenvalues --   -0.41825  -0.41579  -0.40844  -0.40421  -0.39996
 Alpha  occ. eigenvalues --   -0.39613  -0.38114  -0.37511  -0.36819  -0.35761
 Alpha  occ. eigenvalues --   -0.34997  -0.34535  -0.33395  -0.33204  -0.33043
 Alpha  occ. eigenvalues --   -0.32074  -0.30237  -0.28842  -0.28441  -0.27296
 Alpha  occ. eigenvalues --   -0.25144  -0.24511  -0.23881  -0.21138
 Alpha virt. eigenvalues --   -0.01231  -0.00787   0.00284   0.02380   0.04388
 Alpha virt. eigenvalues --    0.06299   0.07344   0.09264   0.09718   0.10955
 Alpha virt. eigenvalues --    0.11468   0.12146   0.12502   0.13261   0.13477

 Mulliken charges:
               1
     1  C   -0.432715
     2  C   -0.341595
     3  C    0.188582
     4  C   -0.197037
     5  C   -0.184955
     6  C    0.323546
     7  N   -0.554874
     8  C   -0.123673
     9  C   -0.222901
    10  C    0.623989
    11  O   -0.541066
    12  N   -0.458480
    13  N   -0.473339
    14  C    0.646309
    15  O   -0.550138
    16  C   -0.207347
    17  C   -0.302853
    18  C   -0.300699
    19  C   -0.376194
    20  C    0.594347
    21  O   -0.503129
    22  C   -0.158530
    23  C   -0.201299
    24  H    0.147127
    25  H    0.149619
    26  H    0.142655
    27  H    0.141242
    28  H    0.144246
    29  H    0.122238
    30  H    0.132459
    31  H    0.166815
    32  H    0.187481
    33  H    0.153613
    34  H    0.368200
    35  H    0.365239
    36  H    0.146143
    37  H    0.185557
    38  H    0.162086
    39  H    0.162099
    40  H    0.186607
    41  H    0.203009
    42  H    0.179553
    43  H    0.182306
    44  H    0.125756
 Sum of Mulliken charges =  -0.00000

 Dipole moment (field-independent basis, Debye):
    X=              2.7689    Y=             -2.8068    Z=             -0.4075  Tot=              3.9637
 Quadrupole moment (field-independent basis, Debye-Ang):
   XX=           -112.3447   YY=           -140.3307   ZZ=           -140.1716
   XY=              7.0146   XZ=            -10.3706   YZ=              2.9331

 Normal termination of Gaussian 16 at Fri Nov  4 18:32:09 2022.
