 Gaussian 16, Revision B.01,
 Gaussian 16:  ES64L-G16RevB.01 20-Dec-2017

 -------------------------------------------------------------------
 #p b3lyp/6-31g(d) 6D 10F nosymm GFInput td=(50-50,nstate=2) SCF=XQC
 -------------------------------------------------------------------

 ------------------------------
 Gaussian input prepared by ASE
 ------------------------------
 Symbolic Z-matrix:
 Charge =  0 Multiplicity = 1

                          Input orientation:
 ---------------------------------------------------------------------
 Center     Atomic      Atomic             Coordinates (Angstroms)
 Number     Number       Type             X           Y           Z
 ---------------------------------------------------------------------
      1          6           0       -7.422909    0.905468   -1.095170
      2          6           0       -6.910300    0.686563    0.339931
      3          6           0       -5.460410    0.254573    0.390328
      4          6           0       -4.425193    1.188891    0.491944
      5          6           0       -3.087213    0.797946    0.500891
      6          6           0       -2.740960   -0.559377    0.404559
      7          7           0       -1.373772   -0.934835    0.396194
      8          6           0       -0.313341    0.067452    0.257380
      9          6           0        0.957858   -0.763976   -0.025308
     10          6           0        2.206633   -0.083423    0.508215
     11          8           0        2.332505    0.275700    1.679754
     12          7           0        3.189751    0.130694   -0.402308
     13          7           0        4.394290    0.664944    0.036616
     14          6           0        5.492964    0.471709   -0.754584
     15          8           0        5.375101   -0.032521   -1.872833
     16          6           0        6.780823    0.945236   -0.180354
     17          6           0        8.030386    0.160346   -0.547268
     18          6           0        7.806966    1.508128   -1.150387
     19          6           0        0.654168   -2.094288    0.683202
     20          6           0       -0.868487   -2.201696    0.653688
     21          8           0       -1.506383   -3.222272    0.844430
     22          6           0       -3.770950   -1.511523    0.305684
     23          6           0       -5.099430   -1.096477    0.302173
     24          1           0       -6.840814    1.681246   -1.605480
     25          1           0       -7.339527   -0.013659   -1.686061
     26          1           0       -8.474704    1.214623   -1.093404
     27          1           0       -7.036815    1.614525    0.912187
     28          1           0       -7.535261   -0.069244    0.832654
     29          1           0       -4.663038    2.247441    0.574221
     30          1           0       -2.320812    1.558439    0.602085
     31          1           0       -0.543694    0.756411   -0.560896
     32          1           0       -0.189429    0.646470    1.181071
     33          1           0        1.043761   -0.932470   -1.105204
     34          1           0        3.264013   -0.279883   -1.326908
     35          1           0        4.401208    0.836378    1.035830
     36          1           0        6.734940    1.385496    0.812486
     37          1           0        7.878667   -0.705866   -1.183518
     38          1           0        8.785277    0.046501    0.225030
     39          1           0        8.403993    2.346459   -0.804060
     40          1           0        7.503483    1.548270   -2.191681
     41          1           0        0.978488   -2.053711    1.730489
     42          1           0        1.110061   -2.970712    0.217058
     43          1           0       -3.522919   -2.561678    0.250083
     44          1           0       -5.878976   -1.852294    0.229880
 ---------------------------------------------------------------------

 SCF Done:  E(RB3LYP) =  -1050.37988198     A.U. after   15 cycles

 Excitation energies and oscillator strengths:

 Excited state symmetry could not be determined.
 Excited State   1:      Triplet-?Sym    3.4980 eV  354.44 nm  f=0.0000  <S**2>=2.000
      81 -> 87        -0.11767
      82 -> 87         0.30413
      84 -> 85        -0.36109
      84 -> 86         0.47879
      84 -> 89         0.12351
 This state for optimization and/or second-order correction.
 Total Energy, E(TD-HF/TD-DFT) =  -1050.25133287
 Copying the excited state density for this state as the 1-particle RhoCI density.

 Excited state symmetry could not be determined.
 Excited State   2:      Triplet-?Sym    4.2298 eV  293.12 nm  f=0.0000  <S**2>=2.000
      82 -> 86         0.11762
      84 -> 87         0.67369

 Excited state symmetry could not be determined.
 Excited State   3:      Singlet-?Sym    4.9206 eV  251.97 nm  f=0.0542  <S**2>=0.000
      84 -> 85         0.67351
      84 -> 86         0.15031

 Excited state symmetry could not be determined.
 Excited State   4:      Singlet-?Sym    4.9804 eV  248.94 nm  f=0.0078  <S**2>=0.000
      82 -> 85         0.22760
      82 -> 86        -0.29200
      84 -> 87         0.59009

 Alpha  occ. eigenvalues --  -19.13489 -19.13080 -19.12085 -14.41763 -14.41285
 Alpha  occ. eigenvalues --  -14.38032 -10.30924 -10.30684 -10.29232 -10.24093
 Alpha  occ. eigenvalues --  -10.23121 -10.22846 -10.21872 -10.20639 -10.20639
 Alpha  occ. eigenvalues --  -10.20587 -10.18896 -10.18739 -10.18571 -10.18553
 Alpha  occ. eigenvalues --  -10.18260 -10.17911 -10.17533  -1.08473  -1.04645
 Alpha  occ. eigenvalues --   -1.04039  -0.99452  -0.96074  -0.87913  -0.86324
 Alpha  occ. eigenvalues --   -0.85323  -0.81723  -0.77426  -0.74415  -0.73110
 Alpha  occ. eigenvalues --   -0.71865  -0.69130  -0.65996  -0.64345  -0.63488
 Alpha  occ. eigenvalues --   -0.61496  -0.60385  -0.59042  -0.57854  -0.55420
 Alpha  occ. eigenvalues --   -0.54383  -0.53889  -0.52958  -0.50952  -0.48574
 Alpha  occ. eigenvalues --   -0.47608  -0.47207  -0.46641  -0.45929  -0.45634
 Alpha  occ. eigenvalues --   -0.44369  -0.43738  -0.43201  -0.42471  -0.42069
 Alpha  occ. eigenvalues --   -0.41825  -0.41579  -0.40844  -0.40421  -0.39996
 Alpha  occ. eigenvalues --   -0.39613  -0.38114  -0.37511  -0.36819  -0.35761
 Alpha  occ. eigenvalues --   -0.34997  -0.34535  -0.33395  -0.33204  -0.33043
 Alpha  occ. eigenvalues --   -0.32074  -0.30237  -0.28842  -0.28441  -0.27296
 Alpha  occ. eigenvalues --   -0.25145  -0.24511  -0.23881  -0.21138
 Alpha virt. eigenvalues --   -0.01231  -0.00787   0.00284   0.02380   0.04388
 Alpha virt. eigenvalues --    0.06299   0.07344   0.09264   0.09718   0.10955
 Alpha virt. eigenvalues --    0.11468   0.12146   0.12502   0.13261   0.13477

 Mulliken charges:
               1
     1  C   -0.432714
     2  C   -0.341601
     3  C    0.188598
     4  C   -0.197041
     5  C   -0.184965
     6  C    0.323568
     7  N   -0.554871
     8  C   -0.123676
     9  C   -0.222904
    10  C    0.623990
    11  O   -0.541065
    12  N   -0.458476
    13  N   -0.473345
    14  C    0.646314
    15  O   -0.550137
    16  C   -0.207354
    17  C   -0.302853
    18  C   -0.300694
    19  C   -0.376195
    20  C    0.594330
    21  O   -0.503124
    22  C   -0.158532
    23  C   -0.201313
    24  H    0.147127
    25  H    0.149619
    26  H    0.142655
    27  H    0.141243
    28  H    0.144247
    29  H    0.122240
    30  H    0.132460
    31  H    0.166815
    32  H    0.187480
    33  H    0.153612
    34  H    0.368199
    35  H    0.365239
    36  H    0.146144
    37  H    0.185558
    38  H    0.162086
    39  H    0.162098
    40  H    0.186606
    41  H    0.203010
    42  H    0.179554
    43  H    0.182307
    44  H    0.125757
 Sum of Mulliken charges =  -0.00000

 Dipole moment (field-independent basis, Debye):
    X=              2.5946    Y=              2.9364    Z=             -0.5971  Tot=              3.9637
 Quadrupole moment (field-independent basis, Debye-Ang):
   XX=           -109.5080   YY=           -139.9462   ZZ=           -143.2160
   XY=             -1.8603   XZ=              9.9731   YZ=              3.4497

 Normal termination of Gaussian 16 at Sat Nov  5 11:06:40 2022.
