 Gaussian 16, Revision B.01,
 Gaussian 16:  ES64L-G16RevB.01 20-Dec-2017

 -----------------------------
 #p b3lyp/6-31g(d) opt SCF=XQC
 -----------------------------

 ------------------------------
 Gaussian input prepared by ASE
 ------------------------------
 Symbolic Z-matrix:
 Charge =  0 Multiplicity = 1

 SCF Done:  E(RB3LYP) =  -1521.42298561     A.U. after   14 cycles
 SCF Done:  E(RB3LYP) =  -1521.42793580     A.U. after   12 cycles
 SCF Done:  E(RB3LYP) =  -1521.42729762     A.U. after   13 cycles
 SCF Done:  E(RB3LYP) =  -1521.42866788     A.U. after   13 cycles
 SCF Done:  E(RB3LYP) =  -1521.43011388     A.U. after   12 cycles
 SCF Done:  E(RB3LYP) =  -1521.43046968     A.U. after   12 cycles
 SCF Done:  E(RB3LYP) =  -1521.43064971     A.U. after   11 cycles
 SCF Done:  E(RB3LYP) =  -1521.43077983     A.U. after   11 cycles
 SCF Done:  E(RB3LYP) =  -1521.43091804     A.U. after   12 cycles
 SCF Done:  E(RB3LYP) =  -1521.43103209     A.U. after   11 cycles
 SCF Done:  E(RB3LYP) =  -1521.43202237     A.U. after    9 cycles
 SCF Done:  E(RB3LYP) =  -1521.43202314     A.U. after    9 cycles
 SCF Done:  E(RB3LYP) =  -1521.43202372     A.U. after    8 cycles
 SCF Done:  E(RB3LYP) =  -1521.43202389     A.U. after    7 cycles
 SCF Done:  E(RB3LYP) =  -1521.43202398     A.U. after    7 cycles
 SCF Done:  E(RB3LYP) =  -1521.43202402     A.U. after    7 cycles
 SCF Done:  E(RB3LYP) =  -1521.43202406     A.U. after    7 cycles
 SCF Done:  E(RB3LYP) =  -1521.43202412     A.U. after    7 cycles
 SCF Done:  E(RB3LYP) =  -1521.43202417     A.U. after    7 cycles
 SCF Done:  E(RB3LYP) =  -1521.43202419     A.U. after    6 cycles
 Optimization completed.
    -- Stationary point found.

                         Standard orientation:
 ---------------------------------------------------------------------
 Center     Atomic      Atomic             Coordinates (Angstroms)
 Number     Number       Type             X           Y           Z
 ---------------------------------------------------------------------
      1          6           0        1.807362    3.713620   -1.255457
      2          6           0        3.038114    3.736814   -0.362110
      3          8           0        3.914176    2.622932   -0.652356
      4          6           0        3.703730    1.484882    0.051766
      5          8           0        2.887495    1.369790    0.963949
      6          7           0        4.528599    0.500442   -0.383303
      7          6           0        4.646003   -0.808636    0.266844
      8          6           0        3.589526   -1.800721   -0.253330
      9          7           0        2.245816   -1.289397   -0.048745
     10          6           0        1.176796   -1.864309   -0.664008
     11          8           0        1.297075   -2.856817   -1.382769
     12          6           0       -0.169771   -1.231763   -0.423030
     13          6           0       -1.293770   -1.949541   -0.853702
     14          6           0       -2.578114   -1.447211   -0.685924
     15          6           0       -2.753046   -0.200880   -0.075182
     16          7           0       -4.065776    0.320474    0.090668
     17          6           0       -4.440114    1.627878    0.248972
     18          6           0       -5.812845    1.645012    0.348606
     19          6           0       -6.182010    0.286783    0.231294
     20          6           0       -7.560780   -0.289161    0.316738
     21          9           0       -8.482415    0.680079    0.108974
     22          9           0       -7.813270   -0.823264    1.532218
     23          9           0       -7.764342   -1.258403   -0.593920
     24          7           0       -5.130544   -0.511281    0.076081
     25          6           0       -1.644635    0.528146    0.366390
     26          6           0       -0.361358    0.016996    0.184744
     27          6           0        6.062373   -1.384810    0.080245
     28          6           0        7.180405   -0.809111    0.976852
     29          6           0        7.539702    0.652908    0.667829
     30          6           0        8.432071   -1.695482    0.872603
     31          1           0        1.194442    2.829500   -1.054162
     32          1           0        1.195912    4.604169   -1.069028
     33          1           0        2.092094    3.707631   -2.312512
     34          1           0        3.652130    4.620734   -0.552307
     35          1           0        2.768077    3.705237    0.695463
     36          1           0        5.138295    0.721877   -1.157973
     37          1           0        4.462900   -0.642298    1.335915
     38          1           0        3.737278   -1.998095   -1.321888
     39          1           0        3.717934   -2.761474    0.265254
     40          1           0        2.141931   -0.491248    0.566862
     41          1           0       -1.132096   -2.908701   -1.333566
     42          1           0       -3.447649   -2.001998   -1.017078
     43          1           0       -3.718540    2.429891    0.244441
     44          1           0       -6.457811    2.501572    0.470558
     45          1           0       -1.774127    1.480554    0.869902
     46          1           0        0.479146    0.614507    0.526089
     47          1           0        5.998283   -2.462506    0.275358
     48          1           0        6.352365   -1.294863   -0.978748
     49          1           0        6.822195   -0.856901    2.016494
     50          1           0        8.360847    0.989202    1.311477
     51          1           0        7.875688    0.761743   -0.372727
     52          1           0        6.696676    1.331993    0.822076
     53          1           0        9.227180   -1.331463    1.533134
     54          1           0        8.214835   -2.734014    1.148661
     55          1           0        8.827808   -1.698150   -0.151481
 ---------------------------------------------------------------------

 The electronic state is 1-A.
 Alpha  occ. eigenvalues --  -24.71855 -24.71489 -24.71211 -19.19991 -19.13942
 Alpha  occ. eigenvalues --  -19.10244 -14.43833 -14.37700 -14.36747 -14.34947
 Alpha  occ. eigenvalues --  -10.42883 -10.35050 -10.28010 -10.25454 -10.25063
 Alpha  occ. eigenvalues --  -10.24842 -10.24013 -10.23088 -10.22489 -10.20870
 Alpha  occ. eigenvalues --  -10.20635 -10.20563 -10.20475 -10.20338 -10.20297
 Alpha  occ. eigenvalues --  -10.19927 -10.19665 -10.19407 -10.18510 -10.18486
 Alpha  occ. eigenvalues --   -1.29343  -1.20782  -1.20345  -1.11601  -1.07177
 Alpha  occ. eigenvalues --   -1.02508  -1.02148  -0.94964  -0.91146  -0.89081
 Alpha  occ. eigenvalues --   -0.84506  -0.82615  -0.80539  -0.78827  -0.76939
 Alpha  occ. eigenvalues --   -0.76057  -0.75655  -0.71460  -0.69434  -0.69238
 Alpha  occ. eigenvalues --   -0.67345  -0.64906  -0.63665  -0.62302  -0.60754
 Alpha  occ. eigenvalues --   -0.60663  -0.59881  -0.58048  -0.57379  -0.57196
 Alpha  occ. eigenvalues --   -0.56763  -0.55985  -0.55311  -0.54128  -0.52246
 Alpha  occ. eigenvalues --   -0.51457  -0.49223  -0.48356  -0.47543  -0.46880
 Alpha  occ. eigenvalues --   -0.46552  -0.46368  -0.45986  -0.45333  -0.44838
 Alpha  occ. eigenvalues --   -0.44751  -0.44576  -0.44256  -0.43982  -0.43209
 Alpha  occ. eigenvalues --   -0.43135  -0.43058  -0.41928  -0.41379  -0.41013
 Alpha  occ. eigenvalues --   -0.40644  -0.40332  -0.39774  -0.39595  -0.39113
 Alpha  occ. eigenvalues --   -0.38870  -0.38864  -0.37990  -0.37841  -0.37383
 Alpha  occ. eigenvalues --   -0.37190  -0.35906  -0.35552  -0.35264  -0.34158
 Alpha  occ. eigenvalues --   -0.34042  -0.33659  -0.30995  -0.30867  -0.29886
 Alpha  occ. eigenvalues --   -0.29598  -0.26980  -0.26852  -0.26267  -0.24867
 Alpha  occ. eigenvalues --   -0.24279  -0.23606
 Alpha virt. eigenvalues --   -0.04848  -0.01361   0.00523   0.02977   0.03967
 Alpha virt. eigenvalues --    0.06148   0.07389   0.07974   0.08130   0.09605
 Alpha virt. eigenvalues --    0.10129   0.10483   0.11417   0.12171   0.12903

 Mulliken charges:
               1
     1  C   -0.461809
     2  C   -0.045037
     3  O   -0.491285
     4  C    0.816202
     5  O   -0.548595
     6  N   -0.612467
     7  C   -0.002210
     8  C   -0.070383
     9  N   -0.671301
    10  C    0.570889
    11  O   -0.539060
    12  C    0.081488
    13  C   -0.174282
    14  C   -0.154179
    15  C    0.339236
    16  N   -0.362480
    17  C    0.085825
    18  C   -0.272486
    19  C    0.175570
    20  C    0.820611
    21  F   -0.275419
    22  F   -0.259221
    23  F   -0.258631
    24  N   -0.339863
    25  C   -0.179388
    26  C   -0.220914
    27  C   -0.287946
    28  C   -0.068611
    29  C   -0.452349
    30  C   -0.445095
    31  H    0.169427
    32  H    0.151516
    33  H    0.162864
    34  H    0.156459
    35  H    0.176265
    36  H    0.340468
    37  H    0.167467
    38  H    0.164313
    39  H    0.154838
    40  H    0.377090
    41  H    0.173327
    42  H    0.177910
    43  H    0.174047
    44  H    0.160947
    45  H    0.141422
    46  H    0.169824
    47  H    0.151142
    48  H    0.132174
    49  H    0.130562
    50  H    0.147539
    51  H    0.133453
    52  H    0.155536
    53  H    0.147042
    54  H    0.145108
    55  H    0.142448
 Sum of Mulliken charges =  -0.00000

 Dipole moment (field-independent basis, Debye):
    X=              6.9834    Y=              5.4713    Z=              0.3902  Tot=              8.8801
 Quadrupole moment (field-independent basis, Debye-Ang):
   XX=           -176.2181   YY=           -168.3138   ZZ=           -177.6220
   XY=            -11.1937   XZ=              1.0584   YZ=             -5.6084

 Normal termination of Gaussian 16 at Fri Nov  4 19:36:08 2022.
