 Gaussian 16, Revision B.01,
 Gaussian 16:  ES64L-G16RevB.01 20-Dec-2017

 -------------------------------------------------------------------
 #p b3lyp/6-31g(d) 6D 10F nosymm GFInput td=(50-50,nstate=2) SCF=XQC
 -------------------------------------------------------------------

 ------------------------------
 Gaussian input prepared by ASE
 ------------------------------
 Symbolic Z-matrix:
 Charge =  0 Multiplicity = 1

                          Input orientation:
 ---------------------------------------------------------------------
 Center     Atomic      Atomic             Coordinates (Angstroms)
 Number     Number       Type             X           Y           Z
 ---------------------------------------------------------------------
      1          6           0       -1.447436    3.510301   -0.169309
      2          6           0       -2.499549    2.856334   -1.051774
      3          8           0       -3.100195    1.718312   -0.391025
      4          6           0       -2.509350    0.516265   -0.594047
      5          8           0       -1.565625    0.322968   -1.357973
      6          7           0       -3.114828   -0.440208    0.152526
      7          6           0       -2.802550   -1.869369    0.051823
      8          6           0       -1.618764   -2.259709    0.955836
      9          7           0       -0.431801   -1.491347    0.624772
     10          6           0        0.645133   -1.473534    1.456501
     11          8           0        0.674099   -2.132489    2.496258
     12          6           0        1.809693   -0.609710    1.045359
     13          6           0        3.002245   -0.768986    1.764044
     14          6           0        4.129273   -0.012559    1.467983
     15          6           0        4.072913    0.926241    0.432403
     16          7           0        5.222031    1.708440    0.131948
     17          6           0        5.274661    2.920887   -0.501845
     18          6           0        6.598238    3.296262   -0.544849
     19          6           0        7.275695    2.238387    0.100739
     20          6           0        8.752087    2.093844    0.299215
     21          9           0        9.359589    3.294761    0.155195
     22          9           0        9.306372    1.257317   -0.605994
     23          9           0        9.056842    1.617600    1.520067
     24          7           0        6.447660    1.281958    0.508387
     25          6           0        2.894047    1.096101   -0.300031
     26          6           0        1.768221    0.337111    0.012256
     27          6           0       -4.040079   -2.722712    0.388312
     28          6           0       -5.122796   -2.854642   -0.705145
     29          6           0       -5.879499   -1.549173   -0.997110
     30          6           0       -6.112672   -3.965464   -0.318612
     31          1           0       -0.609219    2.829771    0.009937
     32          1           0       -1.059024    4.410826   -0.659101
     33          1           0       -1.873509    3.801159    0.796267
     34          1           0       -3.337135    3.532400   -1.241222
     35          1           0       -2.078012    2.527691   -2.003970
     36          1           0       -3.867512   -0.142119    0.757080
     37          1           0       -2.512256   -2.051417   -0.990624
     38          1           0       -1.867358   -2.095215    2.011178
     39          1           0       -1.423909   -3.335599    0.842016
     40          1           0       -0.442725   -0.972823   -0.245756
     41          1           0        3.018296   -1.495750    2.568998
     42          1           0        5.052012   -0.136061    2.021914
     43          1           0        4.382028    3.426752   -0.835346
     44          1           0        7.017794    4.199338   -0.960753
     45          1           0        2.852377    1.799127   -1.125495
     46          1           0        0.864008    0.503283   -0.566336
     47          1           0       -3.679150   -3.731204    0.625548
     48          1           0       -4.495590   -2.347474    1.318558
     49          1           0       -4.615463   -3.165844   -1.631006
     50          1           0       -6.655133   -1.717600   -1.753205
     51          1           0       -6.381054   -1.177018   -0.092989
     52          1           0       -5.221099   -0.758169   -1.366520
     53          1           0       -6.867892   -4.107801   -1.099890
     54          1           0       -5.603197   -4.923981   -0.164898
     55          1           0       -6.640936   -3.715463    0.610796
 ---------------------------------------------------------------------

 SCF Done:  E(RB3LYP) =  -1521.43202057     A.U. after   14 cycles

 Excitation energies and oscillator strengths:

 Excited state symmetry could not be determined.
 Excited State   1:      Triplet-?Sym    3.2880 eV  377.08 nm  f=0.0000  <S**2>=2.000
     105 ->113         0.11153
     108 ->114        -0.11110
     109 ->114        -0.21698
     112 ->113         0.62509
 This state for optimization and/or second-order correction.
 Total Energy, E(TD-HF/TD-DFT) =  -1521.31118922
 Copying the excited state density for this state as the 1-particle RhoCI density.

 Excited state symmetry could not be determined.
 Excited State   2:      Triplet-?Sym    3.9371 eV  314.91 nm  f=0.0000  <S**2>=2.000
     111 ->113         0.64404
     111 ->115         0.22484
     111 ->119         0.12031

 Excited state symmetry could not be determined.
 Excited State   3:      Singlet-?Sym    4.3127 eV  287.49 nm  f=0.0026  <S**2>=0.000
     110 ->113         0.37407
     110 ->115         0.10817
     111 ->113         0.55587
     111 ->115         0.13111
     112 ->113        -0.10845

 Excited state symmetry could not be determined.
 Excited State   4:      Singlet-?Sym    4.6902 eV  264.35 nm  f=0.6683  <S**2>=0.000
     111 ->113         0.19092
     112 ->113         0.66289

 Alpha  occ. eigenvalues --  -24.71855 -24.71489 -24.71211 -19.19991 -19.13942
 Alpha  occ. eigenvalues --  -19.10244 -14.43833 -14.37700 -14.36747 -14.34947
 Alpha  occ. eigenvalues --  -10.42883 -10.35049 -10.28010 -10.25454 -10.25063
 Alpha  occ. eigenvalues --  -10.24842 -10.24013 -10.23088 -10.22489 -10.20870
 Alpha  occ. eigenvalues --  -10.20635 -10.20563 -10.20475 -10.20338 -10.20297
 Alpha  occ. eigenvalues --  -10.19927 -10.19665 -10.19407 -10.18510 -10.18486
 Alpha  occ. eigenvalues --   -1.29343  -1.20782  -1.20345  -1.11601  -1.07177
 Alpha  occ. eigenvalues --   -1.02508  -1.02148  -0.94964  -0.91146  -0.89081
 Alpha  occ. eigenvalues --   -0.84506  -0.82615  -0.80539  -0.78827  -0.76939
 Alpha  occ. eigenvalues --   -0.76057  -0.75655  -0.71460  -0.69434  -0.69238
 Alpha  occ. eigenvalues --   -0.67345  -0.64906  -0.63665  -0.62302  -0.60754
 Alpha  occ. eigenvalues --   -0.60663  -0.59881  -0.58048  -0.57379  -0.57196
 Alpha  occ. eigenvalues --   -0.56763  -0.55985  -0.55311  -0.54128  -0.52246
 Alpha  occ. eigenvalues --   -0.51457  -0.49223  -0.48356  -0.47543  -0.46880
 Alpha  occ. eigenvalues --   -0.46552  -0.46368  -0.45986  -0.45333  -0.44838
 Alpha  occ. eigenvalues --   -0.44751  -0.44576  -0.44256  -0.43982  -0.43209
 Alpha  occ. eigenvalues --   -0.43135  -0.43058  -0.41928  -0.41379  -0.41013
 Alpha  occ. eigenvalues --   -0.40644  -0.40332  -0.39774  -0.39595  -0.39113
 Alpha  occ. eigenvalues --   -0.38870  -0.38864  -0.37990  -0.37841  -0.37383
 Alpha  occ. eigenvalues --   -0.37190  -0.35906  -0.35552  -0.35264  -0.34158
 Alpha  occ. eigenvalues --   -0.34042  -0.33659  -0.30995  -0.30867  -0.29886
 Alpha  occ. eigenvalues --   -0.29598  -0.26980  -0.26852  -0.26267  -0.24867
 Alpha  occ. eigenvalues --   -0.24279  -0.23606
 Alpha virt. eigenvalues --   -0.04848  -0.01361   0.00523   0.02977   0.03967
 Alpha virt. eigenvalues --    0.06148   0.07389   0.07974   0.08130   0.09605
 Alpha virt. eigenvalues --    0.10129   0.10483   0.11417   0.12171   0.12903

 Mulliken charges:
               1
     1  C   -0.461816
     2  C   -0.045035
     3  O   -0.491284
     4  C    0.816220
     5  O   -0.548601
     6  N   -0.612475
     7  C   -0.002222
     8  C   -0.070385
     9  N   -0.671308
    10  C    0.570907
    11  O   -0.539064
    12  C    0.081472
    13  C   -0.174276
    14  C   -0.154175
    15  C    0.339236
    16  N   -0.362481
    17  C    0.085824
    18  C   -0.272483
    19  C    0.175573
    20  C    0.820595
    21  F   -0.275417
    22  F   -0.259218
    23  F   -0.258625
    24  N   -0.339866
    25  C   -0.179386
    26  C   -0.220909
    27  C   -0.287925
    28  C   -0.068616
    29  C   -0.452341
    30  C   -0.445100
    31  H    0.169427
    32  H    0.151517
    33  H    0.162865
    34  H    0.156459
    35  H    0.176265
    36  H    0.340469
    37  H    0.167467
    38  H    0.164313
    39  H    0.154838
    40  H    0.377092
    41  H    0.173327
    42  H    0.177909
    43  H    0.174045
    44  H    0.160949
    45  H    0.141423
    46  H    0.169820
    47  H    0.151140
    48  H    0.132170
    49  H    0.130561
    50  H    0.147538
    51  H    0.133451
    52  H    0.155537
    53  H    0.147043
    54  H    0.145109
    55  H    0.142447
 Sum of Mulliken charges =  -0.00000

 Dipole moment (field-independent basis, Debye):
    X=             -7.9993    Y=              2.7061    Z=             -2.7467  Tot=              8.8801
 Quadrupole moment (field-independent basis, Debye-Ang):
   XX=           -203.4100   YY=           -159.1096   ZZ=           -181.4494
   XY=              7.6059   XZ=             -8.5757   YZ=             -0.1933

 Normal termination of Gaussian 16 at Sat Nov  5 11:12:52 2022.
