 Gaussian 16, Revision B.01,
 Gaussian 16:  ES64L-G16RevB.01 20-Dec-2017

 -------------------------------------------------------------------
 #p b3lyp/6-31g(d) 6D 10F nosymm GFInput td=(50-50,nstate=2) SCF=XQC
 -------------------------------------------------------------------

 ------------------------------
 Gaussian input prepared by ASE
 ------------------------------
 Symbolic Z-matrix:
 Charge =  0 Multiplicity = 1

                          Input orientation:
 ---------------------------------------------------------------------
 Center     Atomic      Atomic             Coordinates (Angstroms)
 Number     Number       Type             X           Y           Z
 ---------------------------------------------------------------------
      1          6           0       -3.103486   -4.144065    1.793603
      2          6           0       -2.976435   -3.092353    0.687439
      3          6           0       -1.904576   -2.041612    0.986180
      4          7           0       -1.862392   -1.028219   -0.068503
      5          6           0       -0.857955    0.031551    0.110584
      6          6           0        0.538026   -0.443426   -0.347280
      7          8           0        1.516408    0.518329    0.013400
      8          6           0        2.786893    0.349197   -0.597214
      9          6           0        3.634159   -0.724212    0.101577
     10          8           0        4.912725   -0.865947   -0.495972
     11          6           0        5.870318    0.075524   -0.050154
     12          6           0       -1.264010    1.324354   -0.595120
     13          6           0       -1.836081    1.256701   -1.871077
     14          6           0       -2.200447    2.405515   -2.571816
     15          6           0       -1.996262    3.655148   -1.990159
     16          6           0       -1.434200    3.734235   -0.716898
     17          6           0       -1.059690    2.588419   -0.002042
     18          6           0       -0.462766    2.743422    1.380404
     19          1           0       -3.378320   -3.682629    2.749907
     20          1           0       -2.159968   -4.682846    1.944439
     21          1           0       -3.873160   -4.884209    1.549123
     22          1           0       -2.737500   -3.590811   -0.263965
     23          1           0       -3.933518   -2.578627    0.536014
     24          1           0       -2.151266   -1.530948    1.927047
     25          1           0       -0.936323   -2.552321    1.155767
     26          1           0       -1.731618   -1.487276   -0.968841
     27          1           0       -0.797783    0.221798    1.186428
     28          1           0        0.529422   -0.580228   -1.442458
     29          1           0        0.756542   -1.420051    0.111636
     30          1           0        2.680877    0.096889   -1.663195
     31          1           0        3.281756    1.323674   -0.531885
     32          1           0        3.717404   -0.485103    1.173641
     33          1           0        3.150515   -1.703231    0.014232
     34          1           0        6.814563   -0.180123   -0.538332
     35          1           0        6.008108    0.023354    1.041554
     36          1           0        5.609193    1.110464   -0.316844
     37          1           0       -2.018903    0.285955   -2.324249
     38          1           0       -2.644232    2.321883   -3.560484
     39          1           0       -2.275667    4.562616   -2.519305
     40          1           0       -1.281311    4.709234   -0.259203
     41          1           0       -1.099260    2.289506    2.151991
     42          1           0       -0.350472    3.802168    1.634673
     43          1           0        0.520693    2.268300    1.445358
 ---------------------------------------------------------------------

 SCF Done:  E(RB3LYP) =  -791.810752924     A.U. after   13 cycles

 Excitation energies and oscillator strengths:

 Excited state symmetry could not be determined.
 Excited State   1:      Triplet-?Sym    3.6949 eV  335.55 nm  f=0.0000  <S**2>=2.000
      67 -> 70         0.31374
      67 -> 71         0.30827
      68 -> 70         0.42128
      68 -> 71        -0.32040
 This state for optimization and/or second-order correction.
 Total Energy, E(TD-HF/TD-DFT) =  -791.674967724
 Copying the excited state density for this state as the 1-particle RhoCI density.

 Excited state symmetry could not be determined.
 Excited State   2:      Triplet-?Sym    4.6148 eV  268.66 nm  f=0.0000  <S**2>=2.000
      67 -> 71        -0.33859
      68 -> 70         0.47850
      68 -> 71         0.34784
      69 -> 71         0.12689

 Excited state symmetry could not be determined.
 Excited State   3:      Singlet-?Sym    5.2732 eV  235.12 nm  f=0.0022  <S**2>=0.000
      67 -> 70        -0.13313
      67 -> 71         0.16365
      68 -> 70         0.19621
      68 -> 71         0.22345
      69 -> 70         0.60202

 Excited state symmetry could not be determined.
 Excited State   4:      Singlet-?Sym    5.3744 eV  230.69 nm  f=0.0001  <S**2>=0.000
      67 -> 70         0.32638
      67 -> 71        -0.21828
      68 -> 70        -0.32004
      68 -> 71        -0.28309
      69 -> 70         0.35411
      69 -> 71         0.16914

 Alpha  occ. eigenvalues --  -19.15216 -19.14994 -14.31734 -10.23229 -10.23064
 Alpha  occ. eigenvalues --  -10.23025 -10.22911 -10.21521 -10.20641 -10.18535
 Alpha  occ. eigenvalues --  -10.18197 -10.18120 -10.17687 -10.17659 -10.17643
 Alpha  occ. eigenvalues --  -10.17604 -10.17427 -10.16960  -1.03695  -1.02757
 Alpha  occ. eigenvalues --   -0.90659  -0.84249  -0.78537  -0.76092  -0.75594
 Alpha  occ. eigenvalues --   -0.74023  -0.71269  -0.68103  -0.66798  -0.65379
 Alpha  occ. eigenvalues --   -0.62466  -0.60044  -0.59174  -0.57613  -0.56096
 Alpha  occ. eigenvalues --   -0.50450  -0.50004  -0.49723  -0.48179  -0.47540
 Alpha  occ. eigenvalues --   -0.46466  -0.46016  -0.45196  -0.44127  -0.43887
 Alpha  occ. eigenvalues --   -0.43175  -0.41374  -0.40878  -0.40475  -0.40189
 Alpha  occ. eigenvalues --   -0.39511  -0.38934  -0.38081  -0.37431  -0.36954
 Alpha  occ. eigenvalues --   -0.35639  -0.35289  -0.34088  -0.33861  -0.33196
 Alpha  occ. eigenvalues --   -0.32744  -0.32215  -0.31601  -0.30821  -0.27687
 Alpha  occ. eigenvalues --   -0.24292  -0.23319  -0.22577  -0.21759
 Alpha virt. eigenvalues --    0.00828   0.01487   0.07647   0.08419   0.09048
 Alpha virt. eigenvalues --    0.09439   0.10034   0.10904   0.11540   0.13159
 Alpha virt. eigenvalues --    0.13624   0.14041   0.14814   0.14959   0.15553

 Mulliken charges:
               1
     1  C   -0.446136
     2  C   -0.262417
     3  C   -0.102143
     4  N   -0.562493
     5  C   -0.091869
     6  C   -0.019000
     7  O   -0.474323
     8  C   -0.038026
     9  C   -0.043471
    10  O   -0.459929
    11  C   -0.200514
    12  C    0.151457
    13  C   -0.179002
    14  C   -0.135279
    15  C   -0.124501
    16  C   -0.189147
    17  C    0.141682
    18  C   -0.550849
    19  H    0.145440
    20  H    0.142659
    21  H    0.147137
    22  H    0.125737
    23  H    0.152532
    24  H    0.140395
    25  H    0.109555
    26  H    0.289922
    27  H    0.144891
    28  H    0.117425
    29  H    0.126881
    30  H    0.135557
    31  H    0.147029
    32  H    0.128943
    33  H    0.145134
    34  H    0.160967
    35  H    0.133563
    36  H    0.134338
    37  H    0.110614
    38  H    0.121678
    39  H    0.122219
    40  H    0.116464
    41  H    0.154429
    42  H    0.146784
    43  H    0.185668
 Sum of Mulliken charges =  -0.00000

 Dipole moment (field-independent basis, Debye):
    X=              1.0226    Y=             -0.7723    Z=              0.4718  Tot=              1.3655
 Quadrupole moment (field-independent basis, Debye-Ang):
   XX=           -111.1646   YY=           -107.4246   ZZ=           -107.7527
   XY=              7.2678   XZ=              3.7214   YZ=              0.4283

 Normal termination of Gaussian 16 at Sat Nov  5 11:07:34 2022.
