 Gaussian 16, Revision B.01,
 Gaussian 16:  ES64L-G16RevB.01 20-Dec-2017

 -----------------------------
 #p b3lyp/6-31g(d) opt SCF=XQC
 -----------------------------

 ------------------------------
 Gaussian input prepared by ASE
 ------------------------------
 Symbolic Z-matrix:
 Charge =  0 Multiplicity = 1

 SCF Done:  E(RB3LYP) =  -791.806893640     A.U. after   13 cycles
 SCF Done:  E(RB3LYP) =  -791.810142733     A.U. after   11 cycles
 SCF Done:  E(RB3LYP) =  -791.810473962     A.U. after   11 cycles
 SCF Done:  E(RB3LYP) =  -791.810582958     A.U. after   10 cycles
 SCF Done:  E(RB3LYP) =  -791.810640076     A.U. after   10 cycles
 SCF Done:  E(RB3LYP) =  -791.810678591     A.U. after   10 cycles
 SCF Done:  E(RB3LYP) =  -791.810724002     A.U. after   11 cycles
 SCF Done:  E(RB3LYP) =  -791.810734665     A.U. after   10 cycles
 SCF Done:  E(RB3LYP) =  -791.810746091     A.U. after    9 cycles
 SCF Done:  E(RB3LYP) =  -791.810750315     A.U. after    9 cycles
 SCF Done:  E(RB3LYP) =  -791.810753704     A.U. after    9 cycles
 SCF Done:  E(RB3LYP) =  -791.810754556     A.U. after    8 cycles
 SCF Done:  E(RB3LYP) =  -791.810754772     A.U. after    7 cycles
 SCF Done:  E(RB3LYP) =  -791.810754828     A.U. after    7 cycles
 SCF Done:  E(RB3LYP) =  -791.810754843     A.U. after    7 cycles
 SCF Done:  E(RB3LYP) =  -791.810754849     A.U. after    6 cycles
 SCF Done:  E(RB3LYP) =  -791.810754853     A.U. after    6 cycles
 SCF Done:  E(RB3LYP) =  -791.810754855     A.U. after    6 cycles
 SCF Done:  E(RB3LYP) =  -791.810754857     A.U. after    6 cycles
 SCF Done:  E(RB3LYP) =  -791.810754857     A.U. after    6 cycles
 Optimization completed.
    -- Stationary point found.

                         Standard orientation:
 ---------------------------------------------------------------------
 Center     Atomic      Atomic             Coordinates (Angstroms)
 Number     Number       Type             X           Y           Z
 ---------------------------------------------------------------------
      1          6           0       -3.474197   -4.513104    0.384282
      2          6           0       -3.242807   -3.166960   -0.308680
      3          6           0       -2.108142   -2.359028    0.325328
      4          7           0       -1.965498   -1.059563   -0.332049
      5          6           0       -0.894124   -0.198365    0.191952
      6          6           0        0.476968   -0.598917   -0.394282
      7          8           0        1.510438    0.111875    0.268295
      8          6           0        2.782183    0.059082   -0.360563
      9          6           0        3.532017   -1.246166   -0.056505
     10          8           0        4.813393   -1.278138   -0.663907
     11          6           0        5.822355   -0.613073    0.072157
     12          6           0       -1.188346    1.282092   -0.044514
     13          6           0       -1.728353    1.684801   -1.271759
     14          6           0       -1.991301    3.025050   -1.551338
     15          6           0       -1.715590    3.991909   -0.586576
     16          6           0       -1.184683    3.601605    0.641902
     17          6           0       -0.911798    2.258727    0.935818
     18          6           0       -0.343785    1.900976    2.292607
     19          1           0       -3.742065   -4.375411    1.438919
     20          1           0       -2.575558   -5.141209    0.349696
     21          1           0       -4.287129   -5.069817   -0.094459
     22          1           0       -3.013480   -3.338377   -1.371104
     23          1           0       -4.156722   -2.561195   -0.283019
     24          1           0       -2.344049   -2.172053    1.381856
     25          1           0       -1.183377   -2.968823    0.317828
     26          1           0       -1.842651   -1.202668   -1.333484
     27          1           0       -0.850378   -0.380691    1.269959
     28          1           0        0.488945   -0.363827   -1.472611
     29          1           0        0.613302   -1.686025   -0.285842
     30          1           0        2.688075    0.183246   -1.450032
     31          1           0        3.342568    0.916360    0.026485
     32          1           0        3.602321   -1.383035    1.034250
     33          1           0        2.983106   -2.101266   -0.465798
     34          1           0        6.759317   -0.763119   -0.470852
     35          1           0        5.925957   -1.034503    1.084677
     36          1           0        5.642346    0.468370    0.164284
     37          1           0       -1.966632    0.935992   -2.022522
     38          1           0       -2.412441    3.307774   -2.512644
     39          1           0       -1.915580    5.041875   -0.784409
     40          1           0       -0.976076    4.355179    1.398269
     41          1           0       -1.031755    1.266491    2.867618
     42          1           0       -0.164137    2.803822    2.884891
     43          1           0        0.601539    1.358185    2.198311
 ---------------------------------------------------------------------

 The electronic state is 1-A.
 Alpha  occ. eigenvalues --  -19.15216 -19.14994 -14.31734 -10.23229 -10.23064
 Alpha  occ. eigenvalues --  -10.23025 -10.22911 -10.21521 -10.20641 -10.18535
 Alpha  occ. eigenvalues --  -10.18197 -10.18120 -10.17687 -10.17659 -10.17644
 Alpha  occ. eigenvalues --  -10.17604 -10.17427 -10.16960  -1.03695  -1.02757
 Alpha  occ. eigenvalues --   -0.90659  -0.84249  -0.78537  -0.76092  -0.75594
 Alpha  occ. eigenvalues --   -0.74023  -0.71269  -0.68103  -0.66798  -0.65379
 Alpha  occ. eigenvalues --   -0.62466  -0.60044  -0.59174  -0.57613  -0.56096
 Alpha  occ. eigenvalues --   -0.50450  -0.50004  -0.49723  -0.48179  -0.47540
 Alpha  occ. eigenvalues --   -0.46466  -0.46016  -0.45196  -0.44127  -0.43887
 Alpha  occ. eigenvalues --   -0.43175  -0.41374  -0.40878  -0.40475  -0.40189
 Alpha  occ. eigenvalues --   -0.39511  -0.38934  -0.38081  -0.37430  -0.36954
 Alpha  occ. eigenvalues --   -0.35639  -0.35289  -0.34088  -0.33861  -0.33196
 Alpha  occ. eigenvalues --   -0.32744  -0.32215  -0.31601  -0.30821  -0.27687
 Alpha  occ. eigenvalues --   -0.24292  -0.23319  -0.22576  -0.21759
 Alpha virt. eigenvalues --    0.00828   0.01487   0.07647   0.08419   0.09048
 Alpha virt. eigenvalues --    0.09439   0.10034   0.10904   0.11540   0.13159
 Alpha virt. eigenvalues --    0.13624   0.14041   0.14814   0.14959   0.15553

 Mulliken charges:
               1
     1  C   -0.446159
     2  C   -0.262395
     3  C   -0.102133
     4  N   -0.562497
     5  C   -0.091887
     6  C   -0.019009
     7  O   -0.474318
     8  C   -0.038022
     9  C   -0.043480
    10  O   -0.459927
    11  C   -0.200512
    12  C    0.151475
    13  C   -0.179004
    14  C   -0.135283
    15  C   -0.124504
    16  C   -0.189141
    17  C    0.141676
    18  C   -0.550851
    19  H    0.145444
    20  H    0.142663
    21  H    0.147141
    22  H    0.125734
    23  H    0.152527
    24  H    0.140393
    25  H    0.109552
    26  H    0.289923
    27  H    0.144893
    28  H    0.117428
    29  H    0.126883
    30  H    0.135556
    31  H    0.147029
    32  H    0.128946
    33  H    0.145136
    34  H    0.160967
    35  H    0.133562
    36  H    0.134338
    37  H    0.110614
    38  H    0.121678
    39  H    0.122218
    40  H    0.116464
    41  H    0.154429
    42  H    0.146784
    43  H    0.185670
 Sum of Mulliken charges =  -0.00000

 Dipole moment (field-independent basis, Debye):
    X=              0.9521    Y=             -0.9601    Z=              0.1906  Tot=              1.3655
 Quadrupole moment (field-independent basis, Debye-Ang):
   XX=           -110.3992   YY=           -108.1050   ZZ=           -107.3872
   XY=              5.6043   XZ=              6.0032   YZ=             -0.1235

 Normal termination of Gaussian 16 at Fri Nov  4 18:25:50 2022.
