 Gaussian 16, Revision B.01,
 Gaussian 16:  ES64L-G16RevB.01 20-Dec-2017

 -------------------------------------------------------------------
 #p b3lyp/6-31g(d) 6D 10F nosymm GFInput td=(50-50,nstate=2) SCF=XQC
 -------------------------------------------------------------------

 ------------------------------
 Gaussian input prepared by ASE
 ------------------------------
 Symbolic Z-matrix:
 Charge =  0 Multiplicity = 1

                          Input orientation:
 ---------------------------------------------------------------------
 Center     Atomic      Atomic             Coordinates (Angstroms)
 Number     Number       Type             X           Y           Z
 ---------------------------------------------------------------------
      1          6           0        2.071038   -2.638284    0.954368
      2          6           0        1.876846   -1.251038    1.572899
      3          6           0        2.121508   -0.097109    0.590230
      4          7           0        1.138263   -0.044118   -0.499741
      5          6           0        1.592903    0.629860   -1.723501
      6          6           0        0.807780    0.241543   -2.981365
      7          8           0       -0.458833    0.871177   -3.106981
      8          6           0       -0.232702    0.188283   -0.111183
      9          6           0       -1.131690   -0.871305   -0.329490
     10          6           0       -2.495932   -0.782282   -0.034633
     11          6           0       -3.424755   -1.951619   -0.263813
     12          6           0       -2.966230    0.425252    0.496919
     13          6           0       -2.090196    1.481076    0.725230
     14          6           0       -0.718639    1.396510    0.438851
     15          6           0        0.149585    2.605711    0.765087
     16          7           0        0.429726    2.820506    2.196277
     17          1           0        1.853162   -3.430282    1.679697
     18          1           0        3.104850   -2.774125    0.612529
     19          1           0        1.416363   -2.777448    0.088764
     20          1           0        2.568950   -1.121963    2.416178
     21          1           0        0.865501   -1.165929    1.991199
     22          1           0        3.103824   -0.238975    0.122199
     23          1           0        2.191003    0.849394    1.154767
     24          1           0        1.587192    1.731570   -1.650718
     25          1           0        2.635914    0.325430   -1.877981
     26          1           0        1.381980    0.569832   -3.855042
     27          1           0        0.725165   -0.855920   -3.029089
     28          1           0       -1.029910    0.515796   -2.408148
     29          1           0       -0.728548   -1.788376   -0.750535
     30          1           0       -4.388201   -1.624503   -0.670780
     31          1           0       -2.991974   -2.677091   -0.959901
     32          1           0       -3.634529   -2.482133    0.674496
     33          1           0       -4.023660    0.541534    0.724173
     34          1           0       -2.481806    2.415542    1.125120
     35          1           0       -0.349612    3.510082    0.397317
     36          1           0        1.107094    2.551861    0.245283
     37          1           0        0.870527    1.985368    2.581441
     38          1           0       -0.451957    2.916178    2.699878
 ---------------------------------------------------------------------

 SCF Done:  E(RB3LYP) =  -693.327212278     A.U. after   13 cycles

 Excitation energies and oscillator strengths:

 Excited state symmetry could not be determined.
 Excited State   1:      Triplet-?Sym    3.6056 eV  343.86 nm  f=0.0000  <S**2>=2.000
      57 -> 62        -0.13153
      57 -> 63        -0.10039
      58 -> 62        -0.16804
      58 -> 63         0.30115
      59 -> 62        -0.27194
      59 -> 63        -0.24845
      60 -> 62         0.44372
      60 -> 63        -0.12222
 This state for optimization and/or second-order correction.
 Total Energy, E(TD-HF/TD-DFT) =  -693.194708576
 Copying the excited state density for this state as the 1-particle RhoCI density.

 Excited state symmetry could not be determined.
 Excited State   2:      Triplet-?Sym    4.3454 eV  285.32 nm  f=0.0000  <S**2>=2.000
      60 -> 63         0.18826
      61 -> 62         0.53365
      61 -> 63         0.39682

 Excited state symmetry could not be determined.
 Excited State   3:      Singlet-?Sym    4.3956 eV  282.07 nm  f=0.0003  <S**2>=0.000
      61 -> 62         0.57582
      61 -> 63         0.40500

 Excited state symmetry could not be determined.
 Excited State   4:      Singlet-?Sym    4.5751 eV  271.00 nm  f=0.0009  <S**2>=0.000
      61 -> 62        -0.40638
      61 -> 63         0.57736

 Alpha  occ. eigenvalues --  -19.12849 -14.32756 -14.31506 -10.22213 -10.22155
 Alpha  occ. eigenvalues --  -10.21119 -10.21062 -10.20721 -10.20281 -10.19571
 Alpha  occ. eigenvalues --  -10.19355 -10.19211 -10.18904 -10.18815 -10.18200
 Alpha  occ. eigenvalues --  -10.17144  -1.00301  -0.92523  -0.88200  -0.85039
 Alpha  occ. eigenvalues --   -0.77988  -0.77383  -0.75008  -0.71720  -0.70555
 Alpha  occ. eigenvalues --   -0.66626  -0.64529  -0.61938  -0.59873  -0.59025
 Alpha  occ. eigenvalues --   -0.55286  -0.50708  -0.49615  -0.49489  -0.48003
 Alpha  occ. eigenvalues --   -0.47177  -0.46371  -0.44384  -0.44081  -0.42757
 Alpha  occ. eigenvalues --   -0.42574  -0.42202  -0.40864  -0.40279  -0.39910
 Alpha  occ. eigenvalues --   -0.39215  -0.38756  -0.38551  -0.36567  -0.35209
 Alpha  occ. eigenvalues --   -0.34839  -0.34593  -0.34400  -0.33897  -0.33191
 Alpha  occ. eigenvalues --   -0.31408  -0.25945  -0.25422  -0.24718  -0.22767
 Alpha  occ. eigenvalues --   -0.21082
 Alpha virt. eigenvalues --   -0.01070  -0.00886   0.07076   0.08530   0.09469
 Alpha virt. eigenvalues --    0.10875   0.11220   0.11662   0.12214   0.12656
 Alpha virt. eigenvalues --    0.12975   0.14243   0.15040   0.15714   0.16048

 Mulliken charges:
               1
     1  C   -0.441004
     2  C   -0.261273
     3  C   -0.122864
     4  N   -0.483036
     5  C   -0.133651
     6  C   -0.035425
     7  O   -0.627133
     8  C    0.153724
     9  C   -0.233420
    10  C    0.178763
    11  C   -0.530153
    12  C   -0.169629
    13  C   -0.199929
    14  C    0.163397
    15  C   -0.241949
    16  N   -0.704236
    17  H    0.140565
    18  H    0.137914
    19  H    0.158018
    20  H    0.131435
    21  H    0.142796
    22  H    0.135811
    23  H    0.120711
    24  H    0.133955
    25  H    0.132812
    26  H    0.141152
    27  H    0.122683
    28  H    0.403458
    29  H    0.133602
    30  H    0.161425
    31  H    0.159865
    32  H    0.167268
    33  H    0.125375
    34  H    0.124391
    35  H    0.157882
    36  H    0.163572
    37  H    0.299118
    38  H    0.294008
 Sum of Mulliken charges =  -0.00000

 Dipole moment (field-independent basis, Debye):
    X=             -0.6898    Y=             -1.8967    Z=              1.6037  Tot=              2.5778
 Quadrupole moment (field-independent basis, Debye-Ang):
   XX=            -89.9968   YY=           -103.6538   ZZ=           -105.2159
   XY=             -1.6206   XZ=             -5.8946   YZ=              1.7189

 Normal termination of Gaussian 16 at Sat Nov  5 11:10:57 2022.
