 Gaussian 16, Revision B.01,
 Gaussian 16:  ES64L-G16RevB.01 20-Dec-2017

 -----------------------------
 #p b3lyp/6-31g(d) opt SCF=XQC
 -----------------------------

 ------------------------------
 Gaussian input prepared by ASE
 ------------------------------
 Symbolic Z-matrix:
 Charge =  0 Multiplicity = 1

 SCF Done:  E(RB3LYP) =  -693.322143311     A.U. after   13 cycles
 SCF Done:  E(RB3LYP) =  -693.326125311     A.U. after   12 cycles
 SCF Done:  E(RB3LYP) =  -693.326837373     A.U. after   12 cycles
 SCF Done:  E(RB3LYP) =  -693.327097532     A.U. after   11 cycles
 SCF Done:  E(RB3LYP) =  -693.327160642     A.U. after   10 cycles
 SCF Done:  E(RB3LYP) =  -693.327167055     A.U. after   10 cycles
 SCF Done:  E(RB3LYP) =  -693.327180114     A.U. after    9 cycles
 SCF Done:  E(RB3LYP) =  -693.327189894     A.U. after    9 cycles
 SCF Done:  E(RB3LYP) =  -693.327193829     A.U. after    9 cycles
 SCF Done:  E(RB3LYP) =  -693.327196769     A.U. after    9 cycles
 SCF Done:  E(RB3LYP) =  -693.327214338     A.U. after    8 cycles
 SCF Done:  E(RB3LYP) =  -693.327214205     A.U. after    8 cycles
 SCF Done:  E(RB3LYP) =  -693.327214142     A.U. after    9 cycles
 SCF Done:  E(RB3LYP) =  -693.327214474     A.U. after    7 cycles
 SCF Done:  E(RB3LYP) =  -693.327215263     A.U. after    9 cycles
 SCF Done:  E(RB3LYP) =  -693.327215969     A.U. after    8 cycles
 SCF Done:  E(RB3LYP) =  -693.327217161     A.U. after    9 cycles
 SCF Done:  E(RB3LYP) =  -693.327218029     A.U. after    9 cycles
 SCF Done:  E(RB3LYP) =  -693.327218209     A.U. after    7 cycles
 SCF Done:  E(RB3LYP) =  -693.327218055     A.U. after    7 cycles
 Optimization completed.
    -- Stationary point found.

                         Standard orientation:
 ---------------------------------------------------------------------
 Center     Atomic      Atomic             Coordinates (Angstroms)
 Number     Number       Type             X           Y           Z
 ---------------------------------------------------------------------
      1          6           0        2.356556   -1.836419    2.202774
      2          6           0        2.168366   -0.330960    1.995601
      3          6           0        2.304173    0.112639    0.532104
      4          7           0        1.240654   -0.411768   -0.334810
      5          6           0        1.581858   -0.505726   -1.760742
      6          6           0        0.716275   -1.495660   -2.548288
      7          8           0       -0.574300   -1.012120   -2.890529
      8          6           0       -0.103516    0.013650   -0.023747
      9          6           0       -0.984566   -0.983986    0.431267
     10          6           0       -2.324827   -0.729918    0.739766
     11          6           0       -3.233179   -1.825564    1.246758
     12          6           0       -2.789430    0.581457    0.577568
     13          6           0       -1.930395    1.581629    0.134804
     14          6           0       -0.582338    1.335754   -0.169533
     15          6           0        0.271726    2.517997   -0.611447
     16          7           0        0.652147    3.462091    0.454801
     17          1           0        2.217379   -2.112851    3.253986
     18          1           0        3.365323   -2.150128    1.906045
     19          1           0        1.643091   -2.407802    1.601337
     20          1           0        2.917759    0.219367    2.580698
     21          1           0        1.189242   -0.019437    2.382003
     22          1           0        3.252308   -0.273002    0.136572
     23          1           0        2.387815    1.213091    0.494572
     24          1           0        1.548982    0.463321   -2.288910
     25          1           0        2.618874   -0.861463   -1.810396
     26          1           0        1.213206   -1.695611   -3.504253
     27          1           0        0.662873   -2.446340   -1.994316
     28          1           0       -1.080456   -0.928797   -2.067330
     29          1           0       -0.587204   -1.989925    0.536209
     30          1           0       -4.233758   -1.752815    0.805843
     31          1           0       -2.832625   -2.817642    1.015494
     32          1           0       -3.356023   -1.767250    2.336429
     33          1           0       -3.829770    0.817603    0.790289
     34          1           0       -2.318368    2.590736    0.001844
     35          1           0       -0.280285    3.091903   -1.365273
     36          1           0        1.188635    2.179280   -1.095667
     37          1           0        1.145208    2.956840    1.190821
     38          1           0       -0.191641    3.826264    0.896991
 ---------------------------------------------------------------------

 The electronic state is 1-A.
 Alpha  occ. eigenvalues --  -19.12849 -14.32756 -14.31506 -10.22213 -10.22155
 Alpha  occ. eigenvalues --  -10.21119 -10.21062 -10.20721 -10.20282 -10.19571
 Alpha  occ. eigenvalues --  -10.19355 -10.19211 -10.18904 -10.18815 -10.18200
 Alpha  occ. eigenvalues --  -10.17144  -1.00301  -0.92523  -0.88200  -0.85039
 Alpha  occ. eigenvalues --   -0.77988  -0.77383  -0.75008  -0.71720  -0.70555
 Alpha  occ. eigenvalues --   -0.66626  -0.64529  -0.61938  -0.59873  -0.59025
 Alpha  occ. eigenvalues --   -0.55286  -0.50708  -0.49615  -0.49489  -0.48003
 Alpha  occ. eigenvalues --   -0.47177  -0.46371  -0.44384  -0.44081  -0.42757
 Alpha  occ. eigenvalues --   -0.42574  -0.42202  -0.40864  -0.40279  -0.39910
 Alpha  occ. eigenvalues --   -0.39215  -0.38756  -0.38551  -0.36568  -0.35209
 Alpha  occ. eigenvalues --   -0.34839  -0.34593  -0.34400  -0.33897  -0.33191
 Alpha  occ. eigenvalues --   -0.31408  -0.25945  -0.25422  -0.24718  -0.22767
 Alpha  occ. eigenvalues --   -0.21082
 Alpha virt. eigenvalues --   -0.01071  -0.00886   0.07076   0.08530   0.09469
 Alpha virt. eigenvalues --    0.10875   0.11220   0.11662   0.12214   0.12656
 Alpha virt. eigenvalues --    0.12975   0.14243   0.15040   0.15714   0.16048

 Mulliken charges:
               1
     1  C   -0.441006
     2  C   -0.261262
     3  C   -0.122848
     4  N   -0.483048
     5  C   -0.133639
     6  C   -0.035427
     7  O   -0.627134
     8  C    0.153692
     9  C   -0.233408
    10  C    0.178774
    11  C   -0.530152
    12  C   -0.169633
    13  C   -0.199936
    14  C    0.163402
    15  C   -0.241941
    16  N   -0.704237
    17  H    0.140565
    18  H    0.137915
    19  H    0.158015
    20  H    0.131433
    21  H    0.142792
    22  H    0.135811
    23  H    0.120708
    24  H    0.133955
    25  H    0.132810
    26  H    0.141151
    27  H    0.122685
    28  H    0.403458
    29  H    0.133601
    30  H    0.161425
    31  H    0.159865
    32  H    0.167267
    33  H    0.125376
    34  H    0.124392
    35  H    0.157882
    36  H    0.163570
    37  H    0.299118
    38  H    0.294007
 Sum of Mulliken charges =  -0.00000

 Dipole moment (field-independent basis, Debye):
    X=             -0.5108    Y=             -0.7309    Z=              2.4186  Tot=              2.5778
 Quadrupole moment (field-independent basis, Debye-Ang):
   XX=            -91.0352   YY=           -102.2750   ZZ=           -104.8356
   XY=             -4.7545   XZ=             -5.0684   YZ=              0.1341

 Normal termination of Gaussian 16 at Fri Nov  4 18:33:00 2022.
