 Gaussian 16, Revision B.01,
 Gaussian 16:  ES64L-G16RevB.01 20-Dec-2017

 -----------------------------
 #p b3lyp/6-31g(d) opt SCF=XQC
 -----------------------------

 ------------------------------
 Gaussian input prepared by ASE
 ------------------------------
 Symbolic Z-matrix:
 Charge =  0 Multiplicity = 1

 SCF Done:  E(RB3LYP) =  -884.866425568     A.U. after   14 cycles
 SCF Done:  E(RB3LYP) =  -884.870623368     A.U. after   12 cycles
 SCF Done:  E(RB3LYP) =  -884.871763158     A.U. after   11 cycles
 SCF Done:  E(RB3LYP) =  -884.872005444     A.U. after   10 cycles
 SCF Done:  E(RB3LYP) =  -884.872114218     A.U. after   10 cycles
 SCF Done:  E(RB3LYP) =  -884.872211403     A.U. after   11 cycles
 SCF Done:  E(RB3LYP) =  -884.872268218     A.U. after   10 cycles
 SCF Done:  E(RB3LYP) =  -884.872306237     A.U. after   10 cycles
 SCF Done:  E(RB3LYP) =  -884.872333396     A.U. after   10 cycles
 SCF Done:  E(RB3LYP) =  -884.872368702     A.U. after   11 cycles
 SCF Done:  E(RB3LYP) =  -884.872459637     A.U. after   10 cycles
 SCF Done:  E(RB3LYP) =  -884.872461600     A.U. after   11 cycles
 SCF Done:  E(RB3LYP) =  -884.872463828     A.U. after   11 cycles
 SCF Done:  E(RB3LYP) =  -884.872465723     A.U. after    9 cycles
 SCF Done:  E(RB3LYP) =  -884.872471423     A.U. after    9 cycles
 SCF Done:  E(RB3LYP) =  -884.872474716     A.U. after    9 cycles
 SCF Done:  E(RB3LYP) =  -884.872475319     A.U. after    9 cycles
 SCF Done:  E(RB3LYP) =  -884.872475398     A.U. after    6 cycles
 SCF Done:  E(RB3LYP) =  -884.872475580     A.U. after    7 cycles
 SCF Done:  E(RB3LYP) =  -884.872475594     A.U. after    6 cycles
 Optimization completed.
    -- Stationary point found.

                         Standard orientation:
 ---------------------------------------------------------------------
 Center     Atomic      Atomic             Coordinates (Angstroms)
 Number     Number       Type             X           Y           Z
 ---------------------------------------------------------------------
      1          6           0        2.225029   -3.367904    1.339502
      2          7           0        2.654536   -2.385458    0.366019
      3          6           0        3.900997   -2.707091   -0.319632
      4          6           0        4.204151   -1.418496   -1.097496
      5          6           0        3.601982   -0.284008   -0.213334
      6          6           0        2.674576    0.630136   -1.033020
      7          7           0        2.228621    1.822862   -0.311174
      8          6           0        3.161596    2.930745   -0.224004
      9          6           0        0.894683    2.025283   -0.002504
     10          6           0        0.419289    3.283369    0.443220
     11          6           0       -0.926160    3.400657    0.761566
     12          6           0       -1.780959    2.303854    0.635178
     13          6           0       -1.229055    1.107514    0.173999
     14          6           0       -2.060363   -0.155939    0.023298
     15          7           0       -3.472655    0.145410   -0.202732
     16          6           0       -4.426530   -0.986750   -0.245651
     17          6           0       -4.049575   -2.061046   -1.290635
     18          6           0       -5.790349   -0.376070   -0.611014
     19          6           0       -4.521996   -1.624655    1.151779
     20          7           0        0.067196    0.972785   -0.135998
     21          6           0        2.860053   -1.044398    0.912870
     22          1           0        1.272338   -3.058266    1.783453
     23          1           0        2.954863   -3.511812    2.162689
     24          1           0        2.071425   -4.336443    0.849822
     25          1           0        3.776208   -3.586544   -0.962596
     26          1           0        4.721606   -2.930102    0.395124
     27          1           0        5.274370   -1.285677   -1.285121
     28          1           0        3.700044   -1.444226   -2.070905
     29          1           0        4.405033    0.324054    0.220227
     30          1           0        1.788354    0.067787   -1.329576
     31          1           0        3.195929    0.949986   -1.948486
     32          1           0        4.170149    2.560035   -0.419392
     33          1           0        3.161959    3.376579    0.777792
     34          1           0        2.944244    3.727640   -0.953561
     35          1           0        1.075224    4.141084    0.524834
     36          1           0       -1.311914    4.357524    1.106058
     37          1           0       -2.835779    2.355608    0.875668
     38          1           0       -1.585003   -0.769273   -0.759007
     39          1           0       -1.974770   -0.730703    0.954734
     40          1           0       -3.552268    0.664176   -1.077199
     41          1           0       -4.805698   -2.854388   -1.329683
     42          1           0       -3.975250   -1.620446   -2.293032
     43          1           0       -3.088464   -2.532220   -1.057724
     44          1           0       -5.758357    0.090766   -1.604389
     45          1           0       -6.571691   -1.143765   -0.630972
     46          1           0       -6.071891    0.392645    0.116128
     47          1           0       -5.319475   -2.375954    1.172893
     48          1           0       -4.743253   -0.859952    1.903678
     49          1           0       -3.592816   -2.128935    1.438840
     50          1           0        1.901009   -0.585792    1.173355
     51          1           0        3.485765   -1.073783    1.828823
 ---------------------------------------------------------------------

 The electronic state is 1-A.
 Alpha  occ. eigenvalues --  -14.34501 -14.31100 -14.30792 -14.30421 -10.24594
 Alpha  occ. eigenvalues --  -10.21613 -10.21498 -10.21133 -10.20292 -10.19732
 Alpha  occ. eigenvalues --  -10.19680 -10.19293 -10.18990 -10.18966 -10.18229
 Alpha  occ. eigenvalues --  -10.17696 -10.17658 -10.16843 -10.16693 -10.16630
 Alpha  occ. eigenvalues --  -10.16509  -0.95910  -0.92008  -0.90656  -0.89081
 Alpha  occ. eigenvalues --   -0.78891  -0.78219  -0.77898  -0.74173  -0.72649
 Alpha  occ. eigenvalues --   -0.69820  -0.68494  -0.67949  -0.67426  -0.66039
 Alpha  occ. eigenvalues --   -0.64251  -0.59193  -0.57582  -0.56991  -0.55101
 Alpha  occ. eigenvalues --   -0.54192  -0.51750  -0.48805  -0.48090  -0.47820
 Alpha  occ. eigenvalues --   -0.46950  -0.46209  -0.45314  -0.44589  -0.44017
 Alpha  occ. eigenvalues --   -0.43326  -0.43115  -0.41848  -0.41786  -0.40673
 Alpha  occ. eigenvalues --   -0.40596  -0.40266  -0.38986  -0.38513  -0.38025
 Alpha  occ. eigenvalues --   -0.37570  -0.37044  -0.36690  -0.36072  -0.35872
 Alpha  occ. eigenvalues --   -0.35574  -0.34712  -0.34581  -0.33916  -0.32996
 Alpha  occ. eigenvalues --   -0.32628  -0.31957  -0.31796  -0.31569  -0.27967
 Alpha  occ. eigenvalues --   -0.25759  -0.24038  -0.21229  -0.20208  -0.18840
 Alpha virt. eigenvalues --   -0.00428   0.02355   0.07912   0.08569   0.09749
 Alpha virt. eigenvalues --    0.11460   0.12015   0.12505   0.12873   0.13146
 Alpha virt. eigenvalues --    0.13361   0.14063   0.14170   0.14966   0.15430

 Mulliken charges:
               1
     1  C   -0.290933
     2  N   -0.380636
     3  C   -0.114861
     4  C   -0.289643
     5  C   -0.089556
     6  C   -0.164942
     7  N   -0.462377
     8  C   -0.317030
     9  C    0.529829
    10  C   -0.201562
    11  C   -0.105947
    12  C   -0.181234
    13  C    0.268121
    14  C   -0.173606
    15  N   -0.571149
    16  C    0.222439
    17  C   -0.447588
    18  C   -0.449209
    19  C   -0.442302
    20  N   -0.579865
    21  C   -0.123147
    22  H    0.149807
    23  H    0.112678
    24  H    0.144525
    25  H    0.135557
    26  H    0.102465
    27  H    0.132980
    28  H    0.145285
    29  H    0.119473
    30  H    0.197077
    31  H    0.129455
    32  H    0.161636
    33  H    0.161273
    34  H    0.149534
    35  H    0.124822
    36  H    0.129391
    37  H    0.141220
    38  H    0.140568
    39  H    0.159188
    40  H    0.288793
    41  H    0.137765
    42  H    0.132880
    43  H    0.148729
    44  H    0.131510
    45  H    0.139651
    46  H    0.153181
    47  H    0.137515
    48  H    0.152135
    49  H    0.141464
    50  H    0.166424
    51  H    0.098218
 Sum of Mulliken charges =  -0.00000

 Dipole moment (field-independent basis, Debye):
    X=              1.1333    Y=              0.6385    Z=             -0.4875  Tot=              1.3891
 Quadrupole moment (field-independent basis, Debye-Ang):
   XX=           -119.2913   YY=           -122.6694   ZZ=           -130.3596
   XY=              5.4086   XZ=              0.3953   YZ=             -0.3345

 1\1\GINC-NODE80\FOpt\RB3LYP\6-31G(d)\C17H30N4\WYKGROUP\04-Nov-2022\0\\
 #p b3lyp/6-31g(d) opt SCF=XQC\\Gaussian input prepared by ASE\\0,1\C,2
 .7317945031,2.3917836076,-1.9205425688\N,2.9640084783,1.7555946145,-0.
 640431592\C,4.1596952895,2.2091706228,0.0608760208\C,4.2571858724,1.22
 78173817,1.23769056\C,3.6414495032,-0.0951695753,0.6881553437\C,2.5521
 999729,-0.6376133742,1.6299183057\N,2.0691013817,-1.9719616143,1.27122
 13245\C,2.8952623032,-3.1005487044,1.6574814593\C,0.7600566252,-2.1854
 237878,0.8756488625\C,0.2135455373,-3.4900411106,0.7934963196\C,-1.097

 Normal termination of Gaussian 16 at Fri Nov  4 18:38:07 2022.
