 Gaussian 16, Revision B.01,
 Gaussian 16:  ES64L-G16RevB.01 20-Dec-2017

 -------------------------------------------------------------------
 #p b3lyp/6-31g(d) 6D 10F nosymm GFInput td=(50-50,nstate=2) SCF=XQC
 -------------------------------------------------------------------

 ------------------------------
 Gaussian input prepared by ASE
 ------------------------------
 Symbolic Z-matrix:
 Charge =  0 Multiplicity = 1

                          Input orientation:
 ---------------------------------------------------------------------
 Center     Atomic      Atomic             Coordinates (Angstroms)
 Number     Number       Type             X           Y           Z
 ---------------------------------------------------------------------
      1          6           0        2.731795    2.391784   -1.920543
      2          7           0        2.964008    1.755595   -0.640432
      3          6           0        4.159695    2.209171    0.060876
      4          6           0        4.257186    1.227817    1.237691
      5          6           0        3.641450   -0.095170    0.688155
      6          6           0        2.552200   -0.637613    1.629918
      7          7           0        2.069101   -1.971962    1.271221
      8          6           0        2.895262   -3.100549    1.657481
      9          6           0        0.760057   -2.185424    0.875649
     10          6           0        0.213546   -3.490041    0.793496
     11          6           0       -1.097733   -3.625613    0.360481
     12          6           0       -1.851523   -2.499310    0.024515
     13          6           0       -1.236754   -1.252424    0.150406
     14          6           0       -1.953726    0.037717   -0.212342
     15          7           0       -3.404047   -0.090837   -0.083834
     16          6           0       -4.244086    1.047510   -0.522021
     17          6           0       -3.873437    2.379078    0.169169
     18          6           0       -5.690263    0.669402   -0.158663
     19          6           0       -4.135696    1.201229   -2.049590
     20          7           0        0.028331   -1.100228    0.563822
     21          6           0        3.094005    0.300038   -0.705079
     22          1           0        1.803661    2.010901   -2.361092
     23          1           0        3.551720    2.217565   -2.647436
     24          1           0        2.623186    3.474095   -1.785430
     25          1           0        4.055523    3.255507    0.371911
     26          1           0        5.066122    2.139547   -0.577521
     27          1           0        5.285134    1.100904    1.591847
     28          1           0        3.661861    1.597790    2.080911
     29          1           0        4.422107   -0.856901    0.574381
     30          1           0        1.698675    0.041313    1.618749
     31          1           0        2.944934   -0.672558    2.657892
     32          1           0        3.909767   -2.746033    1.852106
     33          1           0        2.954272   -3.846883    0.856316
     34          1           0        2.529511   -3.603061    2.567560
     35          1           0        0.788867   -4.364499    1.070831
     36          1           0       -1.536785   -4.618241    0.289771
     37          1           0       -2.876611   -2.564697   -0.319111
     38          1           0       -1.503334    0.843073    0.389898
     39          1           0       -1.719341    0.272655   -1.258822
     40          1           0       -3.621356   -0.291774    0.892153
     41          1           0       -4.549841    3.184793   -0.140575
     42          1           0       -3.943766    2.284499    1.260298
     43          1           0       -2.852853    2.692048   -0.076684
     44          1           0       -5.804117    0.549597    0.926895
     45          1           0       -6.392169    1.446177   -0.481458
     46          1           0       -5.969262   -0.276024   -0.635376
     47          1           0       -4.850996    1.950126   -2.407876
     48          1           0       -4.352108    0.248028   -2.543200
     49          1           0       -3.138060    1.529722   -2.360867
     50          1           0        2.126669   -0.161487   -0.926878
     51          1           0        3.809219   -0.006344   -1.496248
 ---------------------------------------------------------------------

 SCF Done:  E(RB3LYP) =  -884.872476634     A.U. after   14 cycles

 Excitation energies and oscillator strengths:

 Excited state symmetry could not be determined.
 Excited State   1:      Triplet-?Sym    3.4886 eV  355.39 nm  f=0.0000  <S**2>=2.000
      80 -> 81         0.69290
 This state for optimization and/or second-order correction.
 Total Energy, E(TD-HF/TD-DFT) =  -884.744271569
 Copying the excited state density for this state as the 1-particle RhoCI density.

 Excited state symmetry could not be determined.
 Excited State   2:      Triplet-?Sym    3.7118 eV  334.03 nm  f=0.0000  <S**2>=2.000
      75 -> 82         0.11448
      76 -> 81         0.25690
      80 -> 82         0.62766

 Excited state symmetry could not be determined.
 Excited State   3:      Singlet-?Sym    4.3500 eV  285.02 nm  f=0.0771  <S**2>=0.000
      76 -> 82        -0.12233
      80 -> 81         0.69253

 Excited state symmetry could not be determined.
 Excited State   4:      Singlet-?Sym    4.8518 eV  255.54 nm  f=0.0016  <S**2>=0.000
      77 -> 81        -0.11583
      78 -> 81         0.20843
      79 -> 81         0.66482

 Alpha  occ. eigenvalues --  -14.34501 -14.31100 -14.30792 -14.30421 -10.24593
 Alpha  occ. eigenvalues --  -10.21613 -10.21498 -10.21133 -10.20292 -10.19732
 Alpha  occ. eigenvalues --  -10.19680 -10.19293 -10.18990 -10.18966 -10.18229
 Alpha  occ. eigenvalues --  -10.17696 -10.17658 -10.16843 -10.16693 -10.16630
 Alpha  occ. eigenvalues --  -10.16509  -0.95910  -0.92008  -0.90656  -0.89081
 Alpha  occ. eigenvalues --   -0.78891  -0.78219  -0.77898  -0.74173  -0.72649
 Alpha  occ. eigenvalues --   -0.69820  -0.68494  -0.67949  -0.67426  -0.66039
 Alpha  occ. eigenvalues --   -0.64251  -0.59193  -0.57582  -0.56991  -0.55101
 Alpha  occ. eigenvalues --   -0.54192  -0.51750  -0.48805  -0.48090  -0.47820
 Alpha  occ. eigenvalues --   -0.46950  -0.46209  -0.45314  -0.44589  -0.44017
 Alpha  occ. eigenvalues --   -0.43326  -0.43115  -0.41848  -0.41786  -0.40673
 Alpha  occ. eigenvalues --   -0.40596  -0.40266  -0.38987  -0.38513  -0.38025
 Alpha  occ. eigenvalues --   -0.37570  -0.37044  -0.36690  -0.36072  -0.35872
 Alpha  occ. eigenvalues --   -0.35574  -0.34712  -0.34581  -0.33916  -0.32996
 Alpha  occ. eigenvalues --   -0.32628  -0.31957  -0.31796  -0.31569  -0.27967
 Alpha  occ. eigenvalues --   -0.25759  -0.24038  -0.21229  -0.20208  -0.18840
 Alpha virt. eigenvalues --   -0.00428   0.02355   0.07912   0.08569   0.09749
 Alpha virt. eigenvalues --    0.11460   0.12015   0.12505   0.12873   0.13146
 Alpha virt. eigenvalues --    0.13361   0.14063   0.14170   0.14966   0.15430

 Mulliken charges:
               1
     1  C   -0.290939
     2  N   -0.380645
     3  C   -0.114857
     4  C   -0.289637
     5  C   -0.089532
     6  C   -0.164944
     7  N   -0.462392
     8  C   -0.317035
     9  C    0.529846
    10  C   -0.201551
    11  C   -0.105963
    12  C   -0.181200
    13  C    0.268088
    14  C   -0.173597
    15  N   -0.571162
    16  C    0.222461
    17  C   -0.447592
    18  C   -0.449221
    19  C   -0.442304
    20  N   -0.579859
    21  C   -0.123159
    22  H    0.149809
    23  H    0.112679
    24  H    0.144528
    25  H    0.135556
    26  H    0.102463
    27  H    0.132977
    28  H    0.145283
    29  H    0.119469
    30  H    0.197077
    31  H    0.129452
    32  H    0.161638
    33  H    0.161275
    34  H    0.149534
    35  H    0.124822
    36  H    0.129392
    37  H    0.141210
    38  H    0.140566
    39  H    0.159188
    40  H    0.288796
    41  H    0.137764
    42  H    0.132879
    43  H    0.148730
    44  H    0.131510
    45  H    0.139651
    46  H    0.153185
    47  H    0.137516
    48  H    0.152135
    49  H    0.141463
    50  H    0.166428
    51  H    0.098219
 Sum of Mulliken charges =  -0.00000

 Dipole moment (field-independent basis, Debye):
    X=              1.0114    Y=             -0.5105    Z=              0.8037  Tot=              1.3891
 Quadrupole moment (field-independent basis, Debye-Ang):
   XX=           -120.2405   YY=           -122.8367   ZZ=           -128.6837
   XY=             -5.3353   XZ=              2.5554   YZ=             -3.6189

 Normal termination of Gaussian 16 at Sat Nov  5 11:16:29 2022.
