 Gaussian 16, Revision B.01,
 Gaussian 16:  ES64L-G16RevB.01 20-Dec-2017

 -----------------------------
 #p b3lyp/6-31g(d) opt SCF=XQC
 -----------------------------

 ------------------------------
 Gaussian input prepared by ASE
 ------------------------------
 Symbolic Z-matrix:
 Charge =  0 Multiplicity = 1

 SCF Done:  E(RB3LYP) =  -1303.29652638     A.U. after   14 cycles
 SCF Done:  E(RB3LYP) =  -1303.30483756     A.U. after   12 cycles
 SCF Done:  E(RB3LYP) =  -1303.30566794     A.U. after   11 cycles
 SCF Done:  E(RB3LYP) =  -1303.30577630     A.U. after   10 cycles
 SCF Done:  E(RB3LYP) =  -1303.30578905     A.U. after    9 cycles
 SCF Done:  E(RB3LYP) =  -1303.30579524     A.U. after   10 cycles
 SCF Done:  E(RB3LYP) =  -1303.30579713     A.U. after    9 cycles
 SCF Done:  E(RB3LYP) =  -1303.30579801     A.U. after    9 cycles
 SCF Done:  E(RB3LYP) =  -1303.30579836     A.U. after    8 cycles
 SCF Done:  E(RB3LYP) =  -1303.30579846     A.U. after    7 cycles
 SCF Done:  E(RB3LYP) =  -1303.30579847     A.U. after    7 cycles
 Optimization completed.
    -- Stationary point found.

                         Standard orientation:
 ---------------------------------------------------------------------
 Center     Atomic      Atomic             Coordinates (Angstroms)
 Number     Number       Type             X           Y           Z
 ---------------------------------------------------------------------
      1          6           0       -9.080518    0.708948    0.438270
      2          6           0       -7.650710    0.177444    0.575976
      3          6           0       -7.078433   -0.340023   -0.749805
      4          6           0       -5.655338   -0.872108   -0.641533
      5          8           0       -4.803807    0.212691   -0.272775
      6          6           0       -3.473089   -0.026842   -0.089856
      7          6           0       -2.699406    1.083395    0.286699
      8          6           0       -1.335052    0.946191    0.497269
      9          6           0       -0.697915   -0.296282    0.338745
     10          6           0        0.787437   -0.444262    0.592327
     11          7           0        1.548324    0.596610   -0.105281
     12          6           0        2.990885    0.597954    0.106045
     13          6           0        3.574905    1.934850   -0.406113
     14          6           0        5.105033    1.920431   -0.628658
     15          6           0        5.853682    1.044604    0.380152
     16         16           0        5.450256   -0.719273    0.105845
     17          8           0        6.308078   -1.220759   -0.982287
     18          8           0        5.419337   -1.398568    1.413015
     19          6           0        3.733380   -0.607574   -0.516847
     20          6           0       -1.477306   -1.388165   -0.043193
     21          6           0       -2.855065   -1.270469   -0.256007
     22          1           0       -9.464628    1.070520    1.398680
     23          1           0       -9.763684   -0.070724    0.078686
     24          1           0       -9.126700    1.542505   -0.273312
     25          1           0       -7.629367   -0.633642    1.318060
     26          1           0       -6.995322    0.966356    0.962819
     27          1           0       -7.096714    0.459284   -1.502613
     28          1           0       -7.709775   -1.151831   -1.137816
     29          1           0       -5.594147   -1.667174    0.116775
     30          1           0       -5.324215   -1.293560   -1.601698
     31          1           0       -3.195625    2.041468    0.408554
     32          1           0       -0.741481    1.811305    0.778467
     33          1           0        1.004451   -0.330340    1.664439
     34          1           0        1.091767   -1.472773    0.327534
     35          1           0        1.331839    0.575901   -1.101180
     36          1           0        3.137881    0.538176    1.192924
     37          1           0        3.296389    2.718737    0.306374
     38          1           0        3.082207    2.193750   -1.352251
     39          1           0        5.345184    1.564986   -1.638160
     40          1           0        5.496293    2.942122   -0.568640
     41          1           0        5.595093    1.277637    1.416979
     42          1           0        6.939370    1.101117    0.259993
     43          1           0        3.282145   -1.563144   -0.235430
     44          1           0        3.785294   -0.540188   -1.608002
     45          1           0       -1.007944   -2.360378   -0.179110
     46          1           0       -3.424493   -2.143489   -0.553066
 ---------------------------------------------------------------------

 The electronic state is 1-A.
 Alpha  occ. eigenvalues --  -89.08204 -19.17654 -19.13070 -19.13061 -14.33508
 Alpha  occ. eigenvalues --  -10.24765 -10.24365 -10.24123 -10.22663 -10.22210
 Alpha  occ. eigenvalues --  -10.22069 -10.21380 -10.20332 -10.19227 -10.19037
 Alpha  occ. eigenvalues --  -10.18934 -10.18839 -10.18791 -10.18470 -10.18287
 Alpha  occ. eigenvalues --  -10.17617  -8.11218  -6.07633  -6.07560  -6.07538
 Alpha  occ. eigenvalues --   -1.08651  -1.06296  -0.98416  -0.92557  -0.85398
 Alpha  occ. eigenvalues --   -0.83612  -0.80265  -0.77671  -0.75751  -0.74828
 Alpha  occ. eigenvalues --   -0.74117  -0.72275  -0.67393  -0.64969  -0.63741
 Alpha  occ. eigenvalues --   -0.61919  -0.60856  -0.59013  -0.57368  -0.56632
 Alpha  occ. eigenvalues --   -0.53780  -0.52116  -0.50769  -0.48920  -0.47952
 Alpha  occ. eigenvalues --   -0.47689  -0.47290  -0.45884  -0.45321  -0.45125
 Alpha  occ. eigenvalues --   -0.44876  -0.43955  -0.43803  -0.42642  -0.42377
 Alpha  occ. eigenvalues --   -0.41946  -0.41662  -0.40689  -0.39826  -0.39310
 Alpha  occ. eigenvalues --   -0.38551  -0.37411  -0.36779  -0.36263  -0.35883
 Alpha  occ. eigenvalues --   -0.34583  -0.34368  -0.34065  -0.33872  -0.33218
 Alpha  occ. eigenvalues --   -0.31975  -0.31665  -0.31008  -0.30263  -0.28841
 Alpha  occ. eigenvalues --   -0.27911  -0.25169  -0.23463  -0.21644
 Alpha virt. eigenvalues --   -0.00176   0.00761   0.05343   0.07027   0.07424
 Alpha virt. eigenvalues --    0.08046   0.08904   0.09078   0.09460   0.09790
 Alpha virt. eigenvalues --    0.10488   0.10965   0.11121   0.12921   0.12985

 Mulliken charges:
               1
     1  C   -0.442977
     2  C   -0.249118
     3  C   -0.271081
     4  C   -0.035972
     5  O   -0.521439
     6  C    0.382855
     7  C   -0.177809
     8  C   -0.166360
     9  C    0.133663
    10  C   -0.198044
    11  N   -0.561626
    12  C    0.022276
    13  C   -0.258658
    14  C   -0.311740
    15  C   -0.472265
    16  S    1.111613
    17  O   -0.541738
    18  O   -0.543722
    19  C   -0.498891
    20  C   -0.199592
    21  C   -0.194693
    22  H    0.145545
    23  H    0.140289
    24  H    0.144068
    25  H    0.129427
    26  H    0.155981
    27  H    0.147636
    28  H    0.134534
    29  H    0.137430
    30  H    0.138658
    31  H    0.136181
    32  H    0.139436
    33  H    0.159419
    34  H    0.124751
    35  H    0.295772
    36  H    0.160334
    37  H    0.157632
    38  H    0.142874
    39  H    0.173273
    40  H    0.164928
    41  H    0.197766
    42  H    0.209150
    43  H    0.211098
    44  H    0.190302
    45  H    0.125098
    46  H    0.133738
 Sum of Mulliken charges =  -0.00000

 Dipole moment (field-independent basis, Debye):
    X=             -3.9619    Y=              2.7394    Z=             -1.4020  Tot=              5.0166
 Quadrupole moment (field-independent basis, Debye-Ang):
   XX=           -149.5502   YY=           -132.0195   ZZ=           -136.9646
   XY=             31.7364   XZ=              0.5678   YZ=              3.1467

 Normal termination of Gaussian 16 at Fri Nov  4 18:23:14 2022.
