 Gaussian 16, Revision B.01,
 Gaussian 16:  ES64L-G16RevB.01 20-Dec-2017

 -------------------------------------------------------------------
 #p b3lyp/6-31g(d) 6D 10F nosymm GFInput td=(50-50,nstate=2) SCF=XQC
 -------------------------------------------------------------------

 ------------------------------
 Gaussian input prepared by ASE
 ------------------------------
 Symbolic Z-matrix:
 Charge =  0 Multiplicity = 1

                          Input orientation:
 ---------------------------------------------------------------------
 Center     Atomic      Atomic             Coordinates (Angstroms)
 Number     Number       Type             X           Y           Z
 ---------------------------------------------------------------------
      1          6           0        8.163100    0.291790    1.095988
      2          6           0        6.776738    0.490709    0.476114
      3          6           0        6.226986   -0.785693   -0.173146
      4          6           0        4.847007   -0.616205   -0.795213
      5          8           0        3.924573   -0.309681    0.250271
      6          6           0        2.616702   -0.087766   -0.068903
      7          6           0        1.770186    0.223427    1.007932
      8          6           0        0.421781    0.466344    0.790164
      9          6           0       -0.126716    0.405956   -0.502243
     10          6           0       -1.594510    0.694593   -0.736213
     11          7           0       -2.436264   -0.060963    0.196315
     12          6           0       -3.872571    0.174360    0.110940
     13          6           0       -4.556860   -0.419938    1.363631
     14          6           0       -6.084610   -0.614764    1.225623
     15          6           0       -6.756467    0.465434    0.372964
     16         16           0       -6.231244    0.308233   -1.373085
     17          8           0       -7.064065   -0.727376   -2.009719
     18          8           0       -6.136044    1.658966   -1.954074
     19          6           0       -4.534394   -0.349975   -1.185073
     20          6           0        0.724115    0.088013   -1.560796
     21          6           0        2.087257   -0.156007   -1.361652
     22          1           0        8.531924    1.217878    1.550951
     23          1           0        8.895897   -0.024035    0.342883
     24          1           0        8.140950   -0.476998    1.878148
     25          1           0        6.822422    1.287925   -0.279773
     26          1           0        6.071314    0.832603    1.242304
     27          1           0        6.178961   -1.592730    0.570044
     28          1           0        6.910051   -1.126740   -0.963896
     29          1           0        4.851998    0.196753   -1.536818
     30          1           0        4.535316   -1.538769   -1.306003
     31          1           0        2.198037    0.269527    2.004829
     32          1           0       -0.228714    0.696485    1.629040
     33          1           0       -1.806165    1.759671   -0.562114
     34          1           0       -1.827664    0.507572   -1.799805
     35          1           0       -2.230885   -1.056531    0.120330
     36          1           0       -4.001789    1.265111    0.118193
     37          1           0       -4.326551    0.231156    2.213762
     38          1           0       -4.095395   -1.390134    1.588857
     39          1           0       -6.310884   -1.592704    0.783423
     40          1           0       -6.547197   -0.619629    2.218865
     41          1           0       -6.502717    1.478869    0.696604
     42          1           0       -7.844787    0.360179    0.344128
     43          1           0       -4.012601   -0.010205   -2.084079
     44          1           0       -4.604158   -1.442126   -1.199084
     45          1           0        0.323891    0.028417   -2.570866
     46          1           0        2.714047   -0.401003   -2.211221
 ---------------------------------------------------------------------

 SCF Done:  E(RB3LYP) =  -1303.30579590     A.U. after   14 cycles

 Excitation energies and oscillator strengths:

 Excited state symmetry could not be determined.
 Excited State   1:      Triplet-?Sym    3.6985 eV  335.23 nm  f=0.0000  <S**2>=2.000
      82 -> 85         0.39708
      83 -> 85         0.11797
      84 -> 86         0.55166
 This state for optimization and/or second-order correction.
 Total Energy, E(TD-HF/TD-DFT) =  -1303.16987758
 Copying the excited state density for this state as the 1-particle RhoCI density.

 Excited state symmetry could not be determined.
 Excited State   2:      Triplet-?Sym    4.1780 eV  296.75 nm  f=0.0000  <S**2>=2.000
      84 -> 85         0.68370
      84 -> 86         0.10235

 Excited state symmetry could not be determined.
 Excited State   3:      Singlet-?Sym    5.0774 eV  244.19 nm  f=0.0210  <S**2>=0.000
      82 -> 86        -0.29280
      83 -> 86        -0.10224
      84 -> 85         0.63380

 Excited state symmetry could not be determined.
 Excited State   4:      Singlet-?Sym    5.5961 eV  221.55 nm  f=0.0058  <S**2>=0.000
      83 -> 85         0.62998
      83 -> 86         0.17525
      84 -> 86         0.25721

 Alpha  occ. eigenvalues --  -89.08204 -19.17654 -19.13070 -19.13061 -14.33508
 Alpha  occ. eigenvalues --  -10.24765 -10.24365 -10.24123 -10.22663 -10.22210
 Alpha  occ. eigenvalues --  -10.22069 -10.21380 -10.20332 -10.19227 -10.19037
 Alpha  occ. eigenvalues --  -10.18934 -10.18839 -10.18791 -10.18471 -10.18287
 Alpha  occ. eigenvalues --  -10.17617  -8.11218  -6.07633  -6.07560  -6.07538
 Alpha  occ. eigenvalues --   -1.08651  -1.06296  -0.98416  -0.92557  -0.85398
 Alpha  occ. eigenvalues --   -0.83612  -0.80265  -0.77671  -0.75751  -0.74828
 Alpha  occ. eigenvalues --   -0.74117  -0.72275  -0.67393  -0.64969  -0.63741
 Alpha  occ. eigenvalues --   -0.61919  -0.60856  -0.59013  -0.57368  -0.56632
 Alpha  occ. eigenvalues --   -0.53780  -0.52116  -0.50769  -0.48920  -0.47952
 Alpha  occ. eigenvalues --   -0.47689  -0.47290  -0.45884  -0.45321  -0.45125
 Alpha  occ. eigenvalues --   -0.44876  -0.43955  -0.43803  -0.42642  -0.42377
 Alpha  occ. eigenvalues --   -0.41946  -0.41662  -0.40689  -0.39826  -0.39310
 Alpha  occ. eigenvalues --   -0.38551  -0.37411  -0.36779  -0.36263  -0.35883
 Alpha  occ. eigenvalues --   -0.34583  -0.34368  -0.34065  -0.33872  -0.33218
 Alpha  occ. eigenvalues --   -0.31975  -0.31665  -0.31008  -0.30263  -0.28841
 Alpha  occ. eigenvalues --   -0.27911  -0.25169  -0.23463  -0.21644
 Alpha virt. eigenvalues --   -0.00176   0.00761   0.05343   0.07027   0.07424
 Alpha virt. eigenvalues --    0.08046   0.08904   0.09078   0.09460   0.09790
 Alpha virt. eigenvalues --    0.10488   0.10965   0.11121   0.12922   0.12985

 Mulliken charges:
               1
     1  C   -0.442981
     2  C   -0.249113
     3  C   -0.271077
     4  C   -0.035968
     5  O   -0.521443
     6  C    0.382858
     7  C   -0.177800
     8  C   -0.166373
     9  C    0.133668
    10  C   -0.198049
    11  N   -0.561628
    12  C    0.022285
    13  C   -0.258650
    14  C   -0.311753
    15  C   -0.472260
    16  S    1.111615
    17  O   -0.541738
    18  O   -0.543723
    19  C   -0.498888
    20  C   -0.199587
    21  C   -0.194708
    22  H    0.145545
    23  H    0.140289
    24  H    0.144069
    25  H    0.129426
    26  H    0.155981
    27  H    0.147634
    28  H    0.134533
    29  H    0.137428
    30  H    0.138656
    31  H    0.136180
    32  H    0.139439
    33  H    0.159420
    34  H    0.124752
    35  H    0.295772
    36  H    0.160331
    37  H    0.157631
    38  H    0.142873
    39  H    0.173274
    40  H    0.164929
    41  H    0.197764
    42  H    0.209150
    43  H    0.211096
    44  H    0.190300
    45  H    0.125098
    46  H    0.133741
 Sum of Mulliken charges =  -0.00000

 Dipole moment (field-independent basis, Debye):
    X=              3.7386    Y=             -1.6575    Z=              2.9055  Tot=              5.0166
 Quadrupole moment (field-independent basis, Debye-Ang):
   XX=           -151.2910   YY=           -137.6359   ZZ=           -137.7766
   XY=              3.2482   XZ=            -36.1033   YZ=              4.0725

 Normal termination of Gaussian 16 at Sat Nov  5 11:15:08 2022.
