 Gaussian 16, Revision B.01,
 Gaussian 16:  ES64L-G16RevB.01 20-Dec-2017

 -----------------------------
 #p b3lyp/6-31g(d) opt SCF=XQC
 -----------------------------

 ------------------------------
 Gaussian input prepared by ASE
 ------------------------------
 Symbolic Z-matrix:
 Charge =  0 Multiplicity = 1

 SCF Done:  E(RB3LYP) =  -1110.98507477     A.U. after   15 cycles
 SCF Done:  E(RB3LYP) =  -1110.99020103     A.U. after   12 cycles
 SCF Done:  E(RB3LYP) =  -1110.99091563     A.U. after   11 cycles
 SCF Done:  E(RB3LYP) =  -1110.99138056     A.U. after   11 cycles
 SCF Done:  E(RB3LYP) =  -1110.99160120     A.U. after   12 cycles
 SCF Done:  E(RB3LYP) =  -1110.99192635     A.U. after   10 cycles
 SCF Done:  E(RB3LYP) =  -1110.99149921     A.U. after   11 cycles
 SCF Done:  E(RB3LYP) =  -1110.99315769     A.U. after   14 cycles
 SCF Done:  E(RB3LYP) =  -1110.99360574     A.U. after   14 cycles
 SCF Done:  E(RB3LYP) =  -1110.99303475     A.U. after   14 cycles
 SCF Done:  E(RB3LYP) =  -1110.99407861     A.U. after   10 cycles
 SCF Done:  E(RB3LYP) =  -1110.99409436     A.U. after   10 cycles
 SCF Done:  E(RB3LYP) =  -1110.99410137     A.U. after   11 cycles
 SCF Done:  E(RB3LYP) =  -1110.99412489     A.U. after   11 cycles
 SCF Done:  E(RB3LYP) =  -1110.99414223     A.U. after   10 cycles
 SCF Done:  E(RB3LYP) =  -1110.99414302     A.U. after    9 cycles
 SCF Done:  E(RB3LYP) =  -1110.99414530     A.U. after    9 cycles
 SCF Done:  E(RB3LYP) =  -1110.99414586     A.U. after    9 cycles
 SCF Done:  E(RB3LYP) =  -1110.99414590     A.U. after    7 cycles
 SCF Done:  E(RB3LYP) =  -1110.99414592     A.U. after    6 cycles
 Optimization completed.
    -- Stationary point found.

                         Standard orientation:
 ---------------------------------------------------------------------
 Center     Atomic      Atomic             Coordinates (Angstroms)
 Number     Number       Type             X           Y           Z
 ---------------------------------------------------------------------
      1          6           0       -5.489011    1.169345    0.446031
      2          6           0       -5.336562   -0.067801   -0.448233
      3          6           0       -3.881533   -0.448606   -0.768911
      4          6           0       -3.085284   -0.931142    0.456149
      5          7           0       -1.720628   -1.357460    0.161470
      6          6           0       -1.523724   -2.655152   -0.473665
      7          6           0       -0.697796   -0.453826    0.061100
      8          7           0        0.470396   -0.727920   -0.456562
      9          6           0        1.327789    0.353739   -0.345717
     10          6           0        0.830339    1.482720    0.228361
     11         16           0       -0.845370    1.205915    0.703231
     12          6           0        1.568494    2.778505    0.401464
     13          6           0        2.820952    2.768808   -0.499431
     14          6           0        3.586045    1.440548   -0.396585
     15          6           0        2.742139    0.254273   -0.897126
     16          7           0        3.402663   -1.038647   -0.661063
     17          6           0        3.532873   -1.457150    0.739695
     18          6           0        4.086807   -2.879185    0.809318
     19          1           0       -6.545811    1.425453    0.581595
     20          1           0       -5.061474    1.014837    1.443236
     21          1           0       -4.989172    2.039327    0.003002
     22          1           0       -5.841756   -0.924992    0.020452
     23          1           0       -5.862915    0.110544   -1.394801
     24          1           0       -3.877613   -1.245986   -1.523688
     25          1           0       -3.362593    0.409414   -1.216431
     26          1           0       -3.599947   -1.783301    0.918400
     27          1           0       -3.039983   -0.149129    1.221772
     28          1           0       -1.604455   -2.606638   -1.568937
     29          1           0       -2.279023   -3.347861   -0.091162
     30          1           0       -0.528406   -3.029416   -0.227588
     31          1           0        1.865089    2.919923    1.452298
     32          1           0        0.930244    3.635183    0.147191
     33          1           0        2.513297    2.933589   -1.541067
     34          1           0        3.475990    3.604817   -0.225845
     35          1           0        3.867223    1.277937    0.651733
     36          1           0        4.517719    1.479198   -0.971878
     37          1           0        2.671307    0.337059   -1.992763
     38          1           0        2.836183   -1.742387   -1.134236
     39          1           0        2.579379   -1.405151    1.293551
     40          1           0        4.230492   -0.778351    1.244228
     41          1           0        5.044500   -2.946714    0.282327
     42          1           0        3.394971   -3.594496    0.345858
     43          1           0        4.236496   -3.189758    1.849435
 ---------------------------------------------------------------------

 The electronic state is 1-A.
 Alpha  occ. eigenvalues --  -88.89425 -14.36352 -14.30665 -14.30013 -10.27168
 Alpha  occ. eigenvalues --  -10.22699 -10.21498 -10.20469 -10.19745 -10.19648
 Alpha  occ. eigenvalues --  -10.19095 -10.18989 -10.18929 -10.18783 -10.18182
 Alpha  occ. eigenvalues --  -10.17862 -10.17300 -10.16469  -7.95556  -5.91980
 Alpha  occ. eigenvalues --   -5.91637  -5.91191  -0.97665  -0.91870  -0.88451
 Alpha  occ. eigenvalues --   -0.81602  -0.79802  -0.77442  -0.74035  -0.72935
 Alpha  occ. eigenvalues --   -0.72573  -0.69648  -0.68105  -0.65167  -0.60976
 Alpha  occ. eigenvalues --   -0.59840  -0.58337  -0.57158  -0.54663  -0.52107
 Alpha  occ. eigenvalues --   -0.49346  -0.47698  -0.47029  -0.46405  -0.45614
 Alpha  occ. eigenvalues --   -0.45004  -0.44622  -0.43434  -0.42987  -0.41992
 Alpha  occ. eigenvalues --   -0.41503  -0.40365  -0.39857  -0.39161  -0.38779
 Alpha  occ. eigenvalues --   -0.37777  -0.37347  -0.36916  -0.36237  -0.35087
 Alpha  occ. eigenvalues --   -0.34572  -0.34162  -0.34068  -0.33606  -0.33425
 Alpha  occ. eigenvalues --   -0.32408  -0.31592  -0.30831  -0.27324  -0.25934
 Alpha  occ. eigenvalues --   -0.25542  -0.20821  -0.18407
 Alpha virt. eigenvalues --    0.01036   0.02263   0.06768   0.07692   0.09384
 Alpha virt. eigenvalues --    0.09828   0.10445   0.10900   0.11927   0.12448
 Alpha virt. eigenvalues --    0.13081   0.14161   0.14373   0.15057   0.15427

 Mulliken charges:
               1
     1  C   -0.447574
     2  C   -0.255272
     3  C   -0.255723
     4  C   -0.170882
     5  N   -0.424598
     6  C   -0.301057
     7  C    0.315186
     8  N   -0.547514
     9  C    0.302509
    10  C   -0.172333
    11  S    0.160513
    12  C   -0.313940
    13  C   -0.273645
    14  C   -0.272486
    15  C   -0.030322
    16  N   -0.549431
    17  C   -0.113836
    18  C   -0.454178
    19  H    0.146643
    20  H    0.147068
    21  H    0.150539
    22  H    0.131145
    23  H    0.139522
    24  H    0.138094
    25  H    0.153102
    26  H    0.146127
    27  H    0.172762
    28  H    0.156834
    29  H    0.148193
    30  H    0.186492
    31  H    0.150427
    32  H    0.147693
    33  H    0.140562
    34  H    0.134691
    35  H    0.138812
    36  H    0.142595
    37  H    0.137760
    38  H    0.300608
    39  H    0.127436
    40  H    0.135289
    41  H    0.154762
    42  H    0.137591
    43  H    0.139835
 Sum of Mulliken charges =  -0.00000

 Dipole moment (field-independent basis, Debye):
    X=             -2.7203    Y=             -0.1835    Z=              0.2245  Tot=              2.7357
 Quadrupole moment (field-independent basis, Debye-Ang):
   XX=           -114.9675   YY=           -112.5164   ZZ=           -119.3829
   XY=              7.2657   XZ=              2.8473   YZ=             -0.2462

 Normal termination of Gaussian 16 at Fri Nov  4 18:31:01 2022.
