 Gaussian 16, Revision B.01,
 Gaussian 16:  ES64L-G16RevB.01 20-Dec-2017

 -------------------------------------------------------------------
 #p b3lyp/6-31g(d) 6D 10F nosymm GFInput td=(50-50,nstate=2) SCF=XQC
 -------------------------------------------------------------------

 ------------------------------
 Gaussian input prepared by ASE
 ------------------------------
 Symbolic Z-matrix:
 Charge =  0 Multiplicity = 1

                          Input orientation:
 ---------------------------------------------------------------------
 Center     Atomic      Atomic             Coordinates (Angstroms)
 Number     Number       Type             X           Y           Z
 ---------------------------------------------------------------------
      1          6           0        5.570116    0.611938   -0.114068
      2          6           0        5.202019   -0.628217    0.710552
      3          6           0        3.692209   -0.828545    0.923385
      4          6           0        2.924581   -1.156126   -0.369312
      5          7           0        1.500146   -1.412305   -0.178985
      6          6           0        1.097648   -2.696737    0.381731
      7          6           0        0.596299   -0.387828   -0.099472
      8          7           0       -0.629218   -0.527285    0.332307
      9          6           0       -1.332575    0.660148    0.219664
     10          6           0       -0.658211    1.735998   -0.269623
     11         16           0        0.996547    1.261994   -0.653313
     12          6           0       -1.212148    3.122456   -0.427056
     13          6           0       -2.512976    3.241231    0.393977
     14          6           0       -3.432381    2.028688    0.182664
     15          6           0       -2.781710    0.724429    0.678145
     16          7           0       -3.584239   -0.461596    0.342064
     17          6           0       -3.672865   -0.805630   -1.082017
     18          6           0       -4.397463   -2.139819   -1.251639
     19          1           0        6.657598    0.733424   -0.172545
     20          1           0        5.193925    0.552671   -1.141709
     21          1           0        5.156666    1.521923    0.337562
     22          1           0        5.624110   -1.525242    0.234267
     23          1           0        5.682415   -0.556245    1.694871
     24          1           0        3.536407   -1.646970    1.638525
     25          1           0        3.258034    0.071900    1.377765
     26          1           0        3.356254   -2.049643   -0.838368
     27          1           0        3.030442   -0.346109   -1.098997
     28          1           0        1.110592   -2.701135    1.480960
     29          1           0        1.782434   -3.466631    0.014359
     30          1           0        0.081444   -2.928662    0.057961
     31          1           0       -1.417497    3.341405   -1.486354
     32          1           0       -0.488424    3.878467   -0.094512
     33          1           0       -2.257080    3.324567    1.459050
     34          1           0       -3.036494    4.165198    0.120026
     35          1           0       -3.661354    1.944315   -0.887349
     36          1           0       -4.387864    2.166117    0.700968
     37          1           0       -2.774223    0.755261    1.778729
     38          1           0       -3.144843   -1.250644    0.815748
     39          1           0       -2.685677   -0.856906   -1.573387
     40          1           0       -4.243119   -0.023035   -1.596164
     41          1           0       -5.388989   -2.102354   -0.788035
     42          1           0       -3.834839   -2.956263   -0.780499
     43          1           0       -4.515700   -2.388204   -2.312313
 ---------------------------------------------------------------------

 SCF Done:  E(RB3LYP) =  -1110.99414378     A.U. after   16 cycles

 Excitation energies and oscillator strengths:

 Excited state symmetry could not be determined.
 Excited State   1:      Triplet-?Sym    3.2386 eV  382.83 nm  f=0.0000  <S**2>=2.000
      73 -> 74         0.68915
 This state for optimization and/or second-order correction.
 Total Energy, E(TD-HF/TD-DFT) =  -1110.87512741
 Copying the excited state density for this state as the 1-particle RhoCI density.

 Excited state symmetry could not be determined.
 Excited State   2:      Triplet-?Sym    4.2477 eV  291.88 nm  f=0.0000  <S**2>=2.000
      73 -> 75         0.69568

 Excited state symmetry could not be determined.
 Excited State   3:      Singlet-?Sym    4.4784 eV  276.85 nm  f=0.0044  <S**2>=0.000
      73 -> 74         0.14338
      73 -> 75         0.68980

 Excited state symmetry could not be determined.
 Excited State   4:      Singlet-?Sym    4.8970 eV  253.19 nm  f=0.2471  <S**2>=0.000
      73 -> 74         0.68194
      73 -> 75        -0.14126

 Alpha  occ. eigenvalues --  -88.89425 -14.36352 -14.30664 -14.30013 -10.27168
 Alpha  occ. eigenvalues --  -10.22699 -10.21498 -10.20469 -10.19745 -10.19648
 Alpha  occ. eigenvalues --  -10.19095 -10.18989 -10.18929 -10.18783 -10.18182
 Alpha  occ. eigenvalues --  -10.17862 -10.17300 -10.16469  -7.95556  -5.91980
 Alpha  occ. eigenvalues --   -5.91637  -5.91191  -0.97665  -0.91870  -0.88451
 Alpha  occ. eigenvalues --   -0.81602  -0.79802  -0.77442  -0.74035  -0.72935
 Alpha  occ. eigenvalues --   -0.72573  -0.69648  -0.68105  -0.65167  -0.60976
 Alpha  occ. eigenvalues --   -0.59840  -0.58337  -0.57158  -0.54663  -0.52107
 Alpha  occ. eigenvalues --   -0.49346  -0.47698  -0.47029  -0.46405  -0.45614
 Alpha  occ. eigenvalues --   -0.45004  -0.44622  -0.43434  -0.42987  -0.41992
 Alpha  occ. eigenvalues --   -0.41503  -0.40365  -0.39857  -0.39161  -0.38779
 Alpha  occ. eigenvalues --   -0.37777  -0.37347  -0.36916  -0.36237  -0.35087
 Alpha  occ. eigenvalues --   -0.34572  -0.34162  -0.34068  -0.33606  -0.33425
 Alpha  occ. eigenvalues --   -0.32408  -0.31592  -0.30831  -0.27324  -0.25934
 Alpha  occ. eigenvalues --   -0.25542  -0.20821  -0.18407
 Alpha virt. eigenvalues --    0.01036   0.02264   0.06768   0.07692   0.09384
 Alpha virt. eigenvalues --    0.09828   0.10445   0.10900   0.11927   0.12448
 Alpha virt. eigenvalues --    0.13081   0.14161   0.14373   0.15057   0.15427

 Mulliken charges:
               1
     1  C   -0.447575
     2  C   -0.255262
     3  C   -0.255731
     4  C   -0.170874
     5  N   -0.424599
     6  C   -0.301070
     7  C    0.315182
     8  N   -0.547496
     9  C    0.302461
    10  C   -0.172336
    11  S    0.160512
    12  C   -0.313921
    13  C   -0.273625
    14  C   -0.272529
    15  C   -0.030262
    16  N   -0.549448
    17  C   -0.113833
    18  C   -0.454179
    19  H    0.146642
    20  H    0.147068
    21  H    0.150539
    22  H    0.131143
    23  H    0.139520
    24  H    0.138095
    25  H    0.153101
    26  H    0.146126
    27  H    0.172762
    28  H    0.156836
    29  H    0.148195
    30  H    0.186496
    31  H    0.150425
    32  H    0.147690
    33  H    0.140558
    34  H    0.134688
    35  H    0.138818
    36  H    0.142599
    37  H    0.137758
    38  H    0.300611
    39  H    0.127437
    40  H    0.135289
    41  H    0.154762
    42  H    0.137591
    43  H    0.139835
 Sum of Mulliken charges =  -0.00000

 Dipole moment (field-independent basis, Debye):
    X=              2.6836    Y=             -0.5271    Z=             -0.0657  Tot=              2.7357
 Quadrupole moment (field-independent basis, Debye-Ang):
   XX=           -117.3765   YY=           -110.8442   ZZ=           -119.0143
   XY=             -6.3816   XZ=              2.5861   YZ=             -0.2265

 Normal termination of Gaussian 16 at Sat Nov  5 11:13:31 2022.
