 Gaussian 16, Revision B.01,
 Gaussian 16:  ES64L-G16RevB.01 20-Dec-2017

 -------------------------------------------------------------------
 #p b3lyp/6-31g(d) 6D 10F nosymm GFInput td=(50-50,nstate=2) SCF=XQC
 -------------------------------------------------------------------

 ------------------------------
 Gaussian input prepared by ASE
 ------------------------------
 Symbolic Z-matrix:
 Charge =  0 Multiplicity = 1

                          Input orientation:
 ---------------------------------------------------------------------
 Center     Atomic      Atomic             Coordinates (Angstroms)
 Number     Number       Type             X           Y           Z
 ---------------------------------------------------------------------
      1          6           0       -2.148840   -1.812574    0.235639
      2          7           0       -1.794436   -0.400925    0.252485
      3          6           0       -0.451832   -0.027800    0.054602
      4          6           0        0.595545   -0.928231   -0.098977
      5          6           0        1.925605   -0.484352   -0.272009
      6          6           0        2.995312   -1.416026   -0.426063
      7          7           0        3.853416   -2.192750   -0.549920
      8          6           0        2.163262    0.890738   -0.305241
      9          9           0        3.418902    1.338899   -0.480964
     10          6           0        1.140052    1.813360   -0.139784
     11          6           0       -0.168793    1.368954    0.058752
     12          7           0       -1.238397    2.248497    0.216262
     13          1           0       -1.655915   -2.326487    1.067331
     14          1           0       -1.875085   -2.329672   -0.698458
     15          1           0       -3.228935   -1.902072    0.378191
     16          1           0       -2.413966    0.156414   -0.330663
     17          1           0        0.407875   -1.995055   -0.098880
     18          1           0        1.378302    2.872413   -0.144732
     19          1           0       -1.929787    1.917712    0.883711
     20          1           0       -0.972286    3.208955    0.398719
 ---------------------------------------------------------------------

 SCF Done:  E(RB3LYP) =  -573.740782414     A.U. after   15 cycles

 Excitation energies and oscillator strengths:

 Excited state symmetry could not be determined.
 Excited State   1:      Triplet-?Sym    3.0442 eV  407.28 nm  f=0.0000  <S**2>=2.000
      42 -> 44        -0.18451
      43 -> 44         0.65667
      43 -> 45        -0.13055
 This state for optimization and/or second-order correction.
 Total Energy, E(TD-HF/TD-DFT) =  -573.628911150
 Copying the excited state density for this state as the 1-particle RhoCI density.

 Excited state symmetry could not be determined.
 Excited State   2:      Triplet-?Sym    3.7104 eV  334.15 nm  f=0.0000  <S**2>=2.000
      42 -> 44         0.33184
      42 -> 45         0.21165
      43 -> 44         0.23488
      43 -> 45         0.52002

 Excited state symmetry could not be determined.
 Excited State   3:      Singlet-?Sym    4.3227 eV  286.82 nm  f=0.1180  <S**2>=0.000
      42 -> 44         0.19369
      42 -> 45        -0.17040
      43 -> 44         0.63957
      43 -> 45         0.14952

 Excited state symmetry could not be determined.
 Excited State   4:      Singlet-?Sym    5.0250 eV  246.73 nm  f=0.1096  <S**2>=0.000
      42 -> 44         0.35749
      43 -> 44        -0.23971
      43 -> 45         0.54748

 Alpha  occ. eigenvalues --  -24.71420 -14.36640 -14.36165 -14.32166 -10.28577
 Alpha  occ. eigenvalues --  -10.25390 -10.24013 -10.22854 -10.22665 -10.21767
 Alpha  occ. eigenvalues --  -10.21169 -10.20591  -1.22656  -0.96397  -0.92277
 Alpha  occ. eigenvalues --   -0.89265  -0.85739  -0.76975  -0.75834  -0.69971
 Alpha  occ. eigenvalues --   -0.64972  -0.62416  -0.57376  -0.55526  -0.54322
 Alpha  occ. eigenvalues --   -0.50844  -0.48740  -0.47898  -0.46885  -0.45782
 Alpha  occ. eigenvalues --   -0.45373  -0.43471  -0.40587  -0.39975  -0.39029
 Alpha  occ. eigenvalues --   -0.37459  -0.35993  -0.34596  -0.32008  -0.31605
 Alpha  occ. eigenvalues --   -0.29368  -0.24498  -0.20784
 Alpha virt. eigenvalues --   -0.03369  -0.00154   0.04332   0.05801   0.08460
 Alpha virt. eigenvalues --    0.08727   0.09485   0.11697   0.13104   0.14873
 Alpha virt. eigenvalues --    0.15353   0.15796   0.17192   0.18747   0.19596

 Mulliken charges:
               1
     1  C   -0.311816
     2  N   -0.666103
     3  C    0.311957
     4  C   -0.219325
     5  C    0.055606
     6  C    0.243588
     7  N   -0.486210
     8  C    0.351682
     9  F   -0.277956
    10  C   -0.266787
    11  C    0.290136
    12  N   -0.805737
    13  H    0.173021
    14  H    0.151786
    15  H    0.161818
    16  H    0.326311
    17  H    0.157156
    18  H    0.144090
    19  H    0.336222
    20  H    0.330566
 Sum of Mulliken charges =  -0.00000

 Dipole moment (field-independent basis, Debye):
    X=             -6.8095    Y=              3.1704    Z=              1.2562  Tot=              7.6157
 Quadrupole moment (field-independent basis, Debye-Ang):
   XX=            -85.2608   YY=            -63.7219   ZZ=            -69.9539
   XY=             10.9452   XZ=              2.3678   YZ=              1.2075

 Normal termination of Gaussian 16 at Sat Nov  5 11:17:56 2022.
