 Gaussian 16, Revision B.01,
 Gaussian 16:  ES64L-G16RevB.01 20-Dec-2017

 -----------------------------
 #p b3lyp/6-31g(d) opt SCF=XQC
 -----------------------------

 ------------------------------
 Gaussian input prepared by ASE
 ------------------------------
 Symbolic Z-matrix:
 Charge =  0 Multiplicity = 1

 SCF Done:  E(RB3LYP) =  -573.738177128     A.U. after   15 cycles
 SCF Done:  E(RB3LYP) =  -573.740562441     A.U. after   12 cycles
 SCF Done:  E(RB3LYP) =  -573.740731122     A.U. after   11 cycles
 SCF Done:  E(RB3LYP) =  -573.740765065     A.U. after   11 cycles
 SCF Done:  E(RB3LYP) =  -573.740772391     A.U. after    9 cycles
 SCF Done:  E(RB3LYP) =  -573.740779466     A.U. after    9 cycles
 SCF Done:  E(RB3LYP) =  -573.740781632     A.U. after    9 cycles
 SCF Done:  E(RB3LYP) =  -573.740783187     A.U. after    9 cycles
 SCF Done:  E(RB3LYP) =  -573.740783670     A.U. after    8 cycles
 Optimization completed.
    -- Stationary point found.

                         Standard orientation:
 ---------------------------------------------------------------------
 Center     Atomic      Atomic             Coordinates (Angstroms)
 Number     Number       Type             X           Y           Z
 ---------------------------------------------------------------------
      1          6           0        2.722022   -2.122209    0.012197
      2          7           0        2.496524   -0.684569   -0.019130
      3          6           0        1.176734   -0.196066    0.002895
      4          6           0        0.044399   -1.001692   -0.009085
      5          6           0       -1.253483   -0.443541   -0.008278
      6          6           0       -2.410614   -1.278307   -0.023573
      7          7           0       -3.341420   -1.977179   -0.036268
      8          6           0       -1.373842    0.946734    0.025020
      9          9           0       -2.598293    1.502510    0.038729
     10          6           0       -0.261799    1.776747    0.022474
     11          6           0        1.018617    1.220253   -0.006494
     12          7           0        2.171622    2.003148    0.004123
     13          1           0        2.305856   -2.580526   -0.890878
     14          1           0        2.278592   -2.623894    0.887726
     15          1           0        3.799659   -2.305569    0.015976
     16          1           0        3.075598   -0.191323    0.656064
     17          1           0        0.137484   -2.080890   -0.009033
     18          1           0       -0.406131    2.852639    0.020152
     19          1           0        2.917200    1.620146   -0.570637
     20          1           0        2.017103    2.985516   -0.189947
 ---------------------------------------------------------------------

 The electronic state is 1-A.
 Alpha  occ. eigenvalues --  -24.71420 -14.36640 -14.36165 -14.32166 -10.28577
 Alpha  occ. eigenvalues --  -10.25390 -10.24013 -10.22854 -10.22665 -10.21767
 Alpha  occ. eigenvalues --  -10.21169 -10.20591  -1.22656  -0.96397  -0.92277
 Alpha  occ. eigenvalues --   -0.89265  -0.85739  -0.76975  -0.75834  -0.69971
 Alpha  occ. eigenvalues --   -0.64972  -0.62416  -0.57376  -0.55526  -0.54322
 Alpha  occ. eigenvalues --   -0.50844  -0.48740  -0.47898  -0.46885  -0.45782
 Alpha  occ. eigenvalues --   -0.45373  -0.43471  -0.40587  -0.39975  -0.39029
 Alpha  occ. eigenvalues --   -0.37459  -0.35993  -0.34596  -0.32008  -0.31605
 Alpha  occ. eigenvalues --   -0.29368  -0.24498  -0.20784
 Alpha virt. eigenvalues --   -0.03369  -0.00154   0.04332   0.05801   0.08460
 Alpha virt. eigenvalues --    0.08727   0.09485   0.11697   0.13104   0.14873
 Alpha virt. eigenvalues --    0.15353   0.15796   0.17192   0.18747   0.19596

 Mulliken charges:
               1
     1  C   -0.311816
     2  N   -0.666092
     3  C    0.311955
     4  C   -0.219316
     5  C    0.055589
     6  C    0.243591
     7  N   -0.486212
     8  C    0.351686
     9  F   -0.277955
    10  C   -0.266780
    11  C    0.290117
    12  N   -0.805734
    13  H    0.173021
    14  H    0.151786
    15  H    0.161817
    16  H    0.326311
    17  H    0.157156
    18  H    0.144089
    19  H    0.336221
    20  H    0.330566
 Sum of Mulliken charges =  -0.00000

 Dipole moment (field-independent basis, Debye):
    X=              7.1656    Y=              2.5679    Z=             -0.2413  Tot=              7.6157
 Quadrupole moment (field-independent basis, Debye-Ang):
   XX=            -76.8879   YY=            -62.5856   ZZ=            -69.7216
   XY=             -7.6870   XZ=             -0.4628   YZ=             -2.5102

 1\1\GINC-NODE83\FOpt\RB3LYP\6-31G(d)\C8H8F1N3\WYKGROUP\04-Nov-2022\0\\
 #p b3lyp/6-31g(d) opt SCF=XQC\\Gaussian input prepared by ASE\\0,1\C,-
 2.1488399604,-1.812573587,0.2356389864\N,-1.794436491,-0.4009247161,0.
 252484729\C,-0.4518316341,-0.0278003622,0.0546024546\C,0.5955447282,-0
 .9282306056,-0.0989773643\C,1.9256054586,-0.484352402,-0.272009135\C,2
 .9953122009,-1.4160259004,-0.4260633162\N,3.8534159762,-2.1927501149,-
 0.5499195887\C,2.1632620861,0.8907384582,-0.3052410984\F,3.4189016376,
 1.3388989073,-0.4809643225\C,1.140051978,1.8133603292,-0.139783854\C,-

 Normal termination of Gaussian 16 at Fri Nov  4 18:16:53 2022.
