 Gaussian 16, Revision B.01,
 Gaussian 16:  ES64L-G16RevB.01 20-Dec-2017

 -----------------------------
 #p b3lyp/6-31g(d) opt SCF=XQC
 -----------------------------

 ------------------------------
 Gaussian input prepared by ASE
 ------------------------------
 Symbolic Z-matrix:
 Charge =  0 Multiplicity = 1

 SCF Done:  E(RB3LYP) =  -731.632234189     A.U. after   14 cycles
 SCF Done:  E(RB3LYP) =  -731.636173757     A.U. after   12 cycles
 SCF Done:  E(RB3LYP) =  -731.636686314     A.U. after   11 cycles
 SCF Done:  E(RB3LYP) =  -731.637163097     A.U. after   11 cycles
 SCF Done:  E(RB3LYP) =  -731.637289532     A.U. after   11 cycles
 SCF Done:  E(RB3LYP) =  -731.637401606     A.U. after   11 cycles
 SCF Done:  E(RB3LYP) =  -731.637642097     A.U. after   11 cycles
 SCF Done:  E(RB3LYP) =  -731.637731237     A.U. after   11 cycles
 SCF Done:  E(RB3LYP) =  -731.637895306     A.U. after   12 cycles
 SCF Done:  E(RB3LYP) =  -731.638063057     A.U. after   12 cycles
 SCF Done:  E(RB3LYP) =  -731.638126790     A.U. after   11 cycles
 SCF Done:  E(RB3LYP) =  -731.638106822     A.U. after   10 cycles
 SCF Done:  E(RB3LYP) =  -731.638206304     A.U. after   11 cycles
 SCF Done:  E(RB3LYP) =  -731.638258492     A.U. after   12 cycles
 SCF Done:  E(RB3LYP) =  -731.638262925     A.U. after   11 cycles
 SCF Done:  E(RB3LYP) =  -731.638268660     A.U. after   11 cycles
 SCF Done:  E(RB3LYP) =  -731.638268013     A.U. after    8 cycles
 SCF Done:  E(RB3LYP) =  -731.638268755     A.U. after    9 cycles
 SCF Done:  E(RB3LYP) =  -731.638268774     A.U. after    7 cycles
 Optimization completed.
    -- Stationary point found.

                         Standard orientation:
 ---------------------------------------------------------------------
 Center     Atomic      Atomic             Coordinates (Angstroms)
 Number     Number       Type             X           Y           Z
 ---------------------------------------------------------------------
      1          8           0       -0.718628    2.268434   -0.386547
      2          6           0       -0.500041    0.922904   -0.031551
      3          6           0       -1.852639    0.224565   -0.125956
      4          6           0       -2.991155    0.863046    0.383814
      5          6           0       -4.232069    0.229184    0.348681
      6          6           0       -4.351690   -1.051426   -0.196428
      7          6           0       -3.222868   -1.689035   -0.709915
      8          6           0       -1.978967   -1.054166   -0.676191
      9          6           0        0.118538    0.825840    1.378011
     10          6           0        0.727317   -0.554908    1.628655
     11          6           0        1.868656   -0.815763    0.616516
     12          6           0        3.268801   -0.552711    1.202728
     13          6           0        4.340460   -0.560067    0.136534
     14          6           0        4.050474   -0.137312   -1.106296
     15          6           0        2.700521    0.301750   -1.459010
     16          6           0        1.671218    0.015544   -0.640432
     17          8           0        0.384811    0.325349   -1.007719
     18          1           0        0.133478    2.729315   -0.310539
     19          1           0       -2.901906    1.864664    0.792145
     20          1           0       -5.107894    0.738239    0.742569
     21          1           0       -5.319527   -1.545109   -0.224799
     22          1           0       -3.307115   -2.681534   -1.144890
     23          1           0       -1.106078   -1.541544   -1.095720
     24          1           0       -0.654446    1.074197    2.111024
     25          1           0        0.903501    1.591995    1.463700
     26          1           0       -0.055472   -1.315170    1.530971
     27          1           0        1.107517   -0.623742    2.654515
     28          1           0        1.834087   -1.871919    0.300400
     29          1           0        3.272265    0.429474    1.710828
     30          1           0        3.478532   -1.296079    1.980954
     31          1           0        5.352290   -0.847985    0.410234
     32          1           0        4.822680   -0.087523   -1.870606
     33          1           0        2.519288    0.827794   -2.391624
 ---------------------------------------------------------------------

 The electronic state is 1-A.
 Alpha  occ. eigenvalues --  -19.16871 -19.15542 -10.30096 -10.23801 -10.19909
 Alpha  occ. eigenvalues --  -10.19513 -10.19276 -10.19182 -10.19029 -10.18747
 Alpha  occ. eigenvalues --  -10.18689 -10.18660 -10.18537 -10.18511 -10.18227
 Alpha  occ. eigenvalues --  -10.17927 -10.17321  -1.07661  -1.01438  -0.85160
 Alpha  occ. eigenvalues --   -0.83984  -0.80189  -0.76389  -0.74086  -0.73391
 Alpha  occ. eigenvalues --   -0.72678  -0.66040  -0.64347  -0.60773  -0.60179
 Alpha  occ. eigenvalues --   -0.58848  -0.55721  -0.52852  -0.51670  -0.50047
 Alpha  occ. eigenvalues --   -0.49687  -0.47953  -0.45810  -0.45141  -0.43903
 Alpha  occ. eigenvalues --   -0.43226  -0.42674  -0.41690  -0.40937  -0.39953
 Alpha  occ. eigenvalues --   -0.39526  -0.37403  -0.37162  -0.36271  -0.35729
 Alpha  occ. eigenvalues --   -0.35507  -0.34193  -0.33828  -0.33481  -0.31794
 Alpha  occ. eigenvalues --   -0.30183  -0.28598  -0.27952  -0.24616  -0.24410
 Alpha  occ. eigenvalues --   -0.19460
 Alpha virt. eigenvalues --   -0.01492  -0.00221   0.00341   0.07041   0.07978
 Alpha virt. eigenvalues --    0.09920   0.10189   0.11160   0.11621   0.13576
 Alpha virt. eigenvalues --    0.14569   0.15111   0.15362   0.16234   0.16361

 Mulliken charges:
               1
     1  O   -0.622368
     2  C    0.482723
     3  C    0.104266
     4  C   -0.159679
     5  C   -0.137068
     6  C   -0.123682
     7  C   -0.135901
     8  C   -0.169494
     9  C   -0.319733
    10  C   -0.285555
    11  C   -0.147633
    12  C   -0.309259
    13  C   -0.139733
    14  C   -0.111292
    15  C   -0.208600
    16  C    0.352978
    17  O   -0.548849
    18  H    0.394080
    19  H    0.143507
    20  H    0.129601
    21  H    0.128720
    22  H    0.129599
    23  H    0.143372
    24  H    0.160323
    25  H    0.133721
    26  H    0.155997
    27  H    0.144657
    28  H    0.151012
    29  H    0.141633
    30  H    0.141334
    31  H    0.125695
    32  H    0.124797
    33  H    0.130831
 Sum of Mulliken charges =  -0.00000

 Dipole moment (field-independent basis, Debye):
    X=              0.7837    Y=             -0.3015    Z=              2.1012  Tot=              2.2628
 Quadrupole moment (field-independent basis, Debye-Ang):
   XX=            -93.9140   YY=            -95.7084   ZZ=            -99.5419
   XY=              3.3934   XZ=             -1.0224   YZ=              2.4176

 1\1\GINC-NODE83\FOpt\RB3LYP\6-31G(d)\C15H16O2\WYKGROUP\04-Nov-2022\0\\
 #p b3lyp/6-31g(d) opt SCF=XQC\\Gaussian input prepared by ASE\\0,1\O,0
 .88197885,0.0431013705,2.4140615216\C,0.6348710413,0.0925181175,1.0281
 510326\C,1.9982958656,0.0945860878,0.3446474414\C,3.0224069255,0.90062
 79107,0.8596584136\C,4.2645218286,0.9536130314,0.2294018247\C,4.499709
 4986,0.2016640362,-0.9241473246\C,3.48575825,-0.6061803424,-1.43770649
 65\C,2.2409125717,-0.6608356229,-0.8061545494\C,-0.2081776053,1.333414
 6389,0.6698601193\C,-0.8217807884,1.209728361,-0.7258801518\C,-1.77257

 Normal termination of Gaussian 16 at Fri Nov  4 18:27:40 2022.
