 Gaussian 16, Revision B.01,
 Gaussian 16:  ES64L-G16RevB.01 20-Dec-2017

 -------------------------------------------------------------------
 #p b3lyp/6-31g(d) 6D 10F nosymm GFInput td=(50-50,nstate=2) SCF=XQC
 -------------------------------------------------------------------

 ------------------------------
 Gaussian input prepared by ASE
 ------------------------------
 Symbolic Z-matrix:
 Charge =  0 Multiplicity = 1

                          Input orientation:
 ---------------------------------------------------------------------
 Center     Atomic      Atomic             Coordinates (Angstroms)
 Number     Number       Type             X           Y           Z
 ---------------------------------------------------------------------
      1          8           0        0.881979    0.043101    2.414062
      2          6           0        0.634871    0.092518    1.028151
      3          6           0        1.998296    0.094586    0.344647
      4          6           0        3.022407    0.900628    0.859658
      5          6           0        4.264522    0.953613    0.229402
      6          6           0        4.499709    0.201664   -0.924147
      7          6           0        3.485758   -0.606180   -1.437706
      8          6           0        2.240913   -0.660836   -0.806155
      9          6           0       -0.208178    1.333415    0.669860
     10          6           0       -0.821781    1.209728   -0.725880
     11          6           0       -1.772574   -0.010441   -0.773873
     12          6           0       -3.256024    0.371932   -0.611339
     13          6           0       -4.134310   -0.840364   -0.401029
     14          6           0       -3.649689   -1.912861    0.248842
     15          6           0       -2.269102   -1.943602    0.731118
     16          6           0       -1.385213   -1.034008    0.280753
     17          8           0       -0.062182   -1.114212    0.639746
     18          1           0        0.019862    0.061794    2.862032
     19          1           0        2.845715    1.472053    1.765303
     20          1           0        5.051681    1.578777    0.642807
     21          1           0        5.468632    0.242182   -1.414845
     22          1           0        3.661779   -1.202469   -2.329228
     23          1           0        1.460483   -1.306161   -1.193402
     24          1           0        0.426352    2.219462    0.763594
     25          1           0       -1.011990    1.431095    1.414741
     26          1           0       -0.018231    1.101210   -1.462651
     27          1           0       -1.366381    2.124922   -0.985710
     28          1           0       -1.664056   -0.512281   -1.750074
     29          1           0       -3.364406    1.050518    0.255054
     30          1           0       -3.577403    0.947268   -1.487650
     31          1           0       -5.171504   -0.800428   -0.723896
     32          1           0       -4.284349   -2.772045    0.453687
     33          1           0       -1.945585   -2.714578    1.424131
 ---------------------------------------------------------------------

 SCF Done:  E(RB3LYP) =  -731.638275200     A.U. after   14 cycles

 Excitation energies and oscillator strengths:

 Excited state symmetry could not be determined.
 Excited State   1:      Triplet-?Sym    2.4411 eV  507.91 nm  f=0.0000  <S**2>=2.000
      61 -> 62         0.70284
      61 <- 62         0.13588
 This state for optimization and/or second-order correction.
 Total Energy, E(TD-HF/TD-DFT) =  -731.548567783
 Copying the excited state density for this state as the 1-particle RhoCI density.

 Excited state symmetry could not be determined.
 Excited State   2:      Triplet-?Sym    3.7577 eV  329.94 nm  f=0.0000  <S**2>=2.000
      59 -> 64         0.46074
      60 -> 63         0.52855

 Excited state symmetry could not be determined.
 Excited State   3:      Singlet-?Sym    4.5499 eV  272.50 nm  f=0.2284  <S**2>=0.000
      61 -> 62         0.70199

 Excited state symmetry could not be determined.
 Excited State   4:      Singlet-?Sym    4.6833 eV  264.74 nm  f=0.0003  <S**2>=0.000
      61 -> 63         0.70379

 Alpha  occ. eigenvalues --  -19.16871 -19.15542 -10.30096 -10.23801 -10.19909
 Alpha  occ. eigenvalues --  -10.19513 -10.19276 -10.19182 -10.19029 -10.18747
 Alpha  occ. eigenvalues --  -10.18689 -10.18660 -10.18537 -10.18511 -10.18227
 Alpha  occ. eigenvalues --  -10.17927 -10.17321  -1.07661  -1.01438  -0.85160
 Alpha  occ. eigenvalues --   -0.83984  -0.80189  -0.76389  -0.74086  -0.73391
 Alpha  occ. eigenvalues --   -0.72678  -0.66040  -0.64347  -0.60773  -0.60179
 Alpha  occ. eigenvalues --   -0.58848  -0.55721  -0.52852  -0.51670  -0.50047
 Alpha  occ. eigenvalues --   -0.49687  -0.47953  -0.45810  -0.45141  -0.43903
 Alpha  occ. eigenvalues --   -0.43226  -0.42674  -0.41690  -0.40937  -0.39953
 Alpha  occ. eigenvalues --   -0.39526  -0.37403  -0.37162  -0.36271  -0.35729
 Alpha  occ. eigenvalues --   -0.35507  -0.34193  -0.33828  -0.33481  -0.31794
 Alpha  occ. eigenvalues --   -0.30183  -0.28598  -0.27952  -0.24616  -0.24410
 Alpha  occ. eigenvalues --   -0.19460
 Alpha virt. eigenvalues --   -0.01492  -0.00221   0.00341   0.07041   0.07978
 Alpha virt. eigenvalues --    0.09920   0.10189   0.11160   0.11621   0.13576
 Alpha virt. eigenvalues --    0.14569   0.15111   0.15362   0.16234   0.16361

 Mulliken charges:
               1
     1  O   -0.622369
     2  C    0.482735
     3  C    0.104238
     4  C   -0.159673
     5  C   -0.137064
     6  C   -0.123688
     7  C   -0.135904
     8  C   -0.169476
     9  C   -0.319733
    10  C   -0.285546
    11  C   -0.147628
    12  C   -0.309269
    13  C   -0.139725
    14  C   -0.111305
    15  C   -0.208562
    16  C    0.352933
    17  O   -0.548851
    18  H    0.394081
    19  H    0.143508
    20  H    0.129601
    21  H    0.128721
    22  H    0.129599
    23  H    0.143373
    24  H    0.160324
    25  H    0.133720
    26  H    0.155996
    27  H    0.144655
    28  H    0.151015
    29  H    0.141634
    30  H    0.141334
    31  H    0.125696
    32  H    0.124798
    33  H    0.130833
 Sum of Mulliken charges =  -0.00000

 Dipole moment (field-independent basis, Debye):
    X=             -1.1171    Y=              1.8430    Z=             -0.6897  Tot=              2.2628
 Quadrupole moment (field-independent basis, Debye-Ang):
   XX=            -94.6016   YY=            -98.7412   ZZ=            -96.8437
   XY=              1.5489   XZ=             -4.2495   YZ=              2.6383

 Normal termination of Gaussian 16 at Sat Nov  5 11:14:01 2022.
