 Gaussian 16, Revision B.01,
 Gaussian 16:  ES64L-G16RevB.01 20-Dec-2017

 -----------------------------
 #p b3lyp/6-31g(d) opt SCF=XQC
 -----------------------------

 ------------------------------
 Gaussian input prepared by ASE
 ------------------------------
 Symbolic Z-matrix:
 Charge =  0 Multiplicity = 1

 SCF Done:  E(RB3LYP) =  -1395.05154943     A.U. after   15 cycles
 SCF Done:  E(RB3LYP) =  -1395.05596116     A.U. after   13 cycles
 SCF Done:  E(RB3LYP) =  -1395.04917851     A.U. after   13 cycles
 SCF Done:  E(RB3LYP) =  -1395.05819663     A.U. after   12 cycles
 SCF Done:  E(RB3LYP) =  -1395.05961280     A.U. after   12 cycles
 SCF Done:  E(RB3LYP) =  -1395.05977364     A.U. after   12 cycles
 SCF Done:  E(RB3LYP) =  -1395.05999914     A.U. after   11 cycles
 SCF Done:  E(RB3LYP) =  -1395.06015538     A.U. after   12 cycles
 SCF Done:  E(RB3LYP) =  -1395.06023167     A.U. after   11 cycles
 SCF Done:  E(RB3LYP) =  -1395.06024717     A.U. after   11 cycles
 SCF Done:  E(RB3LYP) =  -1395.06035212     A.U. after    9 cycles
 SCF Done:  E(RB3LYP) =  -1395.06035391     A.U. after    9 cycles
 SCF Done:  E(RB3LYP) =  -1395.06035439     A.U. after    9 cycles
 SCF Done:  E(RB3LYP) =  -1395.06035500     A.U. after    9 cycles
 SCF Done:  E(RB3LYP) =  -1395.06035549     A.U. after    9 cycles
 SCF Done:  E(RB3LYP) =  -1395.06035552     A.U. after    7 cycles
 SCF Done:  E(RB3LYP) =  -1395.06035554     A.U. after    7 cycles
 SCF Done:  E(RB3LYP) =  -1395.06035555     A.U. after    7 cycles
 SCF Done:  E(RB3LYP) =  -1395.06035557     A.U. after    7 cycles
 SCF Done:  E(RB3LYP) =  -1395.06035557     A.U. after    6 cycles
 Optimization completed.
    -- Stationary point found.

                         Standard orientation:
 ---------------------------------------------------------------------
 Center     Atomic      Atomic             Coordinates (Angstroms)
 Number     Number       Type             X           Y           Z
 ---------------------------------------------------------------------
      1          6           0        0.562541    4.370538    0.322979
      2          7           0        0.735488    2.939744    0.036379
      3          6           0       -0.362381    2.228145   -0.462454
      4          8           0       -1.443640    2.818241   -0.624425
      5          6           0       -0.148011    0.822748   -0.769167
      6          6           0       -1.229846   -0.016940   -1.342173
      7          8           0       -1.027516   -1.235971   -1.593243
      8          7           0       -2.418989    0.555685   -1.604393
      9          6           0       -3.548529   -0.204379   -2.079678
     10          6           0       -4.548013   -0.682570   -1.018273
     11          8           0       -5.605106   -1.185710   -1.337974
     12          8           0       -4.098368   -0.484205    0.225805
     13          6           0       -4.878731   -0.898589    1.412360
     14          6           0       -3.968799   -0.478943    2.568808
     15          6           0       -5.078974   -2.417075    1.395615
     16          6           0       -6.205215   -0.133555    1.453746
     17          6           0        1.089985    0.218842   -0.536953
     18          8           0        1.304821   -1.050928   -0.825562
     19          6           0        2.191055    0.978618    0.023101
     20          6           0        3.484986    0.455894    0.295924
     21          6           0        3.882214   -0.980302    0.179286
     22          6           0        4.754392   -1.359216   -0.766250
     23          6           0        5.239805   -2.775070   -0.950045
     24          6           0        4.421439   -3.782299   -0.129187
     25          6           0        4.171357   -3.244432    1.284355
     26          6           0        3.362474   -1.938593    1.239097
     27          6           0        4.455489    1.351640    0.749918
     28          6           0        4.128893    2.694426    0.935952
     29          7           0        2.920196    3.201403    0.713722
     30          6           0        1.973734    2.364027    0.262932
     31          1           0        0.785124    4.569992    1.373157
     32          1           0        1.246850    4.959775   -0.291073
     33          1           0       -0.470437    4.619651    0.094540
     34          1           0       -2.511936    1.527567   -1.304643
     35          1           0       -3.178166   -1.096381   -2.592184
     36          1           0       -4.116471    0.383491   -2.807507
     37          1           0       -3.004992   -0.994494    2.508376
     38          1           0       -4.438079   -0.730140    3.525901
     39          1           0       -3.784839    0.599928    2.544109
     40          1           0       -4.113873   -2.927230    1.305427
     41          1           0       -5.719570   -2.722873    0.566937
     42          1           0       -5.544801   -2.733502    2.335725
     43          1           0       -6.723326   -0.353423    2.394006
     44          1           0       -6.024395    0.946108    1.411015
     45          1           0       -6.852321   -0.418032    0.622557
     46          1           0        0.409783   -1.396529   -1.203119
     47          1           0        5.125485   -0.617505   -1.472833
     48          1           0        5.206157   -3.035274   -2.016928
     49          1           0        6.303718   -2.832483   -0.668092
     50          1           0        3.456448   -3.953830   -0.624593
     51          1           0        4.938108   -4.748868   -0.092574
     52          1           0        3.640311   -3.985147    1.894360
     53          1           0        5.136679   -3.062421    1.777585
     54          1           0        2.305617   -2.153652    1.041392
     55          1           0        3.396154   -1.443089    2.219328
     56          1           0        5.454964    0.993682    0.971101
     57          1           0        4.880236    3.397943    1.291910
 ---------------------------------------------------------------------

 The electronic state is 1-A.
 Alpha  occ. eigenvalues --  -19.18566 -19.17802 -19.13088 -19.12963 -19.12492
 Alpha  occ. eigenvalues --  -14.39453 -14.35712 -14.34174 -10.31366 -10.30418
 Alpha  occ. eigenvalues --  -10.30156 -10.28935 -10.28332 -10.25802 -10.24141
 Alpha  occ. eigenvalues --  -10.23272 -10.23144 -10.22318 -10.21398 -10.20667
 Alpha  occ. eigenvalues --  -10.20308 -10.19823 -10.18744 -10.18645 -10.18569
 Alpha  occ. eigenvalues --  -10.18269 -10.18109 -10.17950 -10.17548 -10.17472
 Alpha  occ. eigenvalues --   -1.09349  -1.08248  -1.04925  -1.03578  -1.01029
 Alpha  occ. eigenvalues --   -0.99042  -0.93046  -0.92464  -0.85548  -0.82985
 Alpha  occ. eigenvalues --   -0.81292  -0.80246  -0.77435  -0.74584  -0.74217
 Alpha  occ. eigenvalues --   -0.73426  -0.71343  -0.69424  -0.69279  -0.67991
 Alpha  occ. eigenvalues --   -0.65397  -0.62974  -0.62612  -0.61601  -0.59893
 Alpha  occ. eigenvalues --   -0.59245  -0.57351  -0.56137  -0.54334  -0.52210
 Alpha  occ. eigenvalues --   -0.50896  -0.50605  -0.50247  -0.49476  -0.48556
 Alpha  occ. eigenvalues --   -0.48082  -0.47455  -0.46781  -0.46115  -0.45740
 Alpha  occ. eigenvalues --   -0.45419  -0.44452  -0.44355  -0.43785  -0.43410
 Alpha  occ. eigenvalues --   -0.43351  -0.42598  -0.42333  -0.41992  -0.41087
 Alpha  occ. eigenvalues --   -0.40940  -0.40423  -0.39895  -0.39282  -0.39083
 Alpha  occ. eigenvalues --   -0.38991  -0.38913  -0.38592  -0.38256  -0.37879
 Alpha  occ. eigenvalues --   -0.37237  -0.36750  -0.36658  -0.35224  -0.34423
 Alpha  occ. eigenvalues --   -0.33007  -0.32774  -0.32052  -0.31631  -0.31264
 Alpha  occ. eigenvalues --   -0.29556  -0.29434  -0.28583  -0.28131  -0.27257
 Alpha  occ. eigenvalues --   -0.26733  -0.25630  -0.24337  -0.23797  -0.23320
 Alpha virt. eigenvalues --   -0.07063  -0.02705   0.00500   0.01539   0.02083
 Alpha virt. eigenvalues --    0.02443   0.08531   0.08928   0.09754   0.10861
 Alpha virt. eigenvalues --    0.10976   0.11707   0.12571   0.12762   0.13282

 Mulliken charges:
               1
     1  C   -0.316405
     2  N   -0.571306
     3  C    0.606835
     4  O   -0.580837
     5  C   -0.094095
     6  C    0.639842
     7  O   -0.631242
     8  N   -0.614544
     9  C   -0.237885
    10  C    0.638685
    11  O   -0.484306
    12  O   -0.481659
    13  C    0.307024
    14  C   -0.451476
    15  C   -0.466951
    16  C   -0.466716
    17  C    0.288903
    18  O   -0.641664
    19  C    0.070597
    20  C    0.036042
    21  C    0.117425
    22  C   -0.147569
    23  C   -0.296095
    24  C   -0.264424
    25  C   -0.267310
    26  C   -0.323675
    27  C   -0.191306
    28  C    0.056997
    29  N   -0.513619
    30  C    0.475780
    31  H    0.175472
    32  H    0.176643
    33  H    0.205692
    34  H    0.385215
    35  H    0.218499
    36  H    0.186864
    37  H    0.156356
    38  H    0.145409
    39  H    0.157796
    40  H    0.153459
    41  H    0.186862
    42  H    0.143580
    43  H    0.144341
    44  H    0.149707
    45  H    0.186915
    46  H    0.463274
    47  H    0.125013
    48  H    0.146808
    49  H    0.143497
    50  H    0.146943
    51  H    0.132078
    52  H    0.134968
    53  H    0.133567
    54  H    0.171804
    55  H    0.139060
    56  H    0.144382
    57  H    0.150753
 Sum of Mulliken charges =  -0.00000

 Dipole moment (field-independent basis, Debye):
    X=              3.3342    Y=              0.4987    Z=              2.5238  Tot=              4.2113
 Quadrupole moment (field-independent basis, Debye-Ang):
   XX=           -168.5727   YY=           -174.7300   ZZ=           -171.4102
   XY=             -3.6677   XZ=             -8.5107   YZ=             -3.7865

 Normal termination of Gaussian 16 at Fri Nov  4 19:08:34 2022.
