 Gaussian 16, Revision B.01,
 Gaussian 16:  ES64L-G16RevB.01 20-Dec-2017

 -------------------------------------------------------------------
 #p b3lyp/6-31g(d) 6D 10F nosymm GFInput td=(50-50,nstate=2) SCF=XQC
 -------------------------------------------------------------------

 ------------------------------
 Gaussian input prepared by ASE
 ------------------------------
 Symbolic Z-matrix:
 Charge =  0 Multiplicity = 1

                          Input orientation:
 ---------------------------------------------------------------------
 Center     Atomic      Atomic             Coordinates (Angstroms)
 Number     Number       Type             X           Y           Z
 ---------------------------------------------------------------------
      1          6           0        0.315120   -4.652040   -0.220162
      2          7           0       -0.149109   -3.265742   -0.368124
      3          6           0        0.738622   -2.325112   -0.904477
      4          8           0        1.886864   -2.684148   -1.214639
      5          6           0        0.236482   -0.970346   -1.070711
      6          6           0        1.076944    0.097444   -1.668394
      7          8           0        0.626977    1.268427   -1.796218
      8          7           0        2.316667   -0.217183   -2.086506
      9          6           0        3.228881    0.775464   -2.598338
     10          6           0        4.229954    1.366959   -1.597239
     11          8           0        5.135508    2.083959   -1.969645
     12          8           0        3.959962    1.005103   -0.338103
     13          6           0        4.772110    1.483780    0.802019
     14          6           0        4.084048    0.822347    1.998065
     15          6           0        4.685000    3.010211    0.894737
     16          6           0        6.213962    0.987423    0.656265
     17          6           0       -1.059953   -0.632544   -0.675229
     18          8           0       -1.535526    0.588157   -0.834872
     19          6           0       -1.935372   -1.624950   -0.081894
     20          6           0       -3.267105   -1.380050    0.352208
     21          6           0       -3.933328   -0.042720    0.394030
     22          6           0       -4.956265    0.221959   -0.431713
     23          6           0       -5.712033    1.526768   -0.450097
     24          6           0       -5.011418    2.617057    0.373585
     25          6           0       -4.516947    2.046470    1.707703
     26          6           0       -3.489933    0.926586    1.478235
     27          6           0       -4.001113   -2.473538    0.816818
     28          6           0       -3.413780   -3.737528    0.858231
     29          7           0       -2.162839   -3.986717    0.483517
     30          6           0       -1.441176   -2.955218    0.019391
     31          1           0        0.246490   -4.958610    0.825545
     32          1           0       -0.309827   -5.320725   -0.815846
     33          1           0        1.346023   -4.682177   -0.563114
     34          1           0        2.619233   -1.170409   -1.879485
     35          1           0        2.647401    1.610926   -2.997568
     36          1           0        3.814928    0.356641   -3.422365
     37          1           0        3.040639    1.145499    2.070451
     38          1           0        4.598027    1.096297    2.925496
     39          1           0        4.101311   -0.267812    1.899728
     40          1           0        3.638154    3.329769    0.937265
     41          1           0        5.165931    3.486958    0.039167
     42          1           0        5.181726    3.348470    1.811126
     43          1           0        6.779648    1.241198    1.559851
     44          1           0        6.232518   -0.101731    0.539680
     45          1           0        6.704932    1.444712   -0.204191
     46          1           0       -0.765307    1.123475   -1.262986
     47          1           0       -5.256869   -0.529682   -1.160945
     48          1           0       -5.841002    1.857530   -1.489827
     49          1           0       -6.731986    1.359765   -0.067330
     50          1           0       -4.153213    3.003085   -0.192562
     51          1           0       -5.691106    3.461580    0.538952
     52          1           0       -4.070186    2.834226    2.326268
     53          1           0       -5.373767    1.650259    2.270841
     54          1           0       -2.518308    1.353526    1.202642
     55          1           0       -3.326695    0.371075    2.412189
     56          1           0       -5.020197   -2.329904    1.158641
     57          1           0       -3.979697   -4.594215    1.221526
 ---------------------------------------------------------------------

 SCF Done:  E(RB3LYP) =  -1395.06036349     A.U. after   15 cycles

 Excitation energies and oscillator strengths:

 Excited state symmetry could not be determined.
 Excited State   1:      Triplet-?Sym    3.0453 eV  407.13 nm  f=0.0000  <S**2>=2.000
     107 ->111        -0.22898
     110 ->111         0.63091
 This state for optimization and/or second-order correction.
 Total Energy, E(TD-HF/TD-DFT) =  -1394.94844947
 Copying the excited state density for this state as the 1-particle RhoCI density.

 Excited state symmetry could not be determined.
 Excited State   2:      Triplet-?Sym    3.3008 eV  375.62 nm  f=0.0000  <S**2>=2.000
     107 ->111         0.22610
     108 ->111         0.21031
     109 ->111         0.61425

 Excited state symmetry could not be determined.
 Excited State   3:      Singlet-?Sym    3.7577 eV  329.95 nm  f=0.0759  <S**2>=0.000
     108 ->111         0.28232
     109 ->111        -0.39591
     110 ->111         0.49595

 Excited state symmetry could not be determined.
 Excited State   4:      Singlet-?Sym    3.9302 eV  315.46 nm  f=0.1360  <S**2>=0.000
     109 ->111         0.55158
     110 ->111         0.41270

 Alpha  occ. eigenvalues --  -19.18566 -19.17802 -19.13088 -19.12963 -19.12492
 Alpha  occ. eigenvalues --  -14.39453 -14.35712 -14.34174 -10.31366 -10.30418
 Alpha  occ. eigenvalues --  -10.30156 -10.28935 -10.28332 -10.25802 -10.24141
 Alpha  occ. eigenvalues --  -10.23272 -10.23144 -10.22318 -10.21398 -10.20667
 Alpha  occ. eigenvalues --  -10.20308 -10.19823 -10.18744 -10.18645 -10.18569
 Alpha  occ. eigenvalues --  -10.18269 -10.18109 -10.17950 -10.17548 -10.17472
 Alpha  occ. eigenvalues --   -1.09349  -1.08248  -1.04925  -1.03578  -1.01029
 Alpha  occ. eigenvalues --   -0.99042  -0.93046  -0.92464  -0.85548  -0.82985
 Alpha  occ. eigenvalues --   -0.81292  -0.80246  -0.77435  -0.74584  -0.74217
 Alpha  occ. eigenvalues --   -0.73426  -0.71343  -0.69424  -0.69279  -0.67992
 Alpha  occ. eigenvalues --   -0.65397  -0.62974  -0.62613  -0.61601  -0.59893
 Alpha  occ. eigenvalues --   -0.59245  -0.57351  -0.56137  -0.54334  -0.52210
 Alpha  occ. eigenvalues --   -0.50896  -0.50605  -0.50247  -0.49476  -0.48556
 Alpha  occ. eigenvalues --   -0.48083  -0.47455  -0.46781  -0.46115  -0.45740
 Alpha  occ. eigenvalues --   -0.45419  -0.44452  -0.44355  -0.43785  -0.43410
 Alpha  occ. eigenvalues --   -0.43351  -0.42598  -0.42333  -0.41992  -0.41087
 Alpha  occ. eigenvalues --   -0.40940  -0.40423  -0.39895  -0.39282  -0.39084
 Alpha  occ. eigenvalues --   -0.38991  -0.38913  -0.38592  -0.38256  -0.37879
 Alpha  occ. eigenvalues --   -0.37237  -0.36750  -0.36658  -0.35224  -0.34423
 Alpha  occ. eigenvalues --   -0.33007  -0.32774  -0.32052  -0.31631  -0.31264
 Alpha  occ. eigenvalues --   -0.29556  -0.29434  -0.28583  -0.28131  -0.27257
 Alpha  occ. eigenvalues --   -0.26733  -0.25630  -0.24337  -0.23797  -0.23320
 Alpha virt. eigenvalues --   -0.07063  -0.02705   0.00500   0.01539   0.02083
 Alpha virt. eigenvalues --    0.02443   0.08531   0.08927   0.09754   0.10861
 Alpha virt. eigenvalues --    0.10976   0.11707   0.12571   0.12762   0.13282

 Mulliken charges:
               1
     1  C   -0.316406
     2  N   -0.571272
     3  C    0.606735
     4  O   -0.580820
     5  C   -0.094008
     6  C    0.639842
     7  O   -0.631251
     8  N   -0.614544
     9  C   -0.237869
    10  C    0.638655
    11  O   -0.484296
    12  O   -0.481647
    13  C    0.307021
    14  C   -0.451484
    15  C   -0.466950
    16  C   -0.466715
    17  C    0.288857
    18  O   -0.641668
    19  C    0.070605
    20  C    0.036087
    21  C    0.117424
    22  C   -0.147572
    23  C   -0.296087
    24  C   -0.264425
    25  C   -0.267324
    26  C   -0.323671
    27  C   -0.191329
    28  C    0.057016
    29  N   -0.513626
    30  C    0.475756
    31  H    0.175472
    32  H    0.176644
    33  H    0.205692
    34  H    0.385214
    35  H    0.218495
    36  H    0.186863
    37  H    0.156358
    38  H    0.145411
    39  H    0.157799
    40  H    0.153461
    41  H    0.186863
    42  H    0.143580
    43  H    0.144341
    44  H    0.149708
    45  H    0.186915
    46  H    0.463273
    47  H    0.125012
    48  H    0.146807
    49  H    0.143496
    50  H    0.146942
    51  H    0.132079
    52  H    0.134970
    53  H    0.133570
    54  H    0.171806
    55  H    0.139060
    56  H    0.144384
    57  H    0.150752
 Sum of Mulliken charges =  -0.00000

 Dipole moment (field-independent basis, Debye):
    X=             -2.8961    Y=             -1.2947    Z=              2.7697  Tot=              4.2113
 Quadrupole moment (field-independent basis, Debye-Ang):
   XX=           -165.9925   YY=           -175.9369   ZZ=           -173.5232
   XY=             -1.4921   XZ=              7.6465   YZ=              4.8993

 Normal termination of Gaussian 16 at Sat Nov  5 11:22:16 2022.
