 Gaussian 16, Revision B.01,
 Gaussian 16:  ES64L-G16RevB.01 20-Dec-2017

 -----------------------------
 #p b3lyp/6-31g(d) opt SCF=XQC
 -----------------------------

 ------------------------------
 Gaussian input prepared by ASE
 ------------------------------
 Symbolic Z-matrix:
 Charge =  0 Multiplicity = 1

 SCF Done:  E(RB3LYP) =  -1259.97586153     A.U. after   15 cycles
 SCF Done:  E(RB3LYP) =  -1259.97973916     A.U. after   12 cycles
 SCF Done:  E(RB3LYP) =  -1259.98024208     A.U. after   11 cycles
 SCF Done:  E(RB3LYP) =  -1259.98045190     A.U. after   12 cycles
 SCF Done:  E(RB3LYP) =  -1259.98054423     A.U. after   11 cycles
 SCF Done:  E(RB3LYP) =  -1259.98060247     A.U. after   11 cycles
 SCF Done:  E(RB3LYP) =  -1259.98062694     A.U. after   11 cycles
 SCF Done:  E(RB3LYP) =  -1259.98063361     A.U. after    9 cycles
 SCF Done:  E(RB3LYP) =  -1259.98063739     A.U. after    9 cycles
 SCF Done:  E(RB3LYP) =  -1259.98063852     A.U. after    9 cycles
 SCF Done:  E(RB3LYP) =  -1259.98063873     A.U. after    8 cycles
 SCF Done:  E(RB3LYP) =  -1259.98063890     A.U. after    8 cycles
 SCF Done:  E(RB3LYP) =  -1259.98063906     A.U. after    8 cycles
 SCF Done:  E(RB3LYP) =  -1259.98063922     A.U. after    8 cycles
 SCF Done:  E(RB3LYP) =  -1259.98063932     A.U. after    8 cycles
 SCF Done:  E(RB3LYP) =  -1259.98063936     A.U. after    7 cycles
 Optimization completed.
    -- Stationary point found.

                         Standard orientation:
 ---------------------------------------------------------------------
 Center     Atomic      Atomic             Coordinates (Angstroms)
 Number     Number       Type             X           Y           Z
 ---------------------------------------------------------------------
      1          8           0       -0.388958   -1.872633   -0.406456
      2          6           0        0.001532   -0.741451   -0.141575
      3          6           0        1.432907   -0.397933   -0.058473
      4         16           0        2.721360   -1.561194   -0.175945
      5          6           0        3.854376   -0.230918   -0.097179
      6          6           0        5.354617   -0.390960   -0.180114
      7          8           0        6.018813    0.742789    0.324368
      8          7           0        3.315297    0.958881   -0.003702
      9          6           0        1.946656    0.868609    0.021894
     10          6           0        1.016370    2.041856    0.086081
     11          6           0       -0.317361    1.584731    0.686829
     12          7           0       -0.838255    0.348510    0.059346
     13          6           0       -2.260133    0.168738    0.028377
     14          6           0       -3.039545    1.059171   -0.719764
     15          6           0       -4.428599    0.945783   -0.740138
     16          6           0       -5.022953   -0.082516   -0.018655
     17          9           0       -6.366400   -0.204803   -0.038747
     18          6           0       -4.272502   -0.990036    0.720105
     19          6           0       -2.885657   -0.857713    0.747444
     20          1           0        5.623833   -0.581786   -1.234506
     21          1           0        5.679755   -1.266165    0.394773
     22          1           0        5.415450    1.495048    0.186814
     23          1           0        1.441852    2.841335    0.701811
     24          1           0        0.866274    2.454296   -0.922036
     25          1           0       -0.192499    1.417300    1.767474
     26          1           0       -1.074077    2.360999    0.564176
     27          1           0       -2.554398    1.839341   -1.299434
     28          1           0       -5.046025    1.628177   -1.314583
     29          1           0       -4.774497   -1.781802    1.266139
     30          1           0       -2.286194   -1.561569    1.311433
 ---------------------------------------------------------------------

 The electronic state is 1-A.
 Alpha  occ. eigenvalues --  -88.93313 -24.70744 -19.14849 -19.12449 -14.38059
 Alpha  occ. eigenvalues --  -14.35712 -10.30544 -10.27713 -10.27617 -10.25788
 Alpha  occ. eigenvalues --  -10.24903 -10.24830 -10.23853 -10.23375 -10.21978
 Alpha  occ. eigenvalues --  -10.20897 -10.20490 -10.20455 -10.20239  -7.99385
 Alpha  occ. eigenvalues --   -5.95779  -5.95426  -5.95094  -1.21910  -1.04552
 Alpha  occ. eigenvalues --   -1.03114  -0.98321  -0.95496  -0.86716  -0.82330
 Alpha  occ. eigenvalues --   -0.81680  -0.76677  -0.76304  -0.74983  -0.70987
 Alpha  occ. eigenvalues --   -0.66214  -0.64631  -0.63182  -0.60641  -0.57377
 Alpha  occ. eigenvalues --   -0.55422  -0.54140  -0.53097  -0.51630  -0.50000
 Alpha  occ. eigenvalues --   -0.49219  -0.48103  -0.46457  -0.46156  -0.45676
 Alpha  occ. eigenvalues --   -0.45457  -0.44150  -0.43849  -0.42744  -0.42481
 Alpha  occ. eigenvalues --   -0.42282  -0.40628  -0.39976  -0.38571  -0.37989
 Alpha  occ. eigenvalues --   -0.37059  -0.36292  -0.35349  -0.34728  -0.30717
 Alpha  occ. eigenvalues --   -0.29868  -0.27916  -0.27797  -0.27017  -0.25996
 Alpha  occ. eigenvalues --   -0.25424  -0.23041
 Alpha virt. eigenvalues --   -0.06338  -0.01666  -0.00856   0.00682   0.00881
 Alpha virt. eigenvalues --    0.06330   0.07677   0.08936   0.09418   0.10922
 Alpha virt. eigenvalues --    0.11818   0.12032   0.13164   0.13821   0.14738

 Mulliken charges:
               1
     1  O   -0.516429
     2  C    0.613534
     3  C   -0.256997
     4  S    0.292572
     5  C    0.073688
     6  C   -0.054725
     7  O   -0.617757
     8  N   -0.504106
     9  C    0.319719
    10  C   -0.335496
    11  C   -0.149818
    12  N   -0.566044
    13  C    0.281183
    14  C   -0.153783
    15  C   -0.208217
    16  C    0.387426
    17  F   -0.296202
    18  C   -0.214864
    19  C   -0.119177
    20  H    0.158339
    21  H    0.167063
    22  H    0.414499
    23  H    0.174450
    24  H    0.174365
    25  H    0.163476
    26  H    0.167384
    27  H    0.140520
    28  H    0.150640
    29  H    0.153390
    30  H    0.161369
 Sum of Mulliken charges =  -0.00000

 Dipole moment (field-independent basis, Debye):
    X=             -0.2795    Y=              2.7597    Z=              0.4021  Tot=              2.8028
 Quadrupole moment (field-independent basis, Debye-Ang):
   XX=           -132.7672   YY=           -110.7629   ZZ=           -112.5863
   XY=             -8.4283   XZ=             -5.2918   YZ=             -4.6253

 Normal termination of Gaussian 16 at Fri Nov  4 18:24:24 2022.
