 Gaussian 16, Revision B.01,
 Gaussian 16:  ES64L-G16RevB.01 20-Dec-2017

 -------------------------------------------------------------------
 #p b3lyp/6-31g(d) 6D 10F nosymm GFInput td=(50-50,nstate=2) SCF=XQC
 -------------------------------------------------------------------

 ------------------------------
 Gaussian input prepared by ASE
 ------------------------------
 Symbolic Z-matrix:
 Charge =  0 Multiplicity = 1

                          Input orientation:
 ---------------------------------------------------------------------
 Center     Atomic      Atomic             Coordinates (Angstroms)
 Number     Number       Type             X           Y           Z
 ---------------------------------------------------------------------
      1          8           0       -0.383928    0.471486   -2.205671
      2          6           0        0.024304    0.233670   -1.074738
      3          6           0        1.443739    0.371853   -0.700767
      4         16           0        2.716329    0.737885   -1.829315
      5          6           0        3.823165    0.797054   -0.476178
      6          6           0        5.292442    1.127939   -0.598459
      7          8           0        6.009678    0.698175    0.533760
      8          7           0        3.285426    0.575348    0.697128
      9          6           0        1.941081    0.331206    0.574193
     10          6           0        1.012950    0.075486    1.722775
     11          6           0       -0.196693   -0.717189    1.215698
     12          7           0       -0.790787   -0.139256   -0.011638
     13          6           0       -2.195273   -0.333093   -0.223436
     14          6           0       -3.101919    0.246712    0.672045
     15          6           0       -4.473482    0.045406    0.527005
     16          6           0       -4.923905   -0.726162   -0.537417
     17          9           0       -6.250272   -0.920030   -0.690295
     18          6           0       -4.047052   -1.300812   -1.450348
     19          6           0       -2.676871   -1.107402   -1.286662
     20          1           0        5.389582    2.218120   -0.749144
     21          1           0        5.722455    0.644729   -1.483778
     22          1           0        5.378666    0.709323    1.275758
     23          1           0        1.518784   -0.490905    2.511861
     24          1           0        0.693249    1.030671    2.163625
     25          1           0        0.105572   -1.756648    1.016757
     26          1           0       -0.976983   -0.746468    1.977633
     27          1           0       -2.731697    0.869484    1.481451
     28          1           0       -5.188322    0.487566    1.212834
     29          1           0       -4.439170   -1.892740   -2.270659
     30          1           0       -1.981073   -1.541408   -1.994021
 ---------------------------------------------------------------------

 SCF Done:  E(RB3LYP) =  -1259.98063808     A.U. after   15 cycles

 Excitation energies and oscillator strengths:

 Excited state symmetry could not be determined.
 Excited State   1:      Triplet-?Sym    3.0717 eV  403.64 nm  f=0.0000  <S**2>=2.000
      67 -> 73         0.12535
      70 -> 73         0.14104
      71 -> 73         0.55714
      72 -> 73        -0.36405
 This state for optimization and/or second-order correction.
 Total Energy, E(TD-HF/TD-DFT) =  -1259.86775566
 Copying the excited state density for this state as the 1-particle RhoCI density.

 Excited state symmetry could not be determined.
 Excited State   2:      Triplet-?Sym    3.4462 eV  359.77 nm  f=0.0000  <S**2>=2.000
      67 -> 73         0.13117
      69 -> 74        -0.13561
      70 -> 74         0.11496
      71 -> 73         0.32630
      72 -> 73         0.48819
      72 -> 75        -0.26362

 Excited state symmetry could not be determined.
 Excited State   3:      Singlet-?Sym    3.9548 eV  313.50 nm  f=0.1020  <S**2>=0.000
      70 -> 73        -0.17558
      72 -> 73         0.67016

 Excited state symmetry could not be determined.
 Excited State   4:      Singlet-?Sym    4.2434 eV  292.18 nm  f=0.0407  <S**2>=0.000
      69 -> 73         0.26843
      70 -> 73         0.53588
      71 -> 73        -0.26832
      72 -> 73         0.21652

 Alpha  occ. eigenvalues --  -88.93313 -24.70744 -19.14849 -19.12449 -14.38059
 Alpha  occ. eigenvalues --  -14.35712 -10.30544 -10.27714 -10.27617 -10.25788
 Alpha  occ. eigenvalues --  -10.24903 -10.24830 -10.23853 -10.23375 -10.21978
 Alpha  occ. eigenvalues --  -10.20897 -10.20490 -10.20456 -10.20239  -7.99385
 Alpha  occ. eigenvalues --   -5.95779  -5.95426  -5.95094  -1.21910  -1.04552
 Alpha  occ. eigenvalues --   -1.03114  -0.98321  -0.95496  -0.86716  -0.82330
 Alpha  occ. eigenvalues --   -0.81680  -0.76677  -0.76304  -0.74983  -0.70987
 Alpha  occ. eigenvalues --   -0.66214  -0.64631  -0.63182  -0.60641  -0.57377
 Alpha  occ. eigenvalues --   -0.55422  -0.54140  -0.53097  -0.51630  -0.50000
 Alpha  occ. eigenvalues --   -0.49219  -0.48103  -0.46457  -0.46156  -0.45676
 Alpha  occ. eigenvalues --   -0.45457  -0.44150  -0.43849  -0.42744  -0.42480
 Alpha  occ. eigenvalues --   -0.42282  -0.40628  -0.39976  -0.38571  -0.37989
 Alpha  occ. eigenvalues --   -0.37059  -0.36292  -0.35349  -0.34728  -0.30717
 Alpha  occ. eigenvalues --   -0.29868  -0.27916  -0.27797  -0.27017  -0.25996
 Alpha  occ. eigenvalues --   -0.25424  -0.23041
 Alpha virt. eigenvalues --   -0.06338  -0.01666  -0.00856   0.00682   0.00881
 Alpha virt. eigenvalues --    0.06330   0.07677   0.08936   0.09418   0.10922
 Alpha virt. eigenvalues --    0.11818   0.12032   0.13164   0.13821   0.14738

 Mulliken charges:
               1
     1  O   -0.516435
     2  C    0.613522
     3  C   -0.256991
     4  S    0.292565
     5  C    0.073698
     6  C   -0.054725
     7  O   -0.617759
     8  N   -0.504110
     9  C    0.319735
    10  C   -0.335487
    11  C   -0.149842
    12  N   -0.566029
    13  C    0.281197
    14  C   -0.153794
    15  C   -0.208220
    16  C    0.387432
    17  F   -0.296202
    18  C   -0.214863
    19  C   -0.119190
    20  H    0.158340
    21  H    0.167063
    22  H    0.414500
    23  H    0.174448
    24  H    0.174362
    25  H    0.163480
    26  H    0.167387
    27  H    0.140520
    28  H    0.150641
    29  H    0.153390
    30  H    0.161365
 Sum of Mulliken charges =  -0.00000

 Dipole moment (field-independent basis, Debye):
    X=             -0.2594    Y=             -0.5395    Z=              2.7382  Tot=              2.8029
 Quadrupole moment (field-independent basis, Debye-Ang):
   XX=           -133.6196   YY=           -111.7206   ZZ=           -112.7195
   XY=              2.0068   XZ=             -9.2328   YZ=              3.5688

 Normal termination of Gaussian 16 at Sat Nov  5 11:14:23 2022.
