 Gaussian 16, Revision B.01,
 Gaussian 16:  ES64L-G16RevB.01 20-Dec-2017

 -----------------------------
 #p b3lyp/6-31g(d) opt SCF=XQC
 -----------------------------

 ------------------------------
 Gaussian input prepared by ASE
 ------------------------------
 Symbolic Z-matrix:
 Charge =  0 Multiplicity = 1

 SCF Done:  E(RB3LYP) =  -1144.31624175     A.U. after   14 cycles
 SCF Done:  E(RB3LYP) =  -1144.32096353     A.U. after   13 cycles
 SCF Done:  E(RB3LYP) =  -1144.32131205     A.U. after   12 cycles
 SCF Done:  E(RB3LYP) =  -1144.32152604     A.U. after   12 cycles
 SCF Done:  E(RB3LYP) =  -1144.32176088     A.U. after   11 cycles
 SCF Done:  E(RB3LYP) =  -1144.32187326     A.U. after   10 cycles
 SCF Done:  E(RB3LYP) =  -1144.32192312     A.U. after   10 cycles
 SCF Done:  E(RB3LYP) =  -1144.32195576     A.U. after   10 cycles
 SCF Done:  E(RB3LYP) =  -1144.32196161     A.U. after   10 cycles
 SCF Done:  E(RB3LYP) =  -1144.32196525     A.U. after    9 cycles
 SCF Done:  E(RB3LYP) =  -1144.32196659     A.U. after    9 cycles
 SCF Done:  E(RB3LYP) =  -1144.32196718     A.U. after    9 cycles
 SCF Done:  E(RB3LYP) =  -1144.32196744     A.U. after    8 cycles
 SCF Done:  E(RB3LYP) =  -1144.32196766     A.U. after    8 cycles
 SCF Done:  E(RB3LYP) =  -1144.32196775     A.U. after    7 cycles
 Optimization completed.
    -- Stationary point found.

                         Standard orientation:
 ---------------------------------------------------------------------
 Center     Atomic      Atomic             Coordinates (Angstroms)
 Number     Number       Type             X           Y           Z
 ---------------------------------------------------------------------
      1          6           0       -4.923445    1.870353    1.381059
      2          6           0       -4.655840    1.127846    0.056909
      3          7           0       -3.687957    0.056052    0.202218
      4          6           0       -4.035083   -1.147653    0.727079
      5          8           0       -5.138220   -1.387120    1.205716
      6          6           0       -2.957085   -2.238278    0.678409
      7          7           0       -1.611274   -1.781821    0.388272
      8          6           0       -0.929557   -2.183360   -0.723458
      9          8           0       -1.396872   -2.875492   -1.616151
     10          6           0        0.511873   -1.686920   -0.827636
     11          8           0        0.880100   -0.965687    0.339861
     12          6           0        2.145717   -0.440385    0.416621
     13          6           0        2.421583    0.264359    1.619079
     14          6           0        3.653193    0.834639    1.814900
     15          6           0        4.676056    0.737023    0.830706
     16          6           0        5.958843    1.317006    1.006994
     17          6           0        6.925674    1.202404    0.032371
     18          6           0        6.645889    0.499267   -1.163660
     19          6           0        5.409590   -0.074891   -1.364110
     20          6           0        4.391724    0.025511   -0.378621
     21          6           0        3.107529   -0.559731   -0.563633
     22          6           0       -4.130010    2.074765   -1.009928
     23          8           0       -3.025592    2.017284   -1.508594
     24          8           0       -5.036987    3.018514   -1.333975
     25          1           0       -5.673605    2.653226    1.238625
     26          1           0       -5.295126    1.148705    2.111881
     27          1           0       -4.002534    2.323523    1.763059
     28          1           0       -5.605558    0.705005   -0.293921
     29          1           0       -2.802048    0.167222   -0.276472
     30          1           0       -3.231008   -2.947475   -0.108638
     31          1           0       -2.996715   -2.770956    1.634356
     32          1           0       -1.082630   -1.283055    1.092028
     33          1           0        1.158574   -2.561426   -0.973168
     34          1           0        0.589028   -1.054219   -1.721660
     35          1           0        1.637966    0.335869    2.367031
     36          1           0        3.860559    1.373132    2.736404
     37          1           0        6.166439    1.855787    1.928723
     38          1           0        7.904602    1.650488    0.178040
     39          1           0        7.413591    0.413062   -1.927950
     40          1           0        5.197263   -0.614586   -2.284075
     41          1           0        2.912300   -1.094772   -1.486558
     42          1           0       -4.615811    3.589140   -2.004483
 ---------------------------------------------------------------------

 The electronic state is 1-A.
 Alpha  occ. eigenvalues --  -19.21655 -19.19997 -19.16137 -19.12299 -19.11280
 Alpha  occ. eigenvalues --  -14.37429 -14.36237 -10.33997 -10.30080 -10.28929
 Alpha  occ. eigenvalues --  -10.26252 -10.26148 -10.25113 -10.23334 -10.20592
 Alpha  occ. eigenvalues --  -10.20175 -10.20074 -10.19939 -10.19597 -10.19486
 Alpha  occ. eigenvalues --  -10.19476 -10.19334 -10.19263 -10.19054  -1.12658
 Alpha  occ. eigenvalues --   -1.08623  -1.04311  -1.03805  -1.03189  -0.93996
 Alpha  occ. eigenvalues --   -0.92475  -0.87719  -0.82713  -0.79156  -0.77878
 Alpha  occ. eigenvalues --   -0.77104  -0.73790  -0.72320  -0.71042  -0.68245
 Alpha  occ. eigenvalues --   -0.63460  -0.62694  -0.61481  -0.60434  -0.59436
 Alpha  occ. eigenvalues --   -0.58489  -0.55419  -0.54464  -0.52558  -0.51816
 Alpha  occ. eigenvalues --   -0.51199  -0.50528  -0.50037  -0.48842  -0.47352
 Alpha  occ. eigenvalues --   -0.46523  -0.46082  -0.45354  -0.45051  -0.44834
 Alpha  occ. eigenvalues --   -0.43827  -0.42517  -0.42246  -0.42019  -0.41682
 Alpha  occ. eigenvalues --   -0.40929  -0.40551  -0.39830  -0.39107  -0.38738
 Alpha  occ. eigenvalues --   -0.38428  -0.37780  -0.36903  -0.35782  -0.35247
 Alpha  occ. eigenvalues --   -0.34796  -0.33794  -0.33569  -0.30928  -0.29755
 Alpha  occ. eigenvalues --   -0.28698  -0.27971  -0.26461  -0.25953  -0.24437
 Alpha  occ. eigenvalues --   -0.23717  -0.21571
 Alpha virt. eigenvalues --   -0.04066  -0.00982  -0.00913   0.01663   0.02578
 Alpha virt. eigenvalues --    0.02889   0.05938   0.08234   0.08588   0.09694
 Alpha virt. eigenvalues --    0.09962   0.10768   0.11419   0.12043   0.12730

 Mulliken charges:
               1
     1  C   -0.452491
     2  C   -0.011385
     3  N   -0.612303
     4  C    0.596164
     5  O   -0.524025
     6  C   -0.223756
     7  N   -0.613866
     8  C    0.565568
     9  O   -0.504219
    10  C   -0.113918
    11  O   -0.552991
    12  C    0.387015
    13  C   -0.173918
    14  C   -0.195148
    15  C    0.137962
    16  C   -0.192262
    17  C   -0.136863
    18  C   -0.134197
    19  C   -0.193114
    20  C    0.132825
    21  C   -0.272959
    22  C    0.576968
    23  O   -0.468570
    24  O   -0.562978
    25  H    0.167084
    26  H    0.193014
    27  H    0.150730
    28  H    0.196962
    29  H    0.354975
    30  H    0.222929
    31  H    0.183817
    32  H    0.354379
    33  H    0.181530
    34  H    0.184321
    35  H    0.134919
    36  H    0.136390
    37  H    0.130577
    38  H    0.130952
    39  H    0.132067
    40  H    0.129589
    41  H    0.140545
    42  H    0.417678
 Sum of Mulliken charges =  -0.00000

 Dipole moment (field-independent basis, Debye):
    X=              2.6670    Y=              3.5337    Z=              0.7353  Tot=              4.4878
 Quadrupole moment (field-independent basis, Debye-Ang):
   XX=           -141.0199   YY=           -137.6580   ZZ=           -133.4002
   XY=            -15.1362   XZ=              3.6289   YZ=             -3.2408

 Normal termination of Gaussian 16 at Fri Nov  4 18:26:30 2022.
