 Gaussian 16, Revision B.01,
 Gaussian 16:  ES64L-G16RevB.01 20-Dec-2017

 -------------------------------------------------------------------
 #p b3lyp/6-31g(d) 6D 10F nosymm GFInput td=(50-50,nstate=2) SCF=XQC
 -------------------------------------------------------------------

 ------------------------------
 Gaussian input prepared by ASE
 ------------------------------
 Symbolic Z-matrix:
 Charge =  0 Multiplicity = 1

                          Input orientation:
 ---------------------------------------------------------------------
 Center     Atomic      Atomic             Coordinates (Angstroms)
 Number     Number       Type             X           Y           Z
 ---------------------------------------------------------------------
      1          6           0        5.133312   -1.967014   -0.648955
      2          6           0        4.885674   -0.462243   -0.423914
      3          7           0        3.812224   -0.206794    0.519008
      4          6           0        4.006627   -0.304945    1.859700
      5          8           0        5.047118   -0.708823    2.367257
      6          6           0        2.835068    0.142787    2.743383
      7          7           0        1.561621    0.303644    2.067958
      8          6           0        0.921002    1.506384    1.997680
      9          8           0        1.379034    2.565294    2.401718
     10          6           0       -0.456098    1.481787    1.335854
     11          8           0       -0.831430    0.151434    1.007061
     12          6           0       -2.043338   -0.058618    0.398147
     13          6           0       -2.330868   -1.419178    0.106816
     14          6           0       -3.512716   -1.757486   -0.500814
     15          6           0       -4.471680   -0.766693   -0.851717
     16          6           0       -5.702111   -1.088304   -1.480688
     17          6           0       -6.607695   -0.102530   -1.806194
     18          6           0       -6.316550    1.251320   -1.513789
     19          6           0       -5.130106    1.595145   -0.903539
     20          6           0       -4.175926    0.602349   -0.555378
     21          6           0       -2.944011    0.933899    0.075777
     22          6           0        4.525718    0.238062   -1.724413
     23          8           0        3.456926    0.761092   -1.960709
     24          8           0        5.538469    0.195899   -2.613701
     25          1           0        5.962728   -2.120806   -1.344896
     26          1           0        5.384312   -2.422466    0.311559
     27          1           0        4.236317   -2.450632   -1.050051
     28          1           0        5.812081   -0.019090   -0.037614
     29          1           0        2.975217    0.233669    0.156036
     30          1           0        3.092294    1.114115    3.176735
     31          1           0        2.759204   -0.577886    3.564374
     32          1           0        1.036914   -0.510315    1.775284
     33          1           0       -1.172147    1.934192    2.033541
     34          1           0       -0.412111    2.111604    0.437557
     35          1           0       -1.596111   -2.171439    0.376700
     36          1           0       -3.729201   -2.799742   -0.722133
     37          1           0       -5.918812   -2.130862   -1.702228
     38          1           0       -7.546894   -0.360289   -2.287611
     39          1           0       -7.035807    2.023414   -1.773552
     40          1           0       -4.908912    2.636204   -0.680024
     41          1           0       -2.739155    1.976705    0.292025
     42          1           0        5.219823    0.647152   -3.418325
 ---------------------------------------------------------------------

 SCF Done:  E(RB3LYP) =  -1144.32197517     A.U. after   15 cycles

 Excitation energies and oscillator strengths:

 Excited state symmetry could not be determined.
 Excited State   1:      Triplet-?Sym    2.7894 eV  444.48 nm  f=0.0000  <S**2>=2.000
      81 -> 93         0.13283
      86 -> 88        -0.21011
      86 -> 89         0.14248
      87 -> 88         0.63478
      87 -> 89         0.12299
 This state for optimization and/or second-order correction.
 Total Energy, E(TD-HF/TD-DFT) =  -1144.21946509
 Copying the excited state density for this state as the 1-particle RhoCI density.

 Excited state symmetry could not be determined.
 Excited State   2:      Triplet-?Sym    3.7858 eV  327.50 nm  f=0.0000  <S**2>=2.000
      86 -> 88         0.63534
      86 -> 89        -0.13212
      87 -> 88         0.23488

 Excited state symmetry could not be determined.
 Excited State   3:      Singlet-?Sym    4.2629 eV  290.84 nm  f=0.0342  <S**2>=0.000
      86 -> 88         0.21663
      86 -> 89         0.17767
      87 -> 88         0.60739
      87 -> 89        -0.21580

 Excited state symmetry could not be determined.
 Excited State   4:      Singlet-?Sym    4.5836 eV  270.49 nm  f=0.0130  <S**2>=0.000
      86 -> 88         0.48163
      87 -> 88        -0.31090
      87 -> 89        -0.39991

 Alpha  occ. eigenvalues --  -19.21655 -19.19997 -19.16137 -19.12299 -19.11280
 Alpha  occ. eigenvalues --  -14.37429 -14.36237 -10.33997 -10.30080 -10.28929
 Alpha  occ. eigenvalues --  -10.26252 -10.26148 -10.25113 -10.23334 -10.20592
 Alpha  occ. eigenvalues --  -10.20175 -10.20074 -10.19939 -10.19597 -10.19486
 Alpha  occ. eigenvalues --  -10.19476 -10.19334 -10.19263 -10.19054  -1.12658
 Alpha  occ. eigenvalues --   -1.08623  -1.04311  -1.03805  -1.03189  -0.93996
 Alpha  occ. eigenvalues --   -0.92475  -0.87719  -0.82713  -0.79156  -0.77878
 Alpha  occ. eigenvalues --   -0.77104  -0.73790  -0.72320  -0.71042  -0.68245
 Alpha  occ. eigenvalues --   -0.63460  -0.62694  -0.61481  -0.60434  -0.59436
 Alpha  occ. eigenvalues --   -0.58489  -0.55419  -0.54464  -0.52558  -0.51817
 Alpha  occ. eigenvalues --   -0.51199  -0.50528  -0.50037  -0.48842  -0.47352
 Alpha  occ. eigenvalues --   -0.46523  -0.46082  -0.45354  -0.45051  -0.44834
 Alpha  occ. eigenvalues --   -0.43827  -0.42517  -0.42246  -0.42019  -0.41682
 Alpha  occ. eigenvalues --   -0.40929  -0.40551  -0.39830  -0.39107  -0.38738
 Alpha  occ. eigenvalues --   -0.38428  -0.37780  -0.36903  -0.35782  -0.35247
 Alpha  occ. eigenvalues --   -0.34796  -0.33794  -0.33569  -0.30928  -0.29755
 Alpha  occ. eigenvalues --   -0.28698  -0.27971  -0.26461  -0.25953  -0.24437
 Alpha  occ. eigenvalues --   -0.23717  -0.21571
 Alpha virt. eigenvalues --   -0.04066  -0.00982  -0.00913   0.01663   0.02578
 Alpha virt. eigenvalues --    0.02889   0.05938   0.08234   0.08588   0.09694
 Alpha virt. eigenvalues --    0.09962   0.10768   0.11419   0.12043   0.12730

 Mulliken charges:
               1
     1  C   -0.452487
     2  C   -0.011396
     3  N   -0.612302
     4  C    0.596170
     5  O   -0.524024
     6  C   -0.223764
     7  N   -0.613853
     8  C    0.565555
     9  O   -0.504222
    10  C   -0.113915
    11  O   -0.552981
    12  C    0.386991
    13  C   -0.173918
    14  C   -0.195150
    15  C    0.137966
    16  C   -0.192266
    17  C   -0.136862
    18  C   -0.134197
    19  C   -0.193116
    20  C    0.132831
    21  C   -0.272947
    22  C    0.576971
    23  O   -0.468569
    24  O   -0.562983
    25  H    0.167084
    26  H    0.193015
    27  H    0.150730
    28  H    0.196962
    29  H    0.354978
    30  H    0.222930
    31  H    0.183817
    32  H    0.354379
    33  H    0.181532
    34  H    0.184321
    35  H    0.134918
    36  H    0.136390
    37  H    0.130578
    38  H    0.130952
    39  H    0.132068
    40  H    0.129589
    41  H    0.140545
    42  H    0.417678
 Sum of Mulliken charges =  -0.00000

 Dipole moment (field-independent basis, Debye):
    X=             -2.3605    Y=             -1.8016    Z=             -3.3649  Tot=              4.4879
 Quadrupole moment (field-independent basis, Debye-Ang):
   XX=           -138.2996   YY=           -136.2696   ZZ=           -139.2756
   XY=             -1.7086   XZ=            -16.6031   YZ=             -4.0771

 Normal termination of Gaussian 16 at Sat Nov  5 11:19:00 2022.
