 Gaussian 16, Revision B.01,
 Gaussian 16:  ES64L-G16RevB.01 20-Dec-2017

 -----------------------------
 #p b3lyp/6-31g(d) opt SCF=XQC
 -----------------------------

 ------------------------------
 Gaussian input prepared by ASE
 ------------------------------
 Symbolic Z-matrix:
 Charge =  0 Multiplicity = 1

 SCF Done:  E(RB3LYP) =  -1540.69615791     A.U. after   14 cycles
 SCF Done:  E(RB3LYP) =  -1540.70359016     A.U. after   14 cycles
 SCF Done:  E(RB3LYP) =  -1540.70568791     A.U. after   13 cycles
 SCF Done:  E(RB3LYP) =  -1540.70616187     A.U. after   13 cycles
 SCF Done:  E(RB3LYP) =  -1540.70727349     A.U. after   14 cycles
 SCF Done:  E(RB3LYP) =  -1540.70552522     A.U. after   13 cycles
 SCF Done:  E(RB3LYP) =  -1540.70885531     A.U. after   12 cycles
 SCF Done:  E(RB3LYP) =  -1540.70934105     A.U. after   12 cycles
 SCF Done:  E(RB3LYP) =  -1540.70935015     A.U. after   12 cycles
 SCF Done:  E(RB3LYP) =  -1540.70989388     A.U. after   12 cycles
 SCF Done:  E(RB3LYP) =  -1540.71044837     A.U. after   11 cycles
 SCF Done:  E(RB3LYP) =  -1540.71047055     A.U. after   10 cycles
 SCF Done:  E(RB3LYP) =  -1540.71047986     A.U. after   10 cycles
 SCF Done:  E(RB3LYP) =  -1540.71048309     A.U. after    8 cycles
 SCF Done:  E(RB3LYP) =  -1540.71048587     A.U. after    8 cycles
 SCF Done:  E(RB3LYP) =  -1540.71048650     A.U. after    8 cycles
 SCF Done:  E(RB3LYP) =  -1540.71048705     A.U. after    8 cycles
 SCF Done:  E(RB3LYP) =  -1540.71048686     A.U. after    7 cycles
 SCF Done:  E(RB3LYP) =  -1540.71048715     A.U. after    6 cycles
 SCF Done:  E(RB3LYP) =  -1540.71048712     A.U. after    6 cycles
 Optimization completed.
    -- Stationary point found.

                         Standard orientation:
 ---------------------------------------------------------------------
 Center     Atomic      Atomic             Coordinates (Angstroms)
 Number     Number       Type             X           Y           Z
 ---------------------------------------------------------------------
      1          6           0        3.470712    4.313601    0.047605
      2          6           0        2.342348    4.698174   -0.143125
      3          6           0        0.977260    5.182973   -0.378859
      4          8           0        0.097177    4.198311   -0.912925
      5          6           0       -0.372831    3.210062   -0.083074
      6          6           0        0.008642    3.030535    1.250608
      7          6           0       -0.552892    1.989638    1.990892
      8          6           0       -1.475392    1.111858    1.420954
      9          8           0       -2.060974    0.108723    2.166646
     10          6           0       -1.249757   -0.781769    2.963927
     11          6           0       -0.765041   -1.998320    2.164655
     12          8           0       -1.833241   -2.645391    1.490500
     13          6           0        0.402085   -1.698202    1.201869
     14          7           0        1.574598   -1.229961    1.933622
     15          6           0        2.531612   -0.346446    1.267046
     16          6           0        3.530305   -0.918877    0.226119
     17          6           0        2.839670   -1.395372   -1.076161
     18          6           0        3.883548   -1.896137   -2.097370
     19          6           0        4.670493   -3.073668   -1.485460
     20          6           0        5.387577   -2.604481   -0.202687
     21          6           0        6.360589   -1.459151   -0.550737
     22          6           0        5.573040   -0.282477   -1.162973
     23          6           0        4.857776   -0.753216   -2.445429
     24          6           0        4.525295    0.211962   -0.145645
     25          6           0        4.341268   -2.099020    0.813431
     26          6           0       -1.871893    1.291859    0.075454
     27          6           0       -2.860427    0.441674   -0.693496
     28          8           0       -3.020333    0.604377   -1.900751
     29          7           0       -3.547286   -0.525298    0.001346
     30          6           0       -4.646014   -1.255553   -0.631728
     31          6           0       -5.959428   -0.459722   -0.671686
     32          6           0       -7.113345   -1.176373   -1.400015
     33          6           0       -8.306974   -0.224937   -1.571921
     34          6           0       -7.551058   -2.467117   -0.689299
     35          6           0       -1.307434    2.344553   -0.650925
     36          1           0        4.466110    3.967191    0.212108
     37          1           0        0.990961    5.976606   -1.132357
     38          1           0        0.558796    5.610043    0.544052
     39          1           0        0.743292    3.673327    1.721021
     40          1           0       -0.263448    1.862289    3.028468
     41          1           0       -0.393345   -0.257704    3.395587
     42          1           0       -1.918696   -1.109941    3.763286
     43          1           0       -0.406204   -2.723957    2.908713
     44          1           0       -2.168157   -2.029740    0.811722
     45          1           0        0.104755   -0.915715    0.494483
     46          1           0        0.562839   -2.612025    0.608606
     47          1           0        2.051386   -2.005924    2.385142
     48          1           0        1.956358    0.463651    0.800141
     49          1           0        3.129096    0.122563    2.063375
     50          1           0        2.132893   -2.204376   -0.857018
     51          1           0        2.255065   -0.570841   -1.508629
     52          1           0        3.367526   -2.230828   -3.006965
     53          1           0        5.404309   -3.455195   -2.208918
     54          1           0        3.988816   -3.904392   -1.255024
     55          1           0        5.945756   -3.442260    0.236407
     56          1           0        7.122465   -1.813709   -1.258717
     57          1           0        6.893452   -1.128496    0.351984
     58          1           0        6.263142    0.537510   -1.404114
     59          1           0        5.594452   -1.095170   -3.185683
     60          1           0        4.310829    0.083376   -2.901716
     61          1           0        5.029991    0.569763    0.764313
     62          1           0        3.971797    1.068132   -0.558571
     63          1           0        4.841853   -1.781519    1.740798
     64          1           0        3.665075   -2.923566    1.082149
     65          1           0       -3.528016   -0.456387    1.012845
     66          1           0       -4.765710   -2.194040   -0.081266
     67          1           0       -4.328986   -1.498054   -1.649487
     68          1           0       -6.271125   -0.218202    0.355859
     69          1           0       -5.754644    0.492858   -1.174881
     70          1           0       -6.753893   -1.447099   -2.404813
     71          1           0       -9.121738   -0.706903   -2.125270
     72          1           0       -8.019368    0.681554   -2.117141
     73          1           0       -8.705671    0.084190   -0.596655
     74          1           0       -6.741178   -3.202024   -0.623754
     75          1           0       -7.892240   -2.253298    0.332466
     76          1           0       -8.382360   -2.943509   -1.222338
     77          1           0       -1.606850    2.474164   -1.684580
 ---------------------------------------------------------------------

 The electronic state is 1-A.
 Alpha  occ. eigenvalues --  -19.18535 -19.18154 -19.13498 -19.10672 -14.35144
 Alpha  occ. eigenvalues --  -14.31914 -10.28515 -10.27587 -10.25494 -10.25165
 Alpha  occ. eigenvalues --  -10.23889 -10.23332 -10.21231 -10.20451 -10.20416
 Alpha  occ. eigenvalues --  -10.20165 -10.20131 -10.20110 -10.19859 -10.19813
 Alpha  occ. eigenvalues --  -10.18966 -10.18599 -10.18541 -10.18247 -10.18161
 Alpha  occ. eigenvalues --  -10.17935 -10.17641 -10.17492 -10.17440 -10.17411
 Alpha  occ. eigenvalues --  -10.17298 -10.17191 -10.17075 -10.16989 -10.16814
 Alpha  occ. eigenvalues --   -1.07104  -1.06406  -1.02590  -1.00967  -0.91227
 Alpha  occ. eigenvalues --   -0.90014  -0.86221  -0.85939  -0.80284  -0.79365
 Alpha  occ. eigenvalues --   -0.77918  -0.76957  -0.76273  -0.76146  -0.75864
 Alpha  occ. eigenvalues --   -0.73928  -0.72460  -0.70806  -0.68632  -0.67737
 Alpha  occ. eigenvalues --   -0.66414  -0.66186  -0.65141  -0.64245  -0.61781
 Alpha  occ. eigenvalues --   -0.61400  -0.58792  -0.57860  -0.57818  -0.57800
 Alpha  occ. eigenvalues --   -0.56270  -0.55813  -0.55520  -0.54092  -0.52410
 Alpha  occ. eigenvalues --   -0.51634  -0.51097  -0.49935  -0.49590  -0.49452
 Alpha  occ. eigenvalues --   -0.48480  -0.46838  -0.46297  -0.46238  -0.45060
 Alpha  occ. eigenvalues --   -0.44968  -0.44763  -0.44550  -0.44413  -0.44233
 Alpha  occ. eigenvalues --   -0.43650  -0.42840  -0.42506  -0.42382  -0.41849
 Alpha  occ. eigenvalues --   -0.41386  -0.40795  -0.40396  -0.40202  -0.40070
 Alpha  occ. eigenvalues --   -0.39521  -0.38950  -0.38702  -0.38475  -0.38382
 Alpha  occ. eigenvalues --   -0.38141  -0.37819  -0.37612  -0.37309  -0.36123
 Alpha  occ. eigenvalues --   -0.35637  -0.35302  -0.34801  -0.34510  -0.33098
 Alpha  occ. eigenvalues --   -0.32463  -0.32360  -0.32196  -0.32112  -0.32013
 Alpha  occ. eigenvalues --   -0.31877  -0.31777  -0.31690  -0.31446  -0.29682
 Alpha  occ. eigenvalues --   -0.28871  -0.28734  -0.28075  -0.27612  -0.27560
 Alpha  occ. eigenvalues --   -0.26455  -0.25705  -0.25282  -0.24274  -0.21490
 Alpha  occ. eigenvalues --   -0.21156
 Alpha virt. eigenvalues --   -0.03533   0.00341   0.01862   0.04246   0.06195
 Alpha virt. eigenvalues --    0.06624   0.08132   0.08545   0.08923   0.09204
 Alpha virt. eigenvalues --    0.10383   0.10660   0.11063   0.11842   0.12151

 Mulliken charges:
               1
     1  C   -0.457990
     2  C    0.313247
     3  C   -0.180804
     4  O   -0.513677
     5  C    0.384502
     6  C   -0.188198
     7  C   -0.173184
     8  C    0.315149
     9  O   -0.579437
    10  C   -0.056452
    11  C    0.122802
    12  O   -0.651894
    13  C   -0.163150
    14  N   -0.575215
    15  C   -0.150477
    16  C    0.086498
    17  C   -0.281765
    18  C   -0.091089
    19  C   -0.265470
    20  C   -0.089184
    21  C   -0.263825
    22  C   -0.088790
    23  C   -0.265032
    24  C   -0.282776
    25  C   -0.280879
    26  C    0.028992
    27  C    0.576447
    28  O   -0.528405
    29  N   -0.657301
    30  C   -0.136754
    31  C   -0.253748
    32  C   -0.070184
    33  C   -0.442908
    34  C   -0.448400
    35  C   -0.242562
    36  H    0.201896
    37  H    0.194038
    38  H    0.173347
    39  H    0.148655
    40  H    0.144809
    41  H    0.163167
    42  H    0.154709
    43  H    0.127997
    44  H    0.411109
    45  H    0.151327
    46  H    0.141686
    47  H    0.298116
    48  H    0.149740
    49  H    0.123984
    50  H    0.134202
    51  H    0.130869
    52  H    0.118147
    53  H    0.125423
    54  H    0.124892
    55  H    0.114254
    56  H    0.125630
    57  H    0.122483
    58  H    0.111375
    59  H    0.124415
    60  H    0.129130
    61  H    0.116495
    62  H    0.133347
    63  H    0.119485
    64  H    0.116176
    65  H    0.361599
    66  H    0.148931
    67  H    0.175657
    68  H    0.121419
    69  H    0.157376
    70  H    0.128414
    71  H    0.139449
    72  H    0.145281
    73  H    0.137544
    74  H    0.145338
    75  H    0.138083
    76  H    0.142238
    77  H    0.179681
 Sum of Mulliken charges =  -0.00000

 Dipole moment (field-independent basis, Debye):
    X=              2.6415    Y=              1.0822    Z=              3.1169  Tot=              4.2266
 Quadrupole moment (field-independent basis, Debye-Ang):
   XX=           -201.1887   YY=           -203.1112   ZZ=           -211.9867
   XY=              3.3064   XZ=             -1.8840   YZ=              4.5880

 Normal termination of Gaussian 16 at Fri Nov  4 19:27:08 2022.
