 Gaussian 16, Revision B.01,
 Gaussian 16:  ES64L-G16RevB.01 20-Dec-2017

 -------------------------------------------------------------------
 #p b3lyp/6-31g(d) 6D 10F nosymm GFInput td=(50-50,nstate=2) SCF=XQC
 -------------------------------------------------------------------

 ------------------------------
 Gaussian input prepared by ASE
 ------------------------------
 Symbolic Z-matrix:
 Charge =  0 Multiplicity = 1

                          Input orientation:
 ---------------------------------------------------------------------
 Center     Atomic      Atomic             Coordinates (Angstroms)
 Number     Number       Type             X           Y           Z
 ---------------------------------------------------------------------
      1          6           0       -1.722803   -5.303898    1.286428
      2          6           0       -0.530419   -5.330945    1.099437
      3          6           0        0.918682   -5.382728    0.872517
      4          8           0        1.419001   -4.311670    0.077628
      5          6           0        1.528947   -3.063982    0.640993
      6          6           0        1.106626   -2.723339    1.930206
      7          6           0        1.285348   -1.417596    2.388353
      8          6           0        1.861523   -0.438850    1.578160
      9          8           0        2.075545    0.841317    2.047850
     10          6           0        1.011180    1.573076    2.694657
     11          6           0        0.148455    2.350993    1.692492
     12          8           0        0.939433    3.142143    0.819181
     13          6           0       -0.848628    1.476988    0.904360
     14          7           0       -1.797933    0.828843    1.803374
     15          6           0       -2.402159   -0.445140    1.412634
     16          6           0       -3.532789   -0.480883    0.350095
     17          6           0       -3.039090   -0.111289   -1.071038
     18          6           0       -4.188317   -0.223135   -2.095773
     19          6           0       -5.325623    0.738220   -1.692500
     20          6           0       -5.846652    0.362290   -0.289982
     21          6           0       -6.378868   -1.085421   -0.313440
     22          6           0       -5.241280   -2.045864   -0.717257
     23          6           0       -4.722487   -1.669034   -2.119664
     24          6           0       -4.090521   -1.927824    0.302063
     25          6           0       -4.693550    0.469472    0.730615
     26          6           0        2.298186   -0.777678    0.276429
     27          6           0        2.946234    0.152477   -0.726640
     28          8           0        3.153902   -0.216666   -1.879946
     29          7           0        3.267901    1.421103   -0.306246
     30          6           0        4.059680    2.307838   -1.159501
     31          6           0        5.563923    1.997826   -1.125620
     32          6           0        6.412455    2.868649   -2.072845
     33          6           0        7.856256    2.346927   -2.125548
     34          6           0        6.390850    4.356553   -1.687610
     35          6           0        2.120634   -2.092071   -0.165444
     36          1           0       -2.777069   -5.274317    1.446205
     37          1           0        1.173281   -6.285414    0.308479
     38          1           0        1.454165   -5.429868    1.831841
     39          1           0        0.628897   -3.447436    2.579543
     40          1           0        0.967829   -1.161493    3.393416
     41          1           0        0.379022    0.909404    3.289914
     42          1           0        1.529818    2.273124    3.354278
     43          1           0       -0.434334    3.067352    2.289251
     44          1           0        1.462692    2.533619    0.264354
     45          1           0       -0.304813    0.696609    0.359970
     46          1           0       -1.305099    2.129410    0.143535
     47          1           0       -2.508116    1.486896    2.113087
     48          1           0       -1.587734   -1.105796    1.087952
     49          1           0       -2.809562   -0.891442    2.332381
     50          1           0       -2.644740    0.911655   -1.081918
     51          1           0       -2.211088   -0.774375   -1.359784
     52          1           0       -3.812420    0.047733   -3.091259
     53          1           0       -6.143372    0.685417   -2.424578
     54          1           0       -4.962224    1.775438   -1.695157
     55          1           0       -6.654208    1.047667    0.000451
     56          1           0       -7.214049   -1.168660   -1.022627
     57          1           0       -6.771970   -1.359639    0.675729
     58          1           0       -5.616192   -3.078395   -0.726698
     59          1           0       -5.529635   -1.762876   -2.859466
     60          1           0       -3.925875   -2.360869   -2.426273
     61          1           0       -4.448003   -2.216117    1.301993
     62          1           0       -3.281265   -2.625712    0.041388
     63          1           0       -5.060699    0.223434    1.738617
     64          1           0       -4.333326    1.507855    0.766975
     65          1           0        3.270756    1.579534    0.695324
     66          1           0        3.856823    3.332359   -0.831939
     67          1           0        3.681813    2.197369   -2.179384
     68          1           0        5.936417    2.109659   -0.096020
     69          1           0        5.691238    0.943206   -1.397865
     70          1           0        5.985132    2.773136   -3.082989
     71          1           0        8.463532    2.930919   -2.827328
     72          1           0        7.890180    1.298057   -2.442456
     73          1           0        8.333484    2.413370   -1.138886
     74          1           0        5.381388    4.781035   -1.720665
     75          1           0        6.781853    4.502144   -0.671713
     76          1           0        7.015534    4.945414   -2.369633
     77          1           0        2.448298   -2.346107   -1.166939
 ---------------------------------------------------------------------

 SCF Done:  E(RB3LYP) =  -1540.71047448     A.U. after   14 cycles

 Excitation energies and oscillator strengths:

 Excited state symmetry could not be determined.
 Excited State   1:      Triplet-?Sym    3.3734 eV  367.53 nm  f=0.0000  <S**2>=2.000
     127 ->132         0.17863
     130 ->132         0.61016
     130 ->133        -0.17267
     131 ->132        -0.20441
 This state for optimization and/or second-order correction.
 Total Energy, E(TD-HF/TD-DFT) =  -1540.58650415
 Copying the excited state density for this state as the 1-particle RhoCI density.

 Excited state symmetry could not be determined.
 Excited State   2:      Triplet-?Sym    3.5441 eV  349.83 nm  f=0.0000  <S**2>=2.000
     127 ->132        -0.39873
     127 ->133        -0.12214
     128 ->132         0.15526
     130 ->132         0.26308
     130 ->133         0.43526
     131 ->133        -0.13054

 Excited state symmetry could not be determined.
 Excited State   3:      Singlet-?Sym    4.2063 eV  294.76 nm  f=0.0047  <S**2>=0.000
     131 ->132         0.70417

 Excited state symmetry could not be determined.
 Excited State   4:      Singlet-?Sym    4.2997 eV  288.35 nm  f=0.0508  <S**2>=0.000
     127 ->133         0.14863
     130 ->132         0.68027

 Alpha  occ. eigenvalues --  -19.18535 -19.18154 -19.13498 -19.10672 -14.35144
 Alpha  occ. eigenvalues --  -14.31914 -10.28515 -10.27587 -10.25494 -10.25165
 Alpha  occ. eigenvalues --  -10.23889 -10.23332 -10.21231 -10.20451 -10.20416
 Alpha  occ. eigenvalues --  -10.20165 -10.20131 -10.20110 -10.19859 -10.19813
 Alpha  occ. eigenvalues --  -10.18966 -10.18599 -10.18541 -10.18247 -10.18161
 Alpha  occ. eigenvalues --  -10.17935 -10.17641 -10.17492 -10.17440 -10.17410
 Alpha  occ. eigenvalues --  -10.17298 -10.17191 -10.17075 -10.16989 -10.16814
 Alpha  occ. eigenvalues --   -1.07104  -1.06406  -1.02590  -1.00967  -0.91227
 Alpha  occ. eigenvalues --   -0.90014  -0.86221  -0.85938  -0.80284  -0.79365
 Alpha  occ. eigenvalues --   -0.77918  -0.76957  -0.76273  -0.76146  -0.75864
 Alpha  occ. eigenvalues --   -0.73928  -0.72460  -0.70806  -0.68632  -0.67737
 Alpha  occ. eigenvalues --   -0.66414  -0.66186  -0.65141  -0.64245  -0.61781
 Alpha  occ. eigenvalues --   -0.61400  -0.58792  -0.57860  -0.57818  -0.57800
 Alpha  occ. eigenvalues --   -0.56270  -0.55813  -0.55520  -0.54092  -0.52410
 Alpha  occ. eigenvalues --   -0.51633  -0.51097  -0.49935  -0.49590  -0.49452
 Alpha  occ. eigenvalues --   -0.48480  -0.46838  -0.46297  -0.46238  -0.45060
 Alpha  occ. eigenvalues --   -0.44968  -0.44763  -0.44550  -0.44412  -0.44233
 Alpha  occ. eigenvalues --   -0.43650  -0.42839  -0.42506  -0.42382  -0.41849
 Alpha  occ. eigenvalues --   -0.41386  -0.40795  -0.40396  -0.40202  -0.40070
 Alpha  occ. eigenvalues --   -0.39521  -0.38950  -0.38702  -0.38475  -0.38382
 Alpha  occ. eigenvalues --   -0.38141  -0.37819  -0.37612  -0.37309  -0.36123
 Alpha  occ. eigenvalues --   -0.35637  -0.35302  -0.34801  -0.34510  -0.33099
 Alpha  occ. eigenvalues --   -0.32464  -0.32360  -0.32196  -0.32112  -0.32013
 Alpha  occ. eigenvalues --   -0.31877  -0.31777  -0.31690  -0.31446  -0.29682
 Alpha  occ. eigenvalues --   -0.28871  -0.28734  -0.28075  -0.27612  -0.27560
 Alpha  occ. eigenvalues --   -0.26455  -0.25705  -0.25282  -0.24274  -0.21490
 Alpha  occ. eigenvalues --   -0.21156
 Alpha virt. eigenvalues --   -0.03533   0.00341   0.01862   0.04246   0.06196
 Alpha virt. eigenvalues --    0.06624   0.08131   0.08545   0.08923   0.09204
 Alpha virt. eigenvalues --    0.10383   0.10660   0.11063   0.11842   0.12151

 Mulliken charges:
               1
     1  C   -0.457982
     2  C    0.313225
     3  C   -0.180789
     4  O   -0.513671
     5  C    0.384488
     6  C   -0.188176
     7  C   -0.173221
     8  C    0.315169
     9  O   -0.579439
    10  C   -0.056451
    11  C    0.122776
    12  O   -0.651888
    13  C   -0.163164
    14  N   -0.575211
    15  C   -0.150464
    16  C    0.086520
    17  C   -0.281756
    18  C   -0.091103
    19  C   -0.265489
    20  C   -0.089107
    21  C   -0.263904
    22  C   -0.088684
    23  C   -0.265044
    24  C   -0.282820
    25  C   -0.280926
    26  C    0.029003
    27  C    0.576414
    28  O   -0.528410
    29  N   -0.657271
    30  C   -0.136767
    31  C   -0.253750
    32  C   -0.070181
    33  C   -0.442908
    34  C   -0.448394
    35  C   -0.242555
    36  H    0.201898
    37  H    0.194037
    38  H    0.173347
    39  H    0.148652
    40  H    0.144813
    41  H    0.163175
    42  H    0.154709
    43  H    0.128000
    44  H    0.411110
    45  H    0.151335
    46  H    0.141690
    47  H    0.298115
    48  H    0.149742
    49  H    0.123977
    50  H    0.134199
    51  H    0.130870
    52  H    0.118147
    53  H    0.125427
    54  H    0.124892
    55  H    0.114249
    56  H    0.125631
    57  H    0.122485
    58  H    0.111366
    59  H    0.124413
    60  H    0.129129
    61  H    0.116491
    62  H    0.133349
    63  H    0.119492
    64  H    0.116180
    65  H    0.361599
    66  H    0.148933
    67  H    0.175657
    68  H    0.121422
    69  H    0.157377
    70  H    0.128414
    71  H    0.139449
    72  H    0.145281
    73  H    0.137543
    74  H    0.145337
    75  H    0.138081
    76  H    0.142236
    77  H    0.179680
 Sum of Mulliken charges =  -0.00000

 Dipole moment (field-independent basis, Debye):
    X=             -2.1325    Y=             -1.1543    Z=              3.4618  Tot=              4.2266
 Quadrupole moment (field-independent basis, Debye-Ang):
   XX=           -203.9394   YY=           -202.4825   ZZ=           -209.3338
   XY=              4.2011   XZ=              2.7406   YZ=             -6.6031

 Normal termination of Gaussian 16 at Sat Nov  5 11:28:55 2022.
