 Gaussian 16, Revision B.01,
 Gaussian 16:  ES64L-G16RevB.01 20-Dec-2017

 -----------------------------
 #p b3lyp/6-31g(d) opt SCF=XQC
 -----------------------------

 ------------------------------
 Gaussian input prepared by ASE
 ------------------------------
 Symbolic Z-matrix:
 Charge =  0 Multiplicity = 1

 SCF Done:  E(RB3LYP) =  -1265.12426599     A.U. after   15 cycles
 SCF Done:  E(RB3LYP) =  -1265.12912251     A.U. after   13 cycles
 SCF Done:  E(RB3LYP) =  -1265.12887949     A.U. after   13 cycles
 SCF Done:  E(RB3LYP) =  -1265.13035125     A.U. after   13 cycles
 SCF Done:  E(RB3LYP) =  -1265.13198429     A.U. after   13 cycles
 SCF Done:  E(RB3LYP) =  -1265.13259748     A.U. after   12 cycles
 SCF Done:  E(RB3LYP) =  -1265.13277625     A.U. after   12 cycles
 SCF Done:  E(RB3LYP) =  -1265.13297727     A.U. after   11 cycles
 SCF Done:  E(RB3LYP) =  -1265.13301357     A.U. after   11 cycles
 SCF Done:  E(RB3LYP) =  -1265.13307340     A.U. after   11 cycles
 SCF Done:  E(RB3LYP) =  -1265.13365259     A.U. after   13 cycles
 SCF Done:  E(RB3LYP) =  -1265.13485713     A.U. after   12 cycles
 SCF Done:  E(RB3LYP) =  -1265.13498190     A.U. after   11 cycles
 SCF Done:  E(RB3LYP) =  -1265.13500330     A.U. after   10 cycles
 SCF Done:  E(RB3LYP) =  -1265.13501397     A.U. after    9 cycles
 SCF Done:  E(RB3LYP) =  -1265.13502416     A.U. after   10 cycles
 SCF Done:  E(RB3LYP) =  -1265.13502766     A.U. after   10 cycles
 SCF Done:  E(RB3LYP) =  -1265.13502894     A.U. after    8 cycles
 SCF Done:  E(RB3LYP) =  -1265.13502939     A.U. after    8 cycles
 SCF Done:  E(RB3LYP) =  -1265.13502944     A.U. after    7 cycles
 Optimization completed.
    -- Stationary point found.

                         Standard orientation:
 ---------------------------------------------------------------------
 Center     Atomic      Atomic             Coordinates (Angstroms)
 Number     Number       Type             X           Y           Z
 ---------------------------------------------------------------------
      1          6           0       -5.345218   -3.348327    0.156900
      2          7           0       -4.711518   -2.059381   -0.055732
      3          6           0       -4.215805   -1.911450   -1.425313
      4          6           0       -3.854650   -0.429273   -1.700797
      5          7           0       -3.506781    0.329378   -0.500161
      6          6           0       -2.249860   -0.041479    0.189971
      7          6           0       -1.107962   -0.330114   -0.804314
      8          6           0        0.221415   -0.635349   -0.098075
      9          7           0        0.568377    0.381541    0.892394
     10          6           0        1.855268    0.746497    1.216467
     11          8           0        2.141195    1.332321    2.254286
     12          6           0        2.944375    0.459485    0.204740
     13          6           0        3.331301    1.452981   -0.669929
     14          6           0        4.401615    1.202129   -1.562794
     15          7           0        5.075421    0.071263   -1.622770
     16          6           0        4.725171   -0.916385   -0.746314
     17          6           0        5.453988   -2.134771   -0.785702
     18          6           0        5.153552   -3.160130    0.081931
     19          6           0        4.113221   -3.012482    1.032041
     20          6           0        3.384504   -1.845639    1.092987
     21          6           0        3.664203   -0.771779    0.205531
     22          6           0       -0.486187    0.657983    1.863082
     23          6           0       -1.825664    1.053055    1.213242
     24          6           0       -1.941193    2.543835    0.772801
     25          6           0       -1.555868    3.046872   -0.632861
     26          6           0       -0.072956    3.096599   -1.004902
     27          8           0        0.746302    3.764887   -0.048154
     28          6           0       -4.694191    0.365233    0.374172
     29          6           0       -5.554389   -0.928191    0.311652
     30          1           0       -4.637816   -4.149078   -0.088314
     31          1           0       -5.629278   -3.455023    1.209736
     32          1           0       -6.251984   -3.497734   -0.462428
     33          1           0       -3.341436   -2.565090   -1.544550
     34          1           0       -4.966300   -2.242134   -2.173161
     35          1           0       -4.722303    0.076344   -2.143932
     36          1           0       -3.057629   -0.363508   -2.445104
     37          1           0       -2.393759   -0.969197    0.772972
     38          1           0       -1.347699   -1.209808   -1.411579
     39          1           0       -0.980301    0.507542   -1.495066
     40          1           0        0.144098   -1.615461    0.401702
     41          1           0        1.023605   -0.710828   -0.834280
     42          1           0        2.830210    2.416837   -0.665909
     43          1           0        4.704843    1.981631   -2.261704
     44          1           0        6.251653   -2.216389   -1.517497
     45          1           0        5.719224   -4.087306    0.046466
     46          1           0        3.895059   -3.824263    1.720591
     47          1           0        2.602121   -1.727381    1.837852
     48          1           0       -0.645855   -0.243010    2.479513
     49          1           0       -0.123055    1.443779    2.525562
     50          1           0       -2.527993    0.981898    2.055343
     51          1           0       -2.996825    2.814904    0.893796
     52          1           0       -1.392488    3.140438    1.513036
     53          1           0       -2.096171    2.471739   -1.393413
     54          1           0       -1.948566    4.073556   -0.709628
     55          1           0        0.352927    2.095178   -1.072029
     56          1           0        0.029379    3.562235   -1.999447
     57          1           0        0.450069    4.686697    0.012208
     58          1           0       -5.320763    1.224408    0.094570
     59          1           0       -4.369565    0.531168    1.403055
     60          1           0       -6.400735   -0.799696   -0.394246
     61          1           0       -5.999149   -1.125511    1.293620
 ---------------------------------------------------------------------

 The electronic state is 1-A.
 Alpha  occ. eigenvalues --  -19.14428 -19.10854 -14.35953 -14.33000 -14.32581
 Alpha  occ. eigenvalues --  -14.32217 -10.28293 -10.22732 -10.22425 -10.22001
 Alpha  occ. eigenvalues --  -10.21893 -10.21660 -10.21296 -10.21201 -10.21091
 Alpha  occ. eigenvalues --  -10.21067 -10.21052 -10.21031 -10.20742 -10.20319
 Alpha  occ. eigenvalues --  -10.19425 -10.19363 -10.19305 -10.19207 -10.19205
 Alpha  occ. eigenvalues --  -10.19116 -10.18671 -10.17958 -10.17891  -1.02841
 Alpha  occ. eigenvalues --   -1.01326  -0.94690  -0.93641  -0.93438  -0.90079
 Alpha  occ. eigenvalues --   -0.84492  -0.81309  -0.80076  -0.77920  -0.75967
 Alpha  occ. eigenvalues --   -0.75329  -0.74649  -0.73804  -0.72193  -0.68640
 Alpha  occ. eigenvalues --   -0.67971  -0.65251  -0.64739  -0.63184  -0.62683
 Alpha  occ. eigenvalues --   -0.62505  -0.60454  -0.59725  -0.56255  -0.54849
 Alpha  occ. eigenvalues --   -0.53038  -0.52742  -0.51698  -0.50979  -0.50432
 Alpha  occ. eigenvalues --   -0.49230  -0.48677  -0.48151  -0.46817  -0.46553
 Alpha  occ. eigenvalues --   -0.46173  -0.45519  -0.45347  -0.44607  -0.44025
 Alpha  occ. eigenvalues --   -0.43240  -0.43044  -0.42886  -0.41988  -0.41868
 Alpha  occ. eigenvalues --   -0.41222  -0.40992  -0.40625  -0.40138  -0.39417
 Alpha  occ. eigenvalues --   -0.39249  -0.38377  -0.38050  -0.37488  -0.37200
 Alpha  occ. eigenvalues --   -0.36311  -0.36258  -0.35650  -0.35410  -0.35334
 Alpha  occ. eigenvalues --   -0.34586  -0.34123  -0.33746  -0.33639  -0.33294
 Alpha  occ. eigenvalues --   -0.31317  -0.31183  -0.30599  -0.30069  -0.26534
 Alpha  occ. eigenvalues --   -0.25638  -0.24706  -0.24128  -0.23540  -0.22275
 Alpha  occ. eigenvalues --   -0.21911  -0.20484
 Alpha virt. eigenvalues --   -0.04837  -0.01111   0.02055   0.02357   0.06000
 Alpha virt. eigenvalues --    0.07034   0.08712   0.08778   0.09401   0.09748
 Alpha virt. eigenvalues --    0.10162   0.10940   0.11860   0.12129   0.12739

 Mulliken charges:
               1
     1  C   -0.291248
     2  N   -0.377586
     3  C   -0.118984
     4  C   -0.176602
     5  N   -0.405509
     6  C    0.068593
     7  C   -0.308191
     8  C   -0.148079
     9  N   -0.422466
    10  C    0.510654
    11  O   -0.494857
    12  C    0.014778
    13  C   -0.198265
    14  C    0.041134
    15  N   -0.495738
    16  C    0.228837
    17  C   -0.140304
    18  C   -0.136491
    19  C   -0.133467
    20  C   -0.199084
    21  C    0.135609
    22  C   -0.149407
    23  C   -0.119641
    24  C   -0.248091
    25  C   -0.290534
    26  C   -0.035755
    27  O   -0.609437
    28  C   -0.133017
    29  C   -0.143186
    30  H    0.149165
    31  H    0.148898
    32  H    0.119340
    33  H    0.138047
    34  H    0.109957
    35  H    0.146292
    36  H    0.150801
    37  H    0.124614
    38  H    0.145155
    39  H    0.156330
    40  H    0.144005
    41  H    0.170964
    42  H    0.184700
    43  H    0.139959
    44  H    0.143973
    45  H    0.133835
    46  H    0.133386
    47  H    0.145307
    48  H    0.133089
    49  H    0.194052
    50  H    0.129659
    51  H    0.134512
    52  H    0.138485
    53  H    0.153992
    54  H    0.117876
    55  H    0.148817
    56  H    0.116330
    57  H    0.388882
    58  H    0.136535
    59  H    0.145861
    60  H    0.112452
    61  H    0.141063
 Sum of Mulliken charges =  -0.00000

 Dipole moment (field-independent basis, Debye):
    X=             -5.8881    Y=             -1.4819    Z=             -1.6244  Tot=              6.2853
 Quadrupole moment (field-independent basis, Debye-Ang):
   XX=           -179.9442   YY=           -156.7966   ZZ=           -177.8013
   XY=             -7.1701   XZ=             -3.2102   YZ=             -7.6842

 Normal termination of Gaussian 16 at Fri Nov  4 19:36:34 2022.
