 Gaussian 16, Revision B.01,
 Gaussian 16:  ES64L-G16RevB.01 20-Dec-2017

 -------------------------------------------------------------------
 #p b3lyp/6-31g(d) 6D 10F nosymm GFInput td=(50-50,nstate=2) SCF=XQC
 -------------------------------------------------------------------

 ------------------------------
 Gaussian input prepared by ASE
 ------------------------------
 Symbolic Z-matrix:
 Charge =  0 Multiplicity = 1

                          Input orientation:
 ---------------------------------------------------------------------
 Center     Atomic      Atomic             Coordinates (Angstroms)
 Number     Number       Type             X           Y           Z
 ---------------------------------------------------------------------
      1          6           0       -4.585532    3.497664   -0.449890
      2          7           0       -4.014497    2.186759   -0.197668
      3          6           0       -3.533957    2.053692    1.178828
      4          6           0       -3.244620    0.564384    1.497296
      5          7           0       -2.926210   -0.242727    0.320318
      6          6           0       -1.649373    0.049427   -0.371057
      7          6           0       -0.500703    0.311531    0.622774
      8          6           0        0.845505    0.534312   -0.082406
      9          7           0        1.149662   -0.524792   -1.042231
     10          6           0        2.419706   -0.958626   -1.347326
     11          8           0        2.683483   -1.585750   -2.366713
     12          6           0        3.515471   -0.695180   -0.336378
     13          6           0        3.850245   -1.681150    0.567824
     14          6           0        4.926197   -1.456219    1.460819
     15          7           0        5.652221   -0.357024    1.494419
     16          6           0        5.353816    0.621335    0.588842
     17          6           0        6.139030    1.804765    0.599842
     18          6           0        5.892112    2.818683   -0.297605
     19          6           0        4.851294    2.693809   -1.250443
     20          6           0        4.068730    1.561243   -1.284404
     21          6           0        4.292537    0.500419   -0.365956
     22          6           0        0.088671   -0.778170   -2.012208
     23          6           0       -1.271547   -1.091740   -1.361013
     24          6           0       -1.459682   -2.562679   -0.880694
     25          6           0       -1.106348   -3.044140    0.540839
     26          6           0        0.370473   -3.153145    0.924290
     27          8           0        1.162639   -3.885415   -0.008131
     28          6           0       -4.109094   -0.246968   -0.560847
     29          6           0       -4.907696    1.086669   -0.539707
     30          1           0       -3.842546    4.270788   -0.221850
     31          1           0       -4.858367    3.588388   -1.507182
     32          1           0       -5.487687    3.706592    0.158862
     33          1           0       -2.630425    2.668591    1.286119
     34          1           0       -4.272189    2.439845    1.912156
     35          1           0       -4.137604    0.112547    1.948143
     36          1           0       -2.455750    0.481892    2.248589
     37          1           0       -1.746122    0.966379   -0.980234
     38          1           0       -0.702085    1.217995    1.204045
     39          1           0       -0.416528   -0.511746    1.337080
     40          1           0        0.817269    1.502757   -0.609369
     41          1           0        1.646242    0.592387    0.656954
     42          1           0        3.304302   -2.620146    0.586770
     43          1           0        5.188436   -2.229449    2.182893
     44          1           0        6.935561    1.869060    1.334594
     45          1           0        6.500658    3.718891   -0.283669
     46          1           0        4.675488    3.495562   -1.962461
     47          1           0        3.285809    1.459282   -2.031112
     48          1           0       -0.024903    0.111912   -2.654178
     49          1           0        0.418044   -1.598199   -2.650396
     50          1           0       -1.965032   -1.011021   -2.209556
     51          1           0       -2.526228   -2.787111   -1.001473
     52          1           0       -0.935592   -3.204667   -1.600515
     53          1           0       -1.623171   -2.423421    1.281614
     54          1           0       -1.547433   -4.048725    0.643006
     55          1           0        0.842711   -2.171359    0.966880
     56          1           0        0.445192   -3.595353    1.931901
     57          1           0        0.823620   -4.793610   -0.045249
     58          1           0       -4.777024   -1.067691   -0.262125
     59          1           0       -3.786917   -0.456397   -1.582542
     60          1           0       -5.763083    1.017667    0.163610
     61          1           0       -5.337174    1.277392   -1.529748
 ---------------------------------------------------------------------

 SCF Done:  E(RB3LYP) =  -1265.13501658     A.U. after   16 cycles

 Excitation energies and oscillator strengths:

 Excited state symmetry could not be determined.
 Excited State   1:      Triplet-?Sym    2.7814 eV  445.77 nm  f=0.0000  <S**2>=2.000
      99 ->111        -0.11639
     102 ->109         0.16958
     103 ->108        -0.11608
     104 ->108        -0.22432
     105 ->108         0.61756
 This state for optimization and/or second-order correction.
 Total Energy, E(TD-HF/TD-DFT) =  -1265.03280384
 Copying the excited state density for this state as the 1-particle RhoCI density.

 Excited state symmetry could not be determined.
 Excited State   2:      Triplet-?Sym    3.6732 eV  337.54 nm  f=0.0000  <S**2>=2.000
     101 ->108        -0.31533
     102 ->108        -0.10318
     103 ->108         0.53719
     104 ->108         0.19541
     105 ->108         0.15107

 Excited state symmetry could not be determined.
 Excited State   3:      Singlet-?Sym    3.8895 eV  318.76 nm  f=0.0004  <S**2>=0.000
     107 ->108         0.70481

 Excited state symmetry could not be determined.
 Excited State   4:      Singlet-?Sym    4.0944 eV  302.82 nm  f=0.0268  <S**2>=0.000
     101 ->108        -0.17242
     103 ->108         0.39875
     104 ->108         0.25331
     105 ->108         0.48572

 Alpha  occ. eigenvalues --  -19.14428 -19.10854 -14.35953 -14.33000 -14.32581
 Alpha  occ. eigenvalues --  -14.32217 -10.28294 -10.22732 -10.22425 -10.22001
 Alpha  occ. eigenvalues --  -10.21893 -10.21660 -10.21296 -10.21201 -10.21091
 Alpha  occ. eigenvalues --  -10.21067 -10.21052 -10.21031 -10.20742 -10.20319
 Alpha  occ. eigenvalues --  -10.19425 -10.19363 -10.19305 -10.19207 -10.19205
 Alpha  occ. eigenvalues --  -10.19116 -10.18671 -10.17958 -10.17891  -1.02841
 Alpha  occ. eigenvalues --   -1.01326  -0.94690  -0.93641  -0.93438  -0.90079
 Alpha  occ. eigenvalues --   -0.84492  -0.81309  -0.80076  -0.77920  -0.75967
 Alpha  occ. eigenvalues --   -0.75330  -0.74649  -0.73804  -0.72193  -0.68640
 Alpha  occ. eigenvalues --   -0.67971  -0.65251  -0.64739  -0.63184  -0.62683
 Alpha  occ. eigenvalues --   -0.62505  -0.60454  -0.59725  -0.56255  -0.54849
 Alpha  occ. eigenvalues --   -0.53038  -0.52742  -0.51698  -0.50979  -0.50432
 Alpha  occ. eigenvalues --   -0.49230  -0.48677  -0.48151  -0.46817  -0.46553
 Alpha  occ. eigenvalues --   -0.46173  -0.45519  -0.45347  -0.44607  -0.44025
 Alpha  occ. eigenvalues --   -0.43240  -0.43044  -0.42886  -0.41988  -0.41868
 Alpha  occ. eigenvalues --   -0.41222  -0.40992  -0.40625  -0.40138  -0.39417
 Alpha  occ. eigenvalues --   -0.39249  -0.38377  -0.38050  -0.37488  -0.37200
 Alpha  occ. eigenvalues --   -0.36311  -0.36258  -0.35650  -0.35410  -0.35334
 Alpha  occ. eigenvalues --   -0.34586  -0.34123  -0.33746  -0.33639  -0.33294
 Alpha  occ. eigenvalues --   -0.31317  -0.31183  -0.30599  -0.30069  -0.26534
 Alpha  occ. eigenvalues --   -0.25638  -0.24706  -0.24128  -0.23541  -0.22275
 Alpha  occ. eigenvalues --   -0.21911  -0.20484
 Alpha virt. eigenvalues --   -0.04837  -0.01111   0.02054   0.02357   0.06000
 Alpha virt. eigenvalues --    0.07034   0.08712   0.08778   0.09401   0.09748
 Alpha virt. eigenvalues --    0.10162   0.10940   0.11860   0.12129   0.12739

 Mulliken charges:
               1
     1  C   -0.291248
     2  N   -0.377592
     3  C   -0.118990
     4  C   -0.176587
     5  N   -0.405516
     6  C    0.068580
     7  C   -0.308164
     8  C   -0.148084
     9  N   -0.422463
    10  C    0.510629
    11  O   -0.494850
    12  C    0.014787
    13  C   -0.198268
    14  C    0.041133
    15  N   -0.495742
    16  C    0.228850
    17  C   -0.140305
    18  C   -0.136491
    19  C   -0.133474
    20  C   -0.199076
    21  C    0.135600
    22  C   -0.149408
    23  C   -0.119628
    24  C   -0.248075
    25  C   -0.290530
    26  C   -0.035783
    27  O   -0.609424
    28  C   -0.133011
    29  C   -0.143183
    30  H    0.149164
    31  H    0.148898
    32  H    0.119340
    33  H    0.138049
    34  H    0.109957
    35  H    0.146291
    36  H    0.150800
    37  H    0.124617
    38  H    0.145150
    39  H    0.156325
    40  H    0.144006
    41  H    0.170963
    42  H    0.184700
    43  H    0.139959
    44  H    0.143973
    45  H    0.133836
    46  H    0.133387
    47  H    0.145308
    48  H    0.133089
    49  H    0.194053
    50  H    0.129652
    51  H    0.134510
    52  H    0.138481
    53  H    0.153990
    54  H    0.117876
    55  H    0.148824
    56  H    0.116332
    57  H    0.388880
    58  H    0.136534
    59  H    0.145858
    60  H    0.112451
    61  H    0.141062
 Sum of Mulliken charges =  -0.00000

 Dipole moment (field-independent basis, Debye):
    X=             -5.8206    Y=              1.8012    Z=              1.5427  Tot=              6.2852
 Quadrupole moment (field-independent basis, Debye-Ang):
   XX=           -186.1754   YY=           -158.3027   ZZ=           -177.8310
   XY=              9.9567   XZ=              4.4816   YZ=             -8.7686

 Normal termination of Gaussian 16 at Sat Nov  5 11:22:04 2022.
