 Gaussian 16, Revision B.01,
 Gaussian 16:  ES64L-G16RevB.01 20-Dec-2017

 -------------------------------------------------------------------
 #p b3lyp/6-31g(d) 6D 10F nosymm GFInput td=(50-50,nstate=2) SCF=XQC
 -------------------------------------------------------------------

 ------------------------------
 Gaussian input prepared by ASE
 ------------------------------
 Symbolic Z-matrix:
 Charge =  0 Multiplicity = 1

                          Input orientation:
 ---------------------------------------------------------------------
 Center     Atomic      Atomic             Coordinates (Angstroms)
 Number     Number       Type             X           Y           Z
 ---------------------------------------------------------------------
      1          6           0       -3.957409    1.657223   -0.737745
      2          7           0       -4.322929    0.993080    0.501804
      3          6           0       -3.605851    1.455590    1.680609
      4          6           0       -2.064195    1.299008    1.672294
      5          6           0       -1.556464   -0.149142    1.719732
      6          7           0       -2.171698   -1.022171    0.718494
      7          6           0       -1.622662   -1.407440   -0.479888
      8          8           0       -2.261835   -2.092059   -1.278615
      9          6           0       -0.176053   -1.013965   -0.793124
     10          6           0        0.799552   -2.096515   -0.245901
     11          6           0        2.097322   -2.154304   -1.080350
     12          7           0        2.391155   -0.829218   -1.637103
     13         16           0        3.905433   -0.173117   -1.515764
     14          8           0        3.992453    0.898811   -2.506984
     15          8           0        4.902256   -1.247270   -1.456712
     16          6           0        3.946046    0.587731    0.125960
     17          6           0        4.994849    0.264923    0.988884
     18          6           0        5.058467    0.885347    2.230901
     19          9           0        6.067855    0.570940    3.064659
     20          6           0        4.112804    1.819848    2.638839
     21          6           0        3.064901    2.140374    1.775260
     22          6           0        2.995189    1.525937    0.531933
     23          9           0        1.964086    1.837743   -0.282975
     24          6           0        1.421616   -0.286732   -2.612678
     25          6           0        0.025758   -0.862394   -2.309332
     26          6           0       -3.558516   -1.405889    0.985412
     27          6           0       -4.608769   -0.437050    0.395921
     28          1           0       -3.936475    2.741798   -0.573211
     29          1           0       -4.717197    1.455296   -1.500387
     30          1           0       -2.978674    1.363689   -1.159767
     31          1           0       -4.025194    0.949461    2.561050
     32          1           0       -3.828254    2.524179    1.810269
     33          1           0       -1.659261    1.795293    0.781087
     34          1           0       -1.652516    1.834608    2.540001
     35          1           0       -1.775861   -0.581656    2.705633
     36          1           0       -0.470505   -0.172658    1.612372
     37          1           0        0.077008   -0.053782   -0.333339
     38          1           0        0.316830   -3.080109   -0.282625
     39          1           0        1.033411   -1.889526    0.804983
     40          1           0        2.945561   -2.483422   -0.477989
     41          1           0        1.998691   -2.876448   -1.901836
     42          1           0        5.742241   -0.460012    0.688233
     43          1           0        4.200432    2.282560    3.615866
     44          1           0        2.304897    2.863711    2.051087
     45          1           0        1.417407    0.800277   -2.516236
     46          1           0        1.723639   -0.529273   -3.639583
     47          1           0       -0.119739   -1.834580   -2.789560
     48          1           0       -0.730206   -0.196622   -2.738352
     49          1           0       -3.729002   -2.403658    0.573297
     50          1           0       -3.669981   -1.466499    2.073500
     51          1           0       -5.566763   -0.668427    0.890087
     52          1           0       -4.733846   -0.673487   -0.664135
 ---------------------------------------------------------------------

 SCF Done:  E(RB3LYP) =  -1688.67238548     A.U. after   15 cycles

 Excitation energies and oscillator strengths:

 Excited state symmetry could not be determined.
 Excited State   1:      Triplet-?Sym    3.6462 eV  340.04 nm  f=0.0000  <S**2>=2.000
      98 ->107         0.10899
      99 ->107        -0.11142
     101 ->107         0.36845
     102 ->107         0.16568
     102 ->108        -0.37988
     104 ->107        -0.35681
     104 ->108         0.15165
 This state for optimization and/or second-order correction.
 Total Energy, E(TD-HF/TD-DFT) =  -1688.53839113
 Copying the excited state density for this state as the 1-particle RhoCI density.

 Excited state symmetry could not be determined.
 Excited State   2:      Triplet-?Sym    3.7229 eV  333.03 nm  f=0.0000  <S**2>=2.000
     106 ->107         0.70703

 Excited state symmetry could not be determined.
 Excited State   3:      Singlet-?Sym    3.7230 eV  333.02 nm  f=0.0000  <S**2>=0.000
     106 ->107         0.70707

 Excited state symmetry could not be determined.
 Excited State   4:      Singlet-?Sym    4.5020 eV  275.40 nm  f=0.0000  <S**2>=0.000
     106 ->108         0.70704

 Alpha  occ. eigenvalues --  -89.12101 -24.73718 -24.72321 -19.14649 -19.14524
 Alpha  occ. eigenvalues --  -19.10973 -14.36959 -14.36653 -14.32346 -10.30536
 Alpha  occ. eigenvalues --  -10.29680 -10.28416 -10.24571 -10.23548 -10.23467
 Alpha  occ. eigenvalues --  -10.23044 -10.22957 -10.22794 -10.22769 -10.21869
 Alpha  occ. eigenvalues --  -10.21819 -10.21012 -10.20668 -10.20482 -10.20259
 Alpha  occ. eigenvalues --  -10.19597 -10.19349  -8.14442  -6.10938  -6.10868
 Alpha  occ. eigenvalues --   -6.10796  -1.24700  -1.23571  -1.11550  -1.03120
 Alpha  occ. eigenvalues --   -1.00516  -0.94468  -0.94201  -0.91079  -0.89661
 Alpha  occ. eigenvalues --   -0.81845  -0.79889  -0.79148  -0.77593  -0.77049
 Alpha  occ. eigenvalues --   -0.74583  -0.71613  -0.70516  -0.67806  -0.66466
 Alpha  occ. eigenvalues --   -0.64969  -0.64798  -0.64121  -0.61542  -0.58124
 Alpha  occ. eigenvalues --   -0.57059  -0.56017  -0.55169  -0.54197  -0.53257
 Alpha  occ. eigenvalues --   -0.52829  -0.52323  -0.50205  -0.49714  -0.48981
 Alpha  occ. eigenvalues --   -0.48547  -0.48364  -0.47514  -0.47251  -0.46747
 Alpha  occ. eigenvalues --   -0.46211  -0.45445  -0.45310  -0.44699  -0.44202
 Alpha  occ. eigenvalues --   -0.43682  -0.43161  -0.42727  -0.42329  -0.41582
 Alpha  occ. eigenvalues --   -0.41150  -0.40147  -0.39961  -0.38589  -0.38424
 Alpha  occ. eigenvalues --   -0.38183  -0.37991  -0.37730  -0.37087  -0.36427
 Alpha  occ. eigenvalues --   -0.36060  -0.35522  -0.35269  -0.34939  -0.34160
 Alpha  occ. eigenvalues --   -0.33599  -0.33000  -0.32326  -0.31184  -0.30484
 Alpha  occ. eigenvalues --   -0.29007  -0.26472  -0.24870  -0.24687  -0.24095
 Alpha  occ. eigenvalues --   -0.20086
 Alpha virt. eigenvalues --   -0.05123  -0.02226   0.01955   0.03922   0.05329
 Alpha virt. eigenvalues --    0.07641   0.08041   0.08658   0.08719   0.09194
 Alpha virt. eigenvalues --    0.09908   0.10437   0.11212   0.11901   0.12526

 Mulliken charges:
               1
     1  C   -0.303475
     2  N   -0.362369
     3  C   -0.147385
     4  C   -0.261762
     5  C   -0.163120
     6  N   -0.417495
     7  C    0.602666
     8  O   -0.537570
     9  C   -0.180999
    10  C   -0.278621
    11  C   -0.145488
    12  N   -0.569776
    13  S    1.251269
    14  O   -0.526676
    15  O   -0.539760
    16  C   -0.228843
    17  C   -0.221882
    18  C    0.395491
    19  F   -0.288163
    20  C   -0.192963
    21  C   -0.191136
    22  C    0.382133
    23  F   -0.278875
    24  C   -0.108377
    25  C   -0.308661
    26  C   -0.164136
    27  C   -0.128365
    28  H    0.143355
    29  H    0.155671
    30  H    0.126239
    31  H    0.135400
    32  H    0.142185
    33  H    0.147734
    34  H    0.129459
    35  H    0.147753
    36  H    0.157980
    37  H    0.148218
    38  H    0.162741
    39  H    0.143989
    40  H    0.184971
    41  H    0.166728
    42  H    0.204475
    43  H    0.166231
    44  H    0.164149
    45  H    0.178385
    46  H    0.162571
    47  H    0.170072
    48  H    0.159313
    49  H    0.180369
    50  H    0.136869
    51  H    0.134206
    52  H    0.165278
 Sum of Mulliken charges =  -0.00000

 Dipole moment (field-independent basis, Debye):
    X=             -2.7208    Y=              1.5319    Z=              5.2614  Tot=              6.1182
 Quadrupole moment (field-independent basis, Debye-Ang):
   XX=           -193.6269   YY=           -164.2165   ZZ=           -164.6449
   XY=             -1.4246   XZ=              9.8253   YZ=              2.6937

 Normal termination of Gaussian 16 at Sat Nov  5 11:13:55 2022.
