 Gaussian 16, Revision B.01,
 Gaussian 16:  ES64L-G16RevB.01 20-Dec-2017

 -----------------------------
 #p b3lyp/6-31g(d) opt SCF=XQC
 -----------------------------

 ------------------------------
 Gaussian input prepared by ASE
 ------------------------------
 Symbolic Z-matrix:
 Charge =  0 Multiplicity = 1

 SCF Done:  E(RB3LYP) =  -1688.65697081     A.U. after   15 cycles
 SCF Done:  E(RB3LYP) =  -1688.66506218     A.U. after   14 cycles
 SCF Done:  E(RB3LYP) =  -1688.66831568     A.U. after   13 cycles
 SCF Done:  E(RB3LYP) =  -1688.66959710     A.U. after   12 cycles
 SCF Done:  E(RB3LYP) =  -1688.66984057     A.U. after   12 cycles
 SCF Done:  E(RB3LYP) =  -1688.67032490     A.U. after   12 cycles
 SCF Done:  E(RB3LYP) =  -1688.67068625     A.U. after   12 cycles
 SCF Done:  E(RB3LYP) =  -1688.67101901     A.U. after   12 cycles
 SCF Done:  E(RB3LYP) =  -1688.67118860     A.U. after   11 cycles
 SCF Done:  E(RB3LYP) =  -1688.67128614     A.U. after   11 cycles
 SCF Done:  E(RB3LYP) =  -1688.67215355     A.U. after   12 cycles
 SCF Done:  E(RB3LYP) =  -1688.67226803     A.U. after   11 cycles
 SCF Done:  E(RB3LYP) =  -1688.67235371     A.U. after   11 cycles
 SCF Done:  E(RB3LYP) =  -1688.67238298     A.U. after   10 cycles
 SCF Done:  E(RB3LYP) =  -1688.67237863     A.U. after    9 cycles
 SCF Done:  E(RB3LYP) =  -1688.67238742     A.U. after    9 cycles
 SCF Done:  E(RB3LYP) =  -1688.67238826     A.U. after    8 cycles
 SCF Done:  E(RB3LYP) =  -1688.67238768     A.U. after    9 cycles
 SCF Done:  E(RB3LYP) =  -1688.67238855     A.U. after    9 cycles
 SCF Done:  E(RB3LYP) =  -1688.67238858     A.U. after    6 cycles
 Optimization completed.
    -- Stationary point found.

                         Standard orientation:
 ---------------------------------------------------------------------
 Center     Atomic      Atomic             Coordinates (Angstroms)
 Number     Number       Type             X           Y           Z
 ---------------------------------------------------------------------
      1          6           0        4.708927    0.351819    2.024790
      2          7           0        5.121370    1.059650    0.824774
      3          6           0        4.390162    2.288598    0.555109
      4          6           0        2.859492    2.164972    0.347613
      5          6           0        2.432938    1.427649   -0.929723
      6          7           0        3.086682    0.129807   -1.106915
      7          6           0        2.549320   -1.102539   -0.826636
      8          8           0        3.218328   -2.128374   -0.950338
      9          6           0        1.080511   -1.191584   -0.402033
     10          6           0        0.170989   -1.321730   -1.658617
     11          6           0       -1.128844   -2.088439   -1.332361
     12          7           0       -1.500250   -1.865758    0.069294
     13         16           0       -3.047332   -1.448687    0.482597
     14          8           0       -3.202062   -1.723976    1.910670
     15          8           0       -3.982764   -1.988906   -0.509411
     16          6           0       -3.115568    0.345584    0.255147
     17          6           0       -4.137372    0.883715   -0.529175
     18          6           0       -4.224311    2.264139   -0.664996
     19          9           0       -5.207481    2.782840   -1.424730
     20          6           0       -3.328172    3.125415   -0.041198
     21          6           0       -2.307146    2.585500    0.741493
     22          6           0       -2.214464    1.207266    0.883390
     23          9           0       -1.209305    0.703651    1.632054
     24          6           0       -0.570701   -2.384900    1.095194
     25          6           0        0.857412   -2.401779    0.518967
     26          6           0        4.494850    0.183423   -1.501802
     27          6           0        5.484814    0.219167   -0.315263
     28          1           0        4.629569    1.064946    2.854829
     29          1           0        5.472020   -0.385299    2.296857
     30          1           0        3.744249   -0.182881    1.949429
     31          1           0        4.844484    2.776651   -0.318153
     32          1           0        4.554339    2.969004    1.402606
     33          1           0        2.420006    1.662892    1.218984
     34          1           0        2.426453    3.175416    0.320317
     35          1           0        2.684482    2.039743   -1.806804
     36          1           0        1.349040    1.300406   -0.948651
     37          1           0        0.778835   -0.298943    0.154365
     38          1           0        0.706951   -1.862912   -2.447091
     39          1           0       -0.064763   -0.325958   -2.052002
     40          1           0       -1.952324   -1.770267   -1.973698
     41          1           0       -0.997659   -3.165254   -1.503593
     42          1           0       -4.846188    0.228689   -1.022165
     43          1           0       -3.432687    4.197085   -0.171430
     44          1           0       -1.585867    3.218902    1.246926
     45          1           0       -0.625683   -1.727688    1.964652
     46          1           0       -0.867821   -3.390864    1.418203
     47          1           0        1.052176   -3.320463   -0.042299
     48          1           0        1.571683   -2.396765    1.348777
     49          1           0        4.716572   -0.690483   -2.119520
     50          1           0        4.618985    1.076667   -2.123686
     51          1           0        6.458399    0.536785   -0.723598
     52          1           0        5.613499   -0.802348    0.052449
 ---------------------------------------------------------------------

 The electronic state is 1-A.
 Alpha  occ. eigenvalues --  -89.12101 -24.73717 -24.72321 -19.14649 -19.14524
 Alpha  occ. eigenvalues --  -19.10973 -14.36958 -14.36653 -14.32346 -10.30536
 Alpha  occ. eigenvalues --  -10.29680 -10.28416 -10.24571 -10.23548 -10.23467
 Alpha  occ. eigenvalues --  -10.23044 -10.22957 -10.22794 -10.22769 -10.21869
 Alpha  occ. eigenvalues --  -10.21819 -10.21012 -10.20668 -10.20482 -10.20259
 Alpha  occ. eigenvalues --  -10.19597 -10.19349  -8.14442  -6.10938  -6.10868
 Alpha  occ. eigenvalues --   -6.10796  -1.24700  -1.23571  -1.11550  -1.03120
 Alpha  occ. eigenvalues --   -1.00516  -0.94468  -0.94201  -0.91079  -0.89661
 Alpha  occ. eigenvalues --   -0.81845  -0.79889  -0.79148  -0.77593  -0.77049
 Alpha  occ. eigenvalues --   -0.74583  -0.71613  -0.70516  -0.67807  -0.66466
 Alpha  occ. eigenvalues --   -0.64969  -0.64798  -0.64121  -0.61542  -0.58124
 Alpha  occ. eigenvalues --   -0.57059  -0.56017  -0.55169  -0.54197  -0.53257
 Alpha  occ. eigenvalues --   -0.52829  -0.52323  -0.50205  -0.49715  -0.48980
 Alpha  occ. eigenvalues --   -0.48547  -0.48364  -0.47514  -0.47251  -0.46747
 Alpha  occ. eigenvalues --   -0.46211  -0.45445  -0.45310  -0.44699  -0.44202
 Alpha  occ. eigenvalues --   -0.43682  -0.43161  -0.42727  -0.42329  -0.41582
 Alpha  occ. eigenvalues --   -0.41150  -0.40147  -0.39961  -0.38589  -0.38424
 Alpha  occ. eigenvalues --   -0.38183  -0.37991  -0.37730  -0.37087  -0.36427
 Alpha  occ. eigenvalues --   -0.36060  -0.35522  -0.35269  -0.34939  -0.34160
 Alpha  occ. eigenvalues --   -0.33599  -0.33000  -0.32326  -0.31184  -0.30484
 Alpha  occ. eigenvalues --   -0.29007  -0.26472  -0.24870  -0.24687  -0.24095
 Alpha  occ. eigenvalues --   -0.20086
 Alpha virt. eigenvalues --   -0.05123  -0.02226   0.01955   0.03922   0.05329
 Alpha virt. eigenvalues --    0.07641   0.08041   0.08658   0.08719   0.09194
 Alpha virt. eigenvalues --    0.09908   0.10437   0.11212   0.11901   0.12526

 Mulliken charges:
               1
     1  C   -0.303468
     2  N   -0.362358
     3  C   -0.147422
     4  C   -0.261748
     5  C   -0.163094
     6  N   -0.417517
     7  C    0.602676
     8  O   -0.537579
     9  C   -0.181004
    10  C   -0.278607
    11  C   -0.145477
    12  N   -0.569777
    13  S    1.251278
    14  O   -0.526667
    15  O   -0.539765
    16  C   -0.228850
    17  C   -0.221879
    18  C    0.395492
    19  F   -0.288163
    20  C   -0.192953
    21  C   -0.191141
    22  C    0.382132
    23  F   -0.278882
    24  C   -0.108374
    25  C   -0.308687
    26  C   -0.164096
    27  C   -0.128390
    28  H    0.143353
    29  H    0.155669
    30  H    0.126238
    31  H    0.135405
    32  H    0.142190
    33  H    0.147731
    34  H    0.129458
    35  H    0.147749
    36  H    0.157976
    37  H    0.148221
    38  H    0.162738
    39  H    0.143988
    40  H    0.184964
    41  H    0.166726
    42  H    0.204472
    43  H    0.166229
    44  H    0.164153
    45  H    0.178383
    46  H    0.162571
    47  H    0.170076
    48  H    0.159316
    49  H    0.180364
    50  H    0.136864
    51  H    0.134207
    52  H    0.165279
 Sum of Mulliken charges =  -0.00000

 Dipole moment (field-independent basis, Debye):
    X=              2.6778    Y=              5.3328    Z=             -1.3496  Tot=              6.1181
 Quadrupole moment (field-independent basis, Debye-Ang):
   XX=           -189.2830   YY=           -162.3028   ZZ=           -166.2445
   XY=             -3.7293   XZ=              3.8996   YZ=              1.2154

 Normal termination of Gaussian 16 at Fri Nov  4 19:32:17 2022.
