 Gaussian 16, Revision B.01,
 Gaussian 16:  ES64L-G16RevB.01 20-Dec-2017

 -----------------------------
 #p b3lyp/6-31g(d) opt SCF=XQC
 -----------------------------

 ------------------------------
 Gaussian input prepared by ASE
 ------------------------------
 Symbolic Z-matrix:
 Charge =  0 Multiplicity = 1

 SCF Done:  E(RB3LYP) =  -905.101252276     A.U. after   14 cycles
 SCF Done:  E(RB3LYP) =  -905.104793085     A.U. after   12 cycles
 SCF Done:  E(RB3LYP) =  -905.105614131     A.U. after   12 cycles
 SCF Done:  E(RB3LYP) =  -905.105957966     A.U. after   12 cycles
 SCF Done:  E(RB3LYP) =  -905.106452428     A.U. after   11 cycles
 SCF Done:  E(RB3LYP) =  -905.106564099     A.U. after   11 cycles
 SCF Done:  E(RB3LYP) =  -905.106621118     A.U. after   10 cycles
 SCF Done:  E(RB3LYP) =  -905.106662175     A.U. after   10 cycles
 SCF Done:  E(RB3LYP) =  -905.106724303     A.U. after   11 cycles
 SCF Done:  E(RB3LYP) =  -905.106863945     A.U. after   11 cycles
 SCF Done:  E(RB3LYP) =  -905.108427815     A.U. after    7 cycles
 SCF Done:  E(RB3LYP) =  -905.108428148     A.U. after    7 cycles
 SCF Done:  E(RB3LYP) =  -905.108428279     A.U. after    7 cycles
 SCF Done:  E(RB3LYP) =  -905.108428380     A.U. after    7 cycles
 SCF Done:  E(RB3LYP) =  -905.108428532     A.U. after    8 cycles
 SCF Done:  E(RB3LYP) =  -905.108428705     A.U. after    9 cycles
 SCF Done:  E(RB3LYP) =  -905.108428848     A.U. after    8 cycles
 SCF Done:  E(RB3LYP) =  -905.108428918     A.U. after    7 cycles
 SCF Done:  E(RB3LYP) =  -905.108428936     A.U. after    7 cycles
 SCF Done:  E(RB3LYP) =  -905.108428942     A.U. after    6 cycles
 Optimization completed.
    -- Stationary point found.

                         Standard orientation:
 ---------------------------------------------------------------------
 Center     Atomic      Atomic             Coordinates (Angstroms)
 Number     Number       Type             X           Y           Z
 ---------------------------------------------------------------------
      1          6           0        0.031579    2.657911   -1.641141
      2          6           0        0.194297    2.441021   -0.334549
      3          6           0        1.501141    2.048514    0.293715
      4          8           0        1.411226    0.790934    1.004748
      5          6           0        1.478860   -0.346346    0.221631
      6          6           0        0.355679   -1.174357    0.079746
      7          6           0       -0.971118   -0.830537    0.722783
      8          7           0       -1.983313   -0.571778   -0.313845
      9          6           0       -3.254901   -0.019216    0.181384
     10          6           0       -4.022660   -1.085957    0.985998
     11          6           0       -5.315822   -0.604938    1.655103
     12          6           0       -4.032670    0.474725   -1.046766
     13          8           0       -5.043604    1.387499   -0.629397
     14          6           0        0.468379   -2.335781   -0.698940
     15          6           0        1.666792   -2.673902   -1.320216
     16          6           0        2.789514   -1.859964   -1.154714
     17          6           0        2.702679   -0.705582   -0.380816
     18          8           0        3.814238    0.102527   -0.252360
     19          6           0        4.465397    0.034541    1.030500
     20          6           0        5.656809    0.974698    0.995892
     21          1           0        0.854318    2.544139   -2.344176
     22          1           0       -0.922962    2.970549   -2.057022
     23          1           0       -0.646253    2.560777    0.348962
     24          1           0        2.303568    2.002638   -0.448584
     25          1           0        1.784688    2.771681    1.066696
     26          1           0       -0.841096    0.017014    1.413035
     27          1           0       -1.299070   -1.685682    1.324974
     28          1           0       -1.572031    0.101689   -0.959870
     29          1           0       -3.093084    0.861567    0.834866
     30          1           0       -3.359400   -1.477472    1.766916
     31          1           0       -4.229886   -1.929556    0.313143
     32          1           0       -5.762453   -1.415567    2.242858
     33          1           0       -6.050775   -0.260080    0.924327
     34          1           0       -5.120030    0.232225    2.335762
     35          1           0       -3.332868    0.973882   -1.739252
     36          1           0       -4.459019   -0.388601   -1.580791
     37          1           0       -5.594573    1.590101   -1.400127
     38          1           0       -0.411568   -2.960218   -0.824492
     39          1           0        1.734287   -3.574132   -1.924834
     40          1           0        3.742608   -2.102012   -1.615671
     41          1           0        4.787019   -1.000696    1.213002
     42          1           0        3.757164    0.316834    1.818197
     43          1           0        5.332813    2.006041    0.821560
     44          1           0        6.348975    0.692648    0.195893
     45          1           0        6.194198    0.938006    1.949973
 ---------------------------------------------------------------------

 The electronic state is 1-A.
 Alpha  occ. eigenvalues --  -19.16325 -19.15775 -19.14385 -14.30961 -10.23918
 Alpha  occ. eigenvalues --  -10.23567 -10.23404 -10.23240 -10.22766 -10.20477
 Alpha  occ. eigenvalues --  -10.20090 -10.19696 -10.19324 -10.18884 -10.18368
 Alpha  occ. eigenvalues --  -10.18275 -10.17990 -10.17895 -10.17037 -10.15937
 Alpha  occ. eigenvalues --   -1.05411  -1.03235  -1.01553  -0.89822  -0.84360
 Alpha  occ. eigenvalues --   -0.79166  -0.77768  -0.76262  -0.74347  -0.72264
 Alpha  occ. eigenvalues --   -0.70504  -0.67958  -0.64968  -0.62581  -0.62276
 Alpha  occ. eigenvalues --   -0.58866  -0.58106  -0.56529  -0.55645  -0.52198
 Alpha  occ. eigenvalues --   -0.51169  -0.50567  -0.48908  -0.47177  -0.46991
 Alpha  occ. eigenvalues --   -0.46244  -0.45951  -0.45075  -0.44603  -0.44128
 Alpha  occ. eigenvalues --   -0.43253  -0.42011  -0.41289  -0.40717  -0.39218
 Alpha  occ. eigenvalues --   -0.38923  -0.38223  -0.37855  -0.37118  -0.36516
 Alpha  occ. eigenvalues --   -0.36188  -0.35817  -0.35005  -0.34633  -0.34145
 Alpha  occ. eigenvalues --   -0.33050  -0.32464  -0.31900  -0.30725  -0.29016
 Alpha  occ. eigenvalues --   -0.27481  -0.26344  -0.25965  -0.23448  -0.22542
 Alpha  occ. eigenvalues --   -0.21396
 Alpha virt. eigenvalues --   -0.00296   0.00519   0.01129   0.06915   0.08170
 Alpha virt. eigenvalues --    0.09397   0.10608   0.11258   0.11742   0.12762
 Alpha virt. eigenvalues --    0.12874   0.13737   0.14243   0.14600   0.14686

 Mulliken charges:
               1
     1  C   -0.337978
     2  C   -0.065152
     3  C   -0.095098
     4  O   -0.542169
     5  C    0.259082
     6  C    0.091597
     7  C   -0.193915
     8  N   -0.587570
     9  C    0.062727
    10  C   -0.256149
    11  C   -0.438471
    12  C   -0.045952
    13  O   -0.617001
    14  C   -0.174889
    15  C   -0.136889
    16  C   -0.180303
    17  C    0.333857
    18  O   -0.544580
    19  C   -0.026905
    20  C   -0.457073
    21  H    0.151638
    22  H    0.149359
    23  H    0.147176
    24  H    0.168845
    25  H    0.152221
    26  H    0.138639
    27  H    0.151457
    28  H    0.298017
    29  H    0.113901
    30  H    0.135148
    31  H    0.133793
    32  H    0.131356
    33  H    0.158177
    34  H    0.141278
    35  H    0.111706
    36  H    0.129746
    37  H    0.393045
    38  H    0.136957
    39  H    0.128178
    40  H    0.132666
    41  H    0.132625
    42  H    0.154553
    43  H    0.156025
    44  H    0.158879
    45  H    0.147448
 Sum of Mulliken charges =  -0.00000

 Dipole moment (field-independent basis, Debye):
    X=              0.4310    Y=              0.8378    Z=             -1.1443  Tot=              1.4823
 Quadrupole moment (field-independent basis, Debye-Ang):
   XX=           -113.4387   YY=           -117.7192   ZZ=           -117.2746
   XY=             -0.7165   XZ=             10.8467   YZ=             -1.8059

 Normal termination of Gaussian 16 at Fri Nov  4 18:36:24 2022.
