 Gaussian 16, Revision B.01,
 Gaussian 16:  ES64L-G16RevB.01 20-Dec-2017

 -------------------------------------------------------------------
 #p b3lyp/6-31g(d) 6D 10F nosymm GFInput td=(50-50,nstate=2) SCF=XQC
 -------------------------------------------------------------------

 ------------------------------
 Gaussian input prepared by ASE
 ------------------------------
 Symbolic Z-matrix:
 Charge =  0 Multiplicity = 1

                          Input orientation:
 ---------------------------------------------------------------------
 Center     Atomic      Atomic             Coordinates (Angstroms)
 Number     Number       Type             X           Y           Z
 ---------------------------------------------------------------------
      1          6           0       -1.036165    2.654135    1.273144
      2          6           0       -1.166644    2.151356    0.043961
      3          6           0       -2.277809    1.229611   -0.371147
      4          8           0       -1.782301   -0.034649   -0.872427
      5          6           0       -1.414298   -0.957583    0.088830
      6          6           0       -0.067246   -1.315528    0.245654
      7          6           0        1.026840   -0.673173   -0.580456
      8          7           0        1.926191    0.103385    0.287999
      9          6           0        2.901576    0.947660   -0.421463
     10          6           0        3.960474    0.070154   -1.116812
     11          6           0        4.973904    0.822738   -1.987402
     12          6           0        3.507099    1.898394    0.620987
     13          8           0        4.115556    3.001729   -0.043671
     14          6           0        0.266875   -2.276762    1.211238
     15          6           0       -0.709996   -2.874706    2.001610
     16          6           0       -2.052666   -2.534066    1.823872
     17          6           0       -2.408318   -1.587137    0.866848
     18          8           0       -3.736962   -1.241079    0.725233
     19          6           0       -4.375647   -1.766720   -0.453810
     20          6           0       -5.818524   -1.294877   -0.448687
     21          1           0       -1.736819    2.405240    2.067648
     22          1           0       -0.235435    3.343157    1.529909
     23          1           0       -0.450613    2.415479   -0.734235
     24          1           0       -2.981633    1.057622    0.448642
     25          1           0       -2.828762    1.654203   -1.217929
     26          1           0        0.579351   -0.066425   -1.382520
     27          1           0        1.608477   -1.465429   -1.065729
     28          1           0        1.332111    0.708331    0.854715
     29          1           0        2.414217    1.581311   -1.189557
     30          1           0        3.444755   -0.662663   -1.749302
     31          1           0        4.478087   -0.510223   -0.340555
     32          1           0        5.651569    0.114284   -2.478235
     33          1           0        5.570975    1.527188   -1.403986
     34          1           0        4.468922    1.399555   -2.771462
     35          1           0        2.706125    2.254146    1.292030
     36          1           0        4.230871    1.347359    1.241312
     37          1           0        4.592029    3.520552    0.621487
     38          1           0        1.314305   -2.532087    1.344252
     39          1           0       -0.432392   -3.612872    2.748991
     40          1           0       -2.840363   -2.991131    2.415550
     41          1           0       -4.321171   -2.864409   -0.429838
     42          1           0       -3.844728   -1.417094   -1.346915
     43          1           0       -5.869753   -0.201528   -0.480285
     44          1           0       -6.333985   -1.636528    0.454761
     45          1           0       -6.348078   -1.690920   -1.322257
 ---------------------------------------------------------------------

 SCF Done:  E(RB3LYP) =  -905.108425550     A.U. after   14 cycles

 Excitation energies and oscillator strengths:

 Excited state symmetry could not be determined.
 Excited State   1:      Triplet-?Sym    3.6549 eV  339.23 nm  f=0.0000  <S**2>=2.000
      74 -> 77        -0.28741
      74 -> 78         0.33128
      74 -> 79         0.13918
      75 -> 77        -0.11814
      75 -> 78        -0.26118
      75 -> 79         0.35981
      76 -> 78         0.21154
      76 -> 79        -0.13171
 This state for optimization and/or second-order correction.
 Total Energy, E(TD-HF/TD-DFT) =  -904.974111424
 Copying the excited state density for this state as the 1-particle RhoCI density.

 Excited state symmetry could not be determined.
 Excited State   2:      Triplet-?Sym    4.0673 eV  304.83 nm  f=0.0000  <S**2>=2.000
      71 -> 77        -0.54074
      71 -> 78        -0.25478
      71 -> 79        -0.27755
      73 -> 77         0.15446
      76 -> 77        -0.13074

 Excited state symmetry could not be determined.
 Excited State   3:      Singlet-?Sym    4.9573 eV  250.10 nm  f=0.0035  <S**2>=0.000
      74 -> 78         0.10981
      76 -> 77         0.66970
      76 -> 78        -0.14743

 Excited state symmetry could not be determined.
 Excited State   4:      Singlet-?Sym    5.1818 eV  239.27 nm  f=0.0091  <S**2>=0.000
      74 -> 78        -0.19574
      74 -> 79         0.24597
      75 -> 77         0.50773
      75 -> 78        -0.28504
      76 -> 78        -0.11022
      76 -> 79         0.16715

 Alpha  occ. eigenvalues --  -19.16326 -19.15775 -19.14385 -14.30961 -10.23918
 Alpha  occ. eigenvalues --  -10.23567 -10.23404 -10.23240 -10.22766 -10.20477
 Alpha  occ. eigenvalues --  -10.20090 -10.19696 -10.19324 -10.18884 -10.18368
 Alpha  occ. eigenvalues --  -10.18275 -10.17990 -10.17895 -10.17037 -10.15937
 Alpha  occ. eigenvalues --   -1.05411  -1.03235  -1.01553  -0.89822  -0.84360
 Alpha  occ. eigenvalues --   -0.79166  -0.77768  -0.76262  -0.74347  -0.72264
 Alpha  occ. eigenvalues --   -0.70504  -0.67958  -0.64968  -0.62581  -0.62276
 Alpha  occ. eigenvalues --   -0.58866  -0.58106  -0.56529  -0.55645  -0.52198
 Alpha  occ. eigenvalues --   -0.51169  -0.50567  -0.48908  -0.47177  -0.46991
 Alpha  occ. eigenvalues --   -0.46244  -0.45951  -0.45075  -0.44603  -0.44127
 Alpha  occ. eigenvalues --   -0.43253  -0.42011  -0.41289  -0.40717  -0.39218
 Alpha  occ. eigenvalues --   -0.38923  -0.38223  -0.37855  -0.37118  -0.36516
 Alpha  occ. eigenvalues --   -0.36188  -0.35817  -0.35005  -0.34633  -0.34145
 Alpha  occ. eigenvalues --   -0.33050  -0.32464  -0.31901  -0.30725  -0.29016
 Alpha  occ. eigenvalues --   -0.27481  -0.26344  -0.25965  -0.23448  -0.22542
 Alpha  occ. eigenvalues --   -0.21396
 Alpha virt. eigenvalues --   -0.00296   0.00519   0.01129   0.06915   0.08169
 Alpha virt. eigenvalues --    0.09397   0.10608   0.11258   0.11742   0.12762
 Alpha virt. eigenvalues --    0.12874   0.13737   0.14243   0.14600   0.14686

 Mulliken charges:
               1
     1  C   -0.337986
     2  C   -0.065112
     3  C   -0.095131
     4  O   -0.542174
     5  C    0.259073
     6  C    0.091598
     7  C   -0.193908
     8  N   -0.587577
     9  C    0.062693
    10  C   -0.256124
    11  C   -0.438479
    12  C   -0.045925
    13  O   -0.617003
    14  C   -0.174893
    15  C   -0.136887
    16  C   -0.180307
    17  C    0.333878
    18  O   -0.544574
    19  C   -0.026910
    20  C   -0.457079
    21  H    0.151637
    22  H    0.149357
    23  H    0.147171
    24  H    0.168845
    25  H    0.152222
    26  H    0.138637
    27  H    0.151458
    28  H    0.298019
    29  H    0.113902
    30  H    0.135144
    31  H    0.133791
    32  H    0.131356
    33  H    0.158177
    34  H    0.141279
    35  H    0.111704
    36  H    0.129744
    37  H    0.393045
    38  H    0.136956
    39  H    0.128178
    40  H    0.132665
    41  H    0.132627
    42  H    0.154554
    43  H    0.156029
    44  H    0.158879
    45  H    0.147449
 Sum of Mulliken charges =  -0.00000

 Dipole moment (field-independent basis, Debye):
    X=             -0.6495    Y=              0.8443    Z=              1.0307  Tot=              1.4822
 Quadrupole moment (field-independent basis, Debye-Ang):
   XX=           -113.4653   YY=           -114.9164   ZZ=           -119.8352
   XY=              3.8565   XZ=              8.5806   YZ=              4.7508

 Normal termination of Gaussian 16 at Sat Nov  5 11:04:37 2022.
