 Gaussian 16, Revision B.01,
 Gaussian 16:  ES64L-G16RevB.01 20-Dec-2017

 -------------------------------------------------------------------
 #p b3lyp/6-31g(d) 6D 10F nosymm GFInput td=(50-50,nstate=2) SCF=XQC
 -------------------------------------------------------------------

 ------------------------------
 Gaussian input prepared by ASE
 ------------------------------
 Symbolic Z-matrix:
 Charge =  0 Multiplicity = 1

                          Input orientation:
 ---------------------------------------------------------------------
 Center     Atomic      Atomic             Coordinates (Angstroms)
 Number     Number       Type             X           Y           Z
 ---------------------------------------------------------------------
      1          6           0       -5.919325    1.283130    0.445659
      2          6           0       -4.397979    1.350291    0.394327
      3          8           0       -3.954735    1.756189    1.681735
      4          6           0       -3.743714    0.009285    0.019971
      5          6           0       -4.076362   -0.475872   -1.388758
      6          8           0       -2.329389    0.264226    0.144560
      7          6           0       -1.439949   -0.764038    0.334113
      8          6           0       -1.791492   -2.110017    0.490608
      9          6           0       -0.780847   -3.054223    0.691988
     10          6           0        0.558170   -2.676286    0.734993
     11          6           0        0.911527   -1.327525    0.583167
     12          6           0        2.367212   -0.902625    0.675198
     13          7           0        2.659023    0.209820   -0.227417
     14          6           0        4.025050    0.781811   -0.214520
     15          6           0        4.041227    1.856758   -1.314832
     16          6           0        4.283432    1.452602    1.146279
     17          6           0        5.126053   -0.263447   -0.504209
     18          6           0       -0.093092   -0.381545    0.379786
     19          1           0       -6.248837    0.496931    1.134556
     20          1           0       -6.350163    1.093797   -0.542280
     21          1           0       -6.308043    2.237351    0.813444
     22          1           0       -4.088722    2.090288   -0.364710
     23          1           0       -2.987065    1.663404    1.665785
     24          1           0       -4.041983   -0.728115    0.776654
     25          1           0       -3.482322   -1.356803   -1.648838
     26          1           0       -5.134155   -0.746036   -1.469979
     27          1           0       -3.858691    0.307633   -2.123130
     28          1           0       -2.825373   -2.432352    0.454566
     29          1           0       -1.052074   -4.100545    0.807368
     30          1           0        1.332215   -3.425342    0.882664
     31          1           0        3.000644   -1.793103    0.513355
     32          1           0        2.572049   -0.568389    1.700704
     33          1           0        2.438842   -0.083264   -1.178989
     34          1           0        5.012488    2.361897   -1.355536
     35          1           0        3.856691    1.411833   -2.301533
     36          1           0        3.263538    2.604718   -1.129371
     37          1           0        4.346340    0.722588    1.960812
     38          1           0        5.232905    1.999160    1.125834
     39          1           0        3.480111    2.159042    1.380165
     40          1           0        6.115120    0.208344   -0.542977
     41          1           0        5.162771   -1.039464    0.268400
     42          1           0        4.952530   -0.755257   -1.469853
     43          1           0        0.166377    0.663148    0.245837
 ---------------------------------------------------------------------

 SCF Done:  E(RB3LYP) =  -791.843568731     A.U. after   14 cycles

 Excitation energies and oscillator strengths:

 Excited state symmetry could not be determined.
 Excited State   1:      Triplet-?Sym    3.7021 eV  334.90 nm  f=0.0000  <S**2>=2.000
      67 -> 70         0.44242
      68 -> 70         0.18469
      68 -> 71        -0.17790
      69 -> 71         0.47812
 This state for optimization and/or second-order correction.
 Total Energy, E(TD-HF/TD-DFT) =  -791.707518595
 Copying the excited state density for this state as the 1-particle RhoCI density.

 Excited state symmetry could not be determined.
 Excited State   2:      Triplet-?Sym    4.2498 eV  291.74 nm  f=0.0000  <S**2>=2.000
      67 -> 71         0.11163
      68 -> 70        -0.22646
      69 -> 70         0.64817

 Excited state symmetry could not be determined.
 Excited State   3:      Singlet-?Sym    5.0934 eV  243.42 nm  f=0.0230  <S**2>=0.000
      67 -> 71        -0.28926
      68 -> 71        -0.16109
      69 -> 70         0.62282

 Excited state symmetry could not be determined.
 Excited State   4:      Singlet-?Sym    5.1273 eV  241.81 nm  f=0.0031  <S**2>=0.000
      68 -> 70         0.68360

 Alpha  occ. eigenvalues --  -19.17532 -19.13128 -14.31334 -10.24510 -10.24413
 Alpha  occ. eigenvalues --  -10.23320 -10.22067 -10.20854 -10.19186 -10.18832
 Alpha  occ. eigenvalues --  -10.18430 -10.18388 -10.17833 -10.17573 -10.17481
 Alpha  occ. eigenvalues --  -10.17215 -10.17178 -10.17050  -1.06086  -1.00609
 Alpha  occ. eigenvalues --   -0.90520  -0.84722  -0.79438  -0.78406  -0.74224
 Alpha  occ. eigenvalues --   -0.73751  -0.71927  -0.68789  -0.68427  -0.65982
 Alpha  occ. eigenvalues --   -0.65328  -0.59787  -0.59266  -0.56128  -0.54800
 Alpha  occ. eigenvalues --   -0.53065  -0.50855  -0.48761  -0.47724  -0.47270
 Alpha  occ. eigenvalues --   -0.46053  -0.44908  -0.44250  -0.43465  -0.42832
 Alpha  occ. eigenvalues --   -0.41762  -0.41077  -0.40517  -0.39960  -0.39755
 Alpha  occ. eigenvalues --   -0.38721  -0.38418  -0.38010  -0.37625  -0.36909
 Alpha  occ. eigenvalues --   -0.36541  -0.36309  -0.35416  -0.35381  -0.34072
 Alpha  occ. eigenvalues --   -0.33097  -0.32397  -0.32066  -0.31806  -0.31024
 Alpha  occ. eigenvalues --   -0.25874  -0.24209  -0.21687  -0.21610
 Alpha virt. eigenvalues --    0.00097   0.01504   0.07475   0.08908   0.09259
 Alpha virt. eigenvalues --    0.10897   0.11644   0.12055   0.12664   0.12806
 Alpha virt. eigenvalues --    0.13468   0.13799   0.14454   0.15460   0.15952

 Mulliken charges:
               1
     1  C   -0.458844
     2  C    0.142824
     3  O   -0.639073
     4  C    0.126574
     5  C   -0.473260
     6  O   -0.567875
     7  C    0.383737
     8  C   -0.188514
     9  C   -0.139480
    10  C   -0.186811
    11  C    0.121756
    12  C   -0.183789
    13  N   -0.565689
    14  C    0.220765
    15  C   -0.448398
    16  C   -0.443969
    17  C   -0.447965
    18  C   -0.226876
    19  H    0.151366
    20  H    0.144001
    21  H    0.166651
    22  H    0.116518
    23  H    0.403591
    24  H    0.137664
    25  H    0.163847
    26  H    0.153411
    27  H    0.158010
    28  H    0.133077
    29  H    0.128246
    30  H    0.117425
    31  H    0.121747
    32  H    0.160183
    33  H    0.290199
    34  H    0.140507
    35  H    0.132361
    36  H    0.155399
    37  H    0.140821
    38  H    0.139514
    39  H    0.153824
    40  H    0.140393
    41  H    0.144337
    42  H    0.133435
    43  H    0.148364
 Sum of Mulliken charges =  -0.00000

 Dipole moment (field-independent basis, Debye):
    X=              0.8866    Y=             -1.4704    Z=             -1.6721  Tot=              2.3966
 Quadrupole moment (field-independent basis, Debye-Ang):
   XX=           -101.4562   YY=           -109.8676   ZZ=           -114.2878
   XY=              5.3552   XZ=              7.0669   YZ=             -3.1912

 Normal termination of Gaussian 16 at Sat Nov  5 11:00:54 2022.
