 Gaussian 16, Revision B.01,
 Gaussian 16:  ES64L-G16RevB.01 20-Dec-2017

 -----------------------------
 #p b3lyp/6-31g(d) opt SCF=XQC
 -----------------------------

 ------------------------------
 Gaussian input prepared by ASE
 ------------------------------
 Symbolic Z-matrix:
 Charge =  0 Multiplicity = 1

 SCF Done:  E(RB3LYP) =  -791.840029695     A.U. after   14 cycles
 SCF Done:  E(RB3LYP) =  -791.843226897     A.U. after   11 cycles
 SCF Done:  E(RB3LYP) =  -791.843509499     A.U. after   10 cycles
 SCF Done:  E(RB3LYP) =  -791.843548187     A.U. after   10 cycles
 SCF Done:  E(RB3LYP) =  -791.843564545     A.U. after    9 cycles
 SCF Done:  E(RB3LYP) =  -791.843568093     A.U. after    9 cycles
 SCF Done:  E(RB3LYP) =  -791.843569933     A.U. after    9 cycles
 SCF Done:  E(RB3LYP) =  -791.843570274     A.U. after    7 cycles
 SCF Done:  E(RB3LYP) =  -791.843570482     A.U. after    7 cycles
 SCF Done:  E(RB3LYP) =  -791.843570659     A.U. after    7 cycles
 SCF Done:  E(RB3LYP) =  -791.843570722     A.U. after    7 cycles
 Optimization completed.
    -- Stationary point found.

                         Standard orientation:
 ---------------------------------------------------------------------
 Center     Atomic      Atomic             Coordinates (Angstroms)
 Number     Number       Type             X           Y           Z
 ---------------------------------------------------------------------
      1          6           0       -5.696441   -1.319840   -0.107203
      2          6           0       -4.174741   -1.395667   -0.125027
      3          8           0       -3.788199   -1.706541   -1.456409
      4          6           0       -3.496830   -0.088259    0.319522
      5          6           0       -3.767304    0.292301    1.772990
      6          8           0       -2.090599   -0.337960    0.117044
      7          6           0       -1.203254    0.698564   -0.033275
      8          6           0       -1.552367    2.053597   -0.074972
      9          6           0       -0.544957    3.006769   -0.248385
     10          6           0        0.788646    2.628615   -0.375494
     11          6           0        1.139357    1.271148   -0.338731
     12          6           0        2.587177    0.849406   -0.523066
     13          7           0        2.909233   -0.327814    0.281816
     14          6           0        4.269831   -0.901808    0.169234
     15          6           0        4.324986   -2.055365    1.185463
     16          6           0        4.466913   -1.470794   -1.247067
     17          6           0        5.388650    0.115458    0.488775
     18          6           0        0.138041    0.316039   -0.163708
     19          1           0       -6.049345   -0.483676   -0.721657
     20          1           0       -6.084470   -1.202790    0.909274
     21          1           0       -6.106283   -2.242896   -0.527800
     22          1           0       -3.838851   -2.190886    0.563580
     23          1           0       -2.820130   -1.618404   -1.474375
     24          1           0       -3.821660    0.704160   -0.367393
     25          1           0       -3.157287    1.149567    2.072218
     26          1           0       -4.819032    0.559213    1.918381
     27          1           0       -3.524228   -0.544175    2.437658
     28          1           0       -2.581753    2.375805    0.028252
     29          1           0       -0.814035    4.059658   -0.274634
     30          1           0        1.560652    3.383981   -0.499855
     31          1           0        3.232515    1.723340   -0.322670
     32          1           0        2.746909    0.591385   -1.578170
     33          1           0        2.730823   -0.105304    1.260859
     34          1           0        5.293834   -2.565351    1.147836
     35          1           0        4.184629   -1.684152    2.209227
     36          1           0        3.535449   -2.784945    0.978134
     37          1           0        4.500478   -0.682654   -2.007365
     38          1           0        5.412882   -2.020512   -1.307023
     39          1           0        3.650014   -2.155296   -1.498501
     40          1           0        6.375423   -0.361189    0.450933
     41          1           0        5.398093    0.946455   -0.225249
     42          1           0        5.258720    0.534950    1.494559
     43          1           0        0.396156   -0.736562   -0.118344
 ---------------------------------------------------------------------

 The electronic state is 1-A.
 Alpha  occ. eigenvalues --  -19.17532 -19.13128 -14.31334 -10.24510 -10.24413
 Alpha  occ. eigenvalues --  -10.23320 -10.22067 -10.20854 -10.19186 -10.18832
 Alpha  occ. eigenvalues --  -10.18430 -10.18388 -10.17833 -10.17573 -10.17481
 Alpha  occ. eigenvalues --  -10.17215 -10.17178 -10.17050  -1.06086  -1.00609
 Alpha  occ. eigenvalues --   -0.90520  -0.84722  -0.79438  -0.78406  -0.74224
 Alpha  occ. eigenvalues --   -0.73751  -0.71927  -0.68789  -0.68427  -0.65982
 Alpha  occ. eigenvalues --   -0.65328  -0.59787  -0.59266  -0.56128  -0.54800
 Alpha  occ. eigenvalues --   -0.53065  -0.50855  -0.48761  -0.47724  -0.47270
 Alpha  occ. eigenvalues --   -0.46053  -0.44908  -0.44250  -0.43465  -0.42832
 Alpha  occ. eigenvalues --   -0.41762  -0.41077  -0.40517  -0.39960  -0.39755
 Alpha  occ. eigenvalues --   -0.38721  -0.38418  -0.38010  -0.37625  -0.36909
 Alpha  occ. eigenvalues --   -0.36541  -0.36309  -0.35416  -0.35381  -0.34072
 Alpha  occ. eigenvalues --   -0.33097  -0.32397  -0.32066  -0.31806  -0.31024
 Alpha  occ. eigenvalues --   -0.25874  -0.24209  -0.21687  -0.21610
 Alpha virt. eigenvalues --    0.00097   0.01504   0.07475   0.08908   0.09259
 Alpha virt. eigenvalues --    0.10897   0.11644   0.12055   0.12664   0.12806
 Alpha virt. eigenvalues --    0.13468   0.13799   0.14454   0.15460   0.15952

 Mulliken charges:
               1
     1  C   -0.458843
     2  C    0.142818
     3  O   -0.639077
     4  C    0.126585
     5  C   -0.473248
     6  O   -0.567885
     7  C    0.383743
     8  C   -0.188513
     9  C   -0.139483
    10  C   -0.186807
    11  C    0.121746
    12  C   -0.183788
    13  N   -0.565685
    14  C    0.220758
    15  C   -0.448395
    16  C   -0.443962
    17  C   -0.447976
    18  C   -0.226875
    19  H    0.151366
    20  H    0.144001
    21  H    0.166651
    22  H    0.116519
    23  H    0.403591
    24  H    0.137661
    25  H    0.163844
    26  H    0.153408
    27  H    0.158008
    28  H    0.133078
    29  H    0.128246
    30  H    0.117424
    31  H    0.121748
    32  H    0.160184
    33  H    0.290200
    34  H    0.140506
    35  H    0.132361
    36  H    0.155399
    37  H    0.140820
    38  H    0.139515
    39  H    0.153823
    40  H    0.140394
    41  H    0.144340
    42  H    0.133438
    43  H    0.148363
 Sum of Mulliken charges =  -0.00000

 Dipole moment (field-independent basis, Debye):
    X=              0.9650    Y=              1.3395    Z=              1.7373  Tot=              2.3966
 Quadrupole moment (field-independent basis, Debye-Ang):
   XX=           -101.6664   YY=           -109.6372   ZZ=           -113.4505
   XY=             -4.7191   XZ=             -7.3831   YZ=             -2.5154

 Normal termination of Gaussian 16 at Fri Nov  4 18:17:18 2022.
