 Gaussian 16, Revision B.01,
 Gaussian 16:  ES64L-G16RevB.01 20-Dec-2017

 -----------------------------
 #p b3lyp/6-31g(d) opt SCF=XQC
 -----------------------------

 ------------------------------
 Gaussian input prepared by ASE
 ------------------------------
 Symbolic Z-matrix:
 Charge =  0 Multiplicity = 1

 SCF Done:  E(RB3LYP) =  -673.464216775     A.U. after   13 cycles
 SCF Done:  E(RB3LYP) =  -673.467582672     A.U. after   12 cycles
 SCF Done:  E(RB3LYP) =  -673.467940112     A.U. after   11 cycles
 SCF Done:  E(RB3LYP) =  -673.468000897     A.U. after   11 cycles
 SCF Done:  E(RB3LYP) =  -673.468016976     A.U. after   10 cycles
 SCF Done:  E(RB3LYP) =  -673.468025277     A.U. after   10 cycles
 SCF Done:  E(RB3LYP) =  -673.468028964     A.U. after   10 cycles
 SCF Done:  E(RB3LYP) =  -673.468033554     A.U. after    9 cycles
 SCF Done:  E(RB3LYP) =  -673.468036575     A.U. after    9 cycles
 SCF Done:  E(RB3LYP) =  -673.468037359     A.U. after    8 cycles
 SCF Done:  E(RB3LYP) =  -673.468037928     A.U. after    9 cycles
 SCF Done:  E(RB3LYP) =  -673.468038002     A.U. after    8 cycles
 Optimization completed.
    -- Stationary point found.

                         Standard orientation:
 ---------------------------------------------------------------------
 Center     Atomic      Atomic             Coordinates (Angstroms)
 Number     Number       Type             X           Y           Z
 ---------------------------------------------------------------------
      1          6           0        4.984130    2.061013    0.304709
      2          7           0        4.558649    0.820306    0.942296
      3          6           0        4.534056   -0.351636    0.068105
      4          6           0        3.572034   -0.321521   -1.141514
      5          6           0        2.083765   -0.148463   -0.791702
      6          6           0        1.473981   -1.363897   -0.080364
      7          7           0        0.091212   -1.151796    0.355916
      8          6           0       -0.294584   -2.090250    1.401147
      9          6           0       -0.862374   -1.169834   -0.756621
     10          6           0       -2.190083   -0.523987   -0.405080
     11          6           0       -3.347882   -1.283795   -0.224068
     12          6           0       -4.538791   -0.627462    0.092893
     13          6           0       -4.529214    0.756247    0.215018
     14          6           0       -3.323697    1.447996    0.010566
     15          6           0       -3.262849    2.953072    0.120791
     16          7           0       -2.183024    0.816374   -0.294576
     17          1           0        4.355425    2.407626   -0.534738
     18          1           0        5.010077    2.859085    1.054735
     19          1           0        6.004397    1.933616   -0.078038
     20          1           0        3.646233    0.951065    1.373834
     21          1           0        4.311693   -1.222008    0.698940
     22          1           0        5.556795   -0.501073   -0.304687
     23          1           0        3.870472    0.489692   -1.817852
     24          1           0        3.709995   -1.252238   -1.711468
     25          1           0        1.938181    0.732644   -0.153529
     26          1           0        1.533700    0.060189   -1.717149
     27          1           0        1.570815   -2.261873   -0.726122
     28          1           0        2.058561   -1.577104    0.822182
     29          1           0        0.387123   -1.995160    2.252951
     30          1           0       -1.305472   -1.861338    1.752285
     31          1           0       -0.282421   -3.148089    1.067263
     32          1           0       -0.433372   -0.598772   -1.583602
     33          1           0       -1.037880   -2.201745   -1.123333
     34          1           0       -3.315453   -2.364439   -0.330416
     35          1           0       -5.457132   -1.189989    0.241172
     36          1           0       -5.436765    1.302097    0.459009
     37          1           0       -2.244351    3.294041   -0.076137
     38          1           0       -3.940471    3.433828   -0.595828
     39          1           0       -3.558957    3.290853    1.121791
 ---------------------------------------------------------------------

 The electronic state is 1-A.
 Alpha  occ. eigenvalues --  -14.31952 -14.31797 -14.30820 -10.22522 -10.22046
 Alpha  occ. eigenvalues --  -10.20451 -10.20387 -10.20145 -10.19790 -10.19572
 Alpha  occ. eigenvalues --  -10.19365 -10.19165 -10.19162 -10.17757 -10.17435
 Alpha  occ. eigenvalues --  -10.17397  -0.93803  -0.91122  -0.88879  -0.79655
 Alpha  occ. eigenvalues --   -0.78745  -0.77370  -0.71559  -0.70884  -0.68694
 Alpha  occ. eigenvalues --   -0.66815  -0.63346  -0.61168  -0.59890  -0.57569
 Alpha  occ. eigenvalues --   -0.55616  -0.50313  -0.49023  -0.48580  -0.47594
 Alpha  occ. eigenvalues --   -0.46460  -0.45050  -0.44122  -0.43196  -0.42503
 Alpha  occ. eigenvalues --   -0.42278  -0.41055  -0.40526  -0.40064  -0.39241
 Alpha  occ. eigenvalues --   -0.38225  -0.37606  -0.37328  -0.36693  -0.36151
 Alpha  occ. eigenvalues --   -0.35920  -0.35226  -0.34280  -0.32681  -0.32466
 Alpha  occ. eigenvalues --   -0.31397  -0.27800  -0.24547  -0.24497  -0.20880
 Alpha  occ. eigenvalues --   -0.20571
 Alpha virt. eigenvalues --   -0.01798  -0.00558   0.07550   0.09444   0.10342
 Alpha virt. eigenvalues --    0.11030   0.11965   0.12662   0.13252   0.13520
 Alpha virt. eigenvalues --    0.14481   0.15038   0.15221   0.15937   0.16268

 Mulliken charges:
               1
     1  C   -0.303423
     2  N   -0.534195
     3  C   -0.140046
     4  C   -0.272550
     5  C   -0.264548
     6  C   -0.115963
     7  N   -0.366902
     8  C   -0.303912
     9  C   -0.187366
    10  C    0.291896
    11  C   -0.176779
    12  C   -0.100851
    13  C   -0.168012
    14  C    0.306525
    15  C   -0.521411
    16  N   -0.497843
    17  H    0.125145
    18  H    0.147692
    19  H    0.147108
    20  H    0.298051
    21  H    0.137393
    22  H    0.135310
    23  H    0.135780
    24  H    0.125882
    25  H    0.141895
    26  H    0.138284
    27  H    0.106217
    28  H    0.133948
    29  H    0.149069
    30  H    0.156415
    31  H    0.111317
    32  H    0.160012
    33  H    0.109530
    34  H    0.132724
    35  H    0.138355
    36  H    0.129541
    37  H    0.176726
    38  H    0.158927
    39  H    0.160056
 Sum of Mulliken charges =  -0.00000

 Dipole moment (field-independent basis, Debye):
    X=             -2.1733    Y=             -0.6880    Z=             -0.5244  Tot=              2.3391
 Quadrupole moment (field-independent basis, Debye-Ang):
   XX=            -93.7476   YY=            -93.7424   ZZ=           -101.0298
   XY=              0.1434   XZ=             -6.2639   YZ=              0.3958

 1\1\GINC-NODE49\FOpt\RB3LYP\6-31G(d)\C13H23N3\WYKGROUP\04-Nov-2022\0\\
 #p b3lyp/6-31g(d) opt SCF=XQC\\Gaussian input prepared by ASE\\0,1\C,4
 .5052377825,-0.3623716953,2.3092827504\N,4.1772296203,-0.9007088342,0.
 9941746192\C,4.1970792226,0.0710387986,-0.0983335886\C,3.1972265518,1.
 2478085666,-0.0270538474\C,1.7129509193,0.8453552271,0.0200580773\C,1.
 2018618309,0.2265399062,-1.2879832406\N,-0.1768305491,-0.2626476255,-1
 .2026543834\C,-0.470929389,-1.23216247,-2.2493579529\C,-1.1622339399,0
 .821844625,-1.1869719168\C,-2.5153450304,0.3808105219,-0.6596314655\C,

 Normal termination of Gaussian 16 at Fri Nov  4 18:16:30 2022.
