 Gaussian 16, Revision B.01,
 Gaussian 16:  ES64L-G16RevB.01 20-Dec-2017

 -------------------------------------------------------------------
 #p b3lyp/6-31g(d) 6D 10F nosymm GFInput td=(50-50,nstate=2) SCF=XQC
 -------------------------------------------------------------------

 ------------------------------
 Gaussian input prepared by ASE
 ------------------------------
 Symbolic Z-matrix:
 Charge =  0 Multiplicity = 1

                          Input orientation:
 ---------------------------------------------------------------------
 Center     Atomic      Atomic             Coordinates (Angstroms)
 Number     Number       Type             X           Y           Z
 ---------------------------------------------------------------------
      1          6           0        4.505238   -0.362372    2.309283
      2          7           0        4.177230   -0.900709    0.994175
      3          6           0        4.197079    0.071039   -0.098334
      4          6           0        3.197227    1.247809   -0.027054
      5          6           0        1.712951    0.845355    0.020058
      6          6           0        1.201862    0.226540   -1.287983
      7          7           0       -0.176831   -0.262648   -1.202654
      8          6           0       -0.470929   -1.232162   -2.249358
      9          6           0       -1.162234    0.821845   -1.186972
     10          6           0       -2.515345    0.380811   -0.659631
     11          6           0       -3.617933    0.236173   -1.504589
     12          6           0       -4.836311   -0.167745   -0.955128
     13          6           0       -4.907960   -0.409322    0.410948
     14          6           0       -3.754326   -0.234176    1.193279
     15          6           0       -3.782666   -0.473099    2.684325
     16          7           0       -2.587210    0.154508    0.664171
     17          1           0        3.830162    0.427004    2.685103
     18          1           0        4.505795   -1.177953    3.040692
     19          1           0        5.518782    0.056634    2.280433
     20          1           0        3.272616   -1.365766    1.029117
     21          1           0        4.048721   -0.487416   -1.031642
     22          1           0        5.214759    0.482110   -0.149787
     23          1           0        3.423675    1.858714    0.856167
     24          1           0        3.374039    1.899884   -0.895185
     25          1           0        1.533743    0.129452    0.832570
     26          1           0        1.122087    1.734425    0.271046
     27          1           0        1.333234    0.950184   -2.119742
     28          1           0        1.826714   -0.638421   -1.539344
     29          1           0        0.230258   -2.070826   -2.183644
     30          1           0       -1.482358   -1.628263   -2.116281
     31          1           0       -0.404328   -0.807440   -3.272014
     32          1           0       -0.795538    1.607061   -0.521373
     33          1           0       -1.285485    1.272083   -2.193062
     34          1           0       -3.522511    0.436811   -2.567975
     35          1           0       -5.713178   -0.290641   -1.585822
     36          1           0       -5.839175   -0.723538    0.874886
     37          1           0       -2.793800   -0.279880    3.105264
     38          1           0       -4.510901    0.181018    3.179950
     39          1           0       -4.067152   -1.507082    2.916108
 ---------------------------------------------------------------------

 SCF Done:  E(RB3LYP) =  -673.468034093     A.U. after   13 cycles

 Excitation energies and oscillator strengths:

 Excited state symmetry could not be determined.
 Excited State   1:      Triplet-?Sym    3.8127 eV  325.18 nm  f=0.0000  <S**2>=2.000
      57 -> 62        -0.36870
      58 -> 62         0.22486
      58 -> 63         0.51067
      59 -> 63        -0.16458
      61 -> 62        -0.11054
 This state for optimization and/or second-order correction.
 Total Energy, E(TD-HF/TD-DFT) =  -673.327918891
 Copying the excited state density for this state as the 1-particle RhoCI density.

 Excited state symmetry could not be determined.
 Excited State   2:      Triplet-?Sym    4.1406 eV  299.44 nm  f=0.0000  <S**2>=2.000
      58 -> 62         0.18553
      59 -> 62         0.63926
      59 -> 63        -0.12092
      60 -> 62         0.10418
      61 -> 62         0.13518

 Excited state symmetry could not be determined.
 Excited State   3:      Singlet-?Sym    4.3332 eV  286.12 nm  f=0.0020  <S**2>=0.000
      60 -> 62         0.38672
      61 -> 62         0.57952

 Excited state symmetry could not be determined.
 Excited State   4:      Singlet-?Sym    4.7247 eV  262.42 nm  f=0.0085  <S**2>=0.000
      60 -> 63         0.37990
      61 -> 62        -0.12855
      61 -> 63         0.57766

 Alpha  occ. eigenvalues --  -14.31952 -14.31797 -14.30820 -10.22522 -10.22046
 Alpha  occ. eigenvalues --  -10.20451 -10.20387 -10.20145 -10.19790 -10.19572
 Alpha  occ. eigenvalues --  -10.19365 -10.19165 -10.19162 -10.17757 -10.17435
 Alpha  occ. eigenvalues --  -10.17397  -0.93803  -0.91122  -0.88879  -0.79655
 Alpha  occ. eigenvalues --   -0.78745  -0.77370  -0.71559  -0.70884  -0.68694
 Alpha  occ. eigenvalues --   -0.66815  -0.63346  -0.61168  -0.59890  -0.57569
 Alpha  occ. eigenvalues --   -0.55616  -0.50313  -0.49023  -0.48580  -0.47594
 Alpha  occ. eigenvalues --   -0.46460  -0.45050  -0.44122  -0.43196  -0.42503
 Alpha  occ. eigenvalues --   -0.42278  -0.41055  -0.40526  -0.40064  -0.39241
 Alpha  occ. eigenvalues --   -0.38225  -0.37606  -0.37327  -0.36693  -0.36151
 Alpha  occ. eigenvalues --   -0.35920  -0.35226  -0.34280  -0.32681  -0.32466
 Alpha  occ. eigenvalues --   -0.31397  -0.27800  -0.24547  -0.24497  -0.20880
 Alpha  occ. eigenvalues --   -0.20571
 Alpha virt. eigenvalues --   -0.01798  -0.00558   0.07550   0.09444   0.10342
 Alpha virt. eigenvalues --    0.11030   0.11965   0.12662   0.13252   0.13520
 Alpha virt. eigenvalues --    0.14481   0.15038   0.15221   0.15937   0.16268

 Mulliken charges:
               1
     1  C   -0.303422
     2  N   -0.534177
     3  C   -0.140062
     4  C   -0.272544
     5  C   -0.264559
     6  C   -0.115962
     7  N   -0.366908
     8  C   -0.303910
     9  C   -0.187353
    10  C    0.291909
    11  C   -0.176800
    12  C   -0.100834
    13  C   -0.168041
    14  C    0.306556
    15  C   -0.521409
    16  N   -0.497859
    17  H    0.125142
    18  H    0.147691
    19  H    0.147106
    20  H    0.298046
    21  H    0.137395
    22  H    0.135311
    23  H    0.135780
    24  H    0.125884
    25  H    0.141900
    26  H    0.138285
    27  H    0.106217
    28  H    0.133950
    29  H    0.149067
    30  H    0.156415
    31  H    0.111316
    32  H    0.160010
    33  H    0.109530
    34  H    0.132726
    35  H    0.138355
    36  H    0.129542
    37  H    0.176726
    38  H    0.158926
    39  H    0.160055
 Sum of Mulliken charges =  -0.00000

 Dipole moment (field-independent basis, Debye):
    X=             -2.1424    Y=              0.5250    Z=             -0.7785  Tot=              2.3391
 Quadrupole moment (field-independent basis, Debye-Ang):
   XX=            -92.6704   YY=           -100.5857   ZZ=            -93.7245
   XY=              6.2972   XZ=              1.0373   YZ=             -0.5993

 Normal termination of Gaussian 16 at Sat Nov  5 11:01:16 2022.
