 Gaussian 16, Revision B.01,
 Gaussian 16:  ES64L-G16RevB.01 20-Dec-2017

 -----------------------------
 #p b3lyp/6-31g(d) opt SCF=XQC
 -----------------------------

 ------------------------------
 Gaussian input prepared by ASE
 ------------------------------
 Symbolic Z-matrix:
 Charge =  0 Multiplicity = 1

 SCF Done:  E(RB3LYP) =  -627.181820641     A.U. after   14 cycles
 SCF Done:  E(RB3LYP) =  -627.184982610     A.U. after   12 cycles
 SCF Done:  E(RB3LYP) =  -627.185268721     A.U. after   11 cycles
 SCF Done:  E(RB3LYP) =  -627.185331263     A.U. after   10 cycles
 SCF Done:  E(RB3LYP) =  -627.185355103     A.U. after   10 cycles
 SCF Done:  E(RB3LYP) =  -627.185386031     A.U. after   11 cycles
 SCF Done:  E(RB3LYP) =  -627.185397273     A.U. after    9 cycles
 SCF Done:  E(RB3LYP) =  -627.185398858     A.U. after    8 cycles
 SCF Done:  E(RB3LYP) =  -627.185399056     A.U. after    8 cycles
 Optimization completed.
    -- Stationary point found.

                         Standard orientation:
 ---------------------------------------------------------------------
 Center     Atomic      Atomic             Coordinates (Angstroms)
 Number     Number       Type             X           Y           Z
 ---------------------------------------------------------------------
      1          7           0       -1.861448    2.404504    0.020123
      2          6           0       -1.910269    1.032491    0.027810
      3          7           0       -3.127938    0.464751    0.007592
      4          6           0       -3.199418   -0.873021   -0.029095
      5          7           0       -2.194139   -1.755495   -0.039604
      6          6           0       -1.012517   -1.155395   -0.017791
      7          8           0        0.157950   -1.854071   -0.027551
      8          6           0        1.165080   -0.909172   -0.007031
      9          6           0        0.683006    0.361960    0.012266
     10          6           0       -0.755432    0.222082    0.011690
     11          6           0        1.586969    1.564533    0.014975
     12          6           0        3.021575    1.150443   -0.376736
     13          6           0        3.473959   -0.130875    0.346781
     14          6           0        2.589160   -1.343217   -0.016242
     15          1           0       -1.034915    2.854527    0.386039
     16          1           0       -2.739703    2.858616    0.235316
     17          1           0       -4.203674   -1.290659   -0.046775
     18          1           0        1.219278    2.329013   -0.682650
     19          1           0        1.596570    2.034111    1.011296
     20          1           0        3.060563    0.983094   -1.461646
     21          1           0        3.715729    1.970139   -0.157773
     22          1           0        3.429059    0.032994    1.431930
     23          1           0        4.519112   -0.352738    0.103391
     24          1           0        2.745462   -2.166324    0.692490
     25          1           0        2.860911   -1.735503   -1.007749
 ---------------------------------------------------------------------

 The electronic state is 1-A.
 Alpha  occ. eigenvalues --  -19.21062 -14.35764 -14.32195 -14.31986 -10.27320
 Alpha  occ. eigenvalues --  -10.27137 -10.24391 -10.24359 -10.20516 -10.20310
 Alpha  occ. eigenvalues --  -10.19766 -10.19715 -10.19671 -10.19639  -1.11079
 Alpha  occ. eigenvalues --   -0.98156  -0.92984  -0.86049  -0.84693  -0.80203
 Alpha  occ. eigenvalues --   -0.75559  -0.73910  -0.66844  -0.64634  -0.62672
 Alpha  occ. eigenvalues --   -0.60351  -0.56335  -0.55160  -0.51104  -0.50029
 Alpha  occ. eigenvalues --   -0.49373  -0.48029  -0.45693  -0.44379  -0.43397
 Alpha  occ. eigenvalues --   -0.42625  -0.41323  -0.40661  -0.40139  -0.38675
 Alpha  occ. eigenvalues --   -0.38153  -0.34346  -0.34290  -0.34070  -0.33445
 Alpha  occ. eigenvalues --   -0.28868  -0.27588  -0.26346  -0.25250  -0.20719
 Alpha virt. eigenvalues --   -0.01680   0.00416   0.04683   0.06394   0.08671
 Alpha virt. eigenvalues --    0.11452   0.12031   0.12965   0.14643   0.15050
 Alpha virt. eigenvalues --    0.15617   0.16205   0.16765   0.17649   0.19023

 Mulliken charges:
               1
     1  N   -0.774645
     2  C    0.414342
     3  N   -0.490070
     4  C    0.157425
     5  N   -0.488299
     6  C    0.498180
     7  O   -0.503551
     8  C    0.292906
     9  C    0.067179
    10  C    0.047377
    11  C   -0.350121
    12  C   -0.272932
    13  C   -0.273017
    14  C   -0.351078
    15  H    0.334488
    16  H    0.341492
    17  H    0.148601
    18  H    0.152293
    19  H    0.145446
    20  H    0.147314
    21  H    0.139263
    22  H    0.145677
    23  H    0.143133
    24  H    0.165475
    25  H    0.163122
 Sum of Mulliken charges =  -0.00000

 Dipole moment (field-independent basis, Debye):
    X=              3.3832    Y=              3.5899    Z=              0.9179  Tot=              5.0175
 Quadrupole moment (field-independent basis, Debye-Ang):
   XX=            -79.0838   YY=            -78.5904   ZZ=            -81.1263
   XY=             -4.7197   XZ=             -1.6204   YZ=              2.8310

 Normal termination of Gaussian 16 at Fri Nov  4 18:13:00 2022.
