 Gaussian 16, Revision B.01,
 Gaussian 16:  ES64L-G16RevB.01 20-Dec-2017

 -------------------------------------------------------------------
 #p b3lyp/6-31g(d) 6D 10F nosymm GFInput td=(50-50,nstate=2) SCF=XQC
 -------------------------------------------------------------------

 ------------------------------
 Gaussian input prepared by ASE
 ------------------------------
 Symbolic Z-matrix:
 Charge =  0 Multiplicity = 1

                          Input orientation:
 ---------------------------------------------------------------------
 Center     Atomic      Atomic             Coordinates (Angstroms)
 Number     Number       Type             X           Y           Z
 ---------------------------------------------------------------------
      1          7           0        2.540500    1.904951    0.551409
      2          6           0        2.462210    0.742597   -0.174999
      3          7           0        3.599942    0.291249   -0.729350
      4          6           0        3.556216   -0.864386   -1.406613
      5          7           0        2.500426   -1.656353   -1.624676
      6          6           0        1.400359   -1.175359   -1.063141
      7          8           0        0.200311   -1.816233   -1.149183
      8          6           0       -0.698494   -1.036262   -0.448212
      9          6           0       -0.118488    0.072897    0.082735
     10          6           0        1.268610    0.003816   -0.317089
     11          6           0       -0.889811    1.066527    0.908021
     12          6           0       -2.240061    0.458786    1.344461
     13          6           0       -2.949739   -0.269212    0.188485
     14          6           0       -2.121481   -1.460421   -0.340135
     15          1           0        1.699335    2.450700    0.670458
     16          1           0        3.390489    2.434917    0.408189
     17          1           0        4.499337   -1.194078   -1.836833
     18          1           0       -0.314807    1.365098    1.794888
     19          1           0       -1.068096    1.987453    0.330649
     20          1           0       -2.062903   -0.252901    2.162183
     21          1           0       -2.887777    1.246975    1.745605
     22          1           0       -3.121510    0.439845   -0.632582
     23          1           0       -3.935122   -0.622044    0.513038
     24          1           0       -2.498461   -1.795698   -1.314667
     25          1           0       -2.210986   -2.322865    0.337362
 ---------------------------------------------------------------------

 SCF Done:  E(RB3LYP) =  -627.185398493     A.U. after   15 cycles

 Excitation energies and oscillator strengths:

 Excited state symmetry could not be determined.
 Excited State   1:      Triplet-?Sym    3.2639 eV  379.86 nm  f=0.0000  <S**2>=2.000
      50 -> 51         0.68230
 This state for optimization and/or second-order correction.
 Total Energy, E(TD-HF/TD-DFT) =  -627.065451589
 Copying the excited state density for this state as the 1-particle RhoCI density.

 Excited state symmetry could not be determined.
 Excited State   2:      Triplet-?Sym    4.1848 eV  296.27 nm  f=0.0000  <S**2>=2.000
      48 -> 51        -0.10151
      50 -> 52         0.69036

 Excited state symmetry could not be determined.
 Excited State   3:      Singlet-?Sym    4.8650 eV  254.85 nm  f=0.2646  <S**2>=0.000
      47 -> 52         0.10559
      50 -> 51         0.64865
      50 -> 52        -0.22222

 Excited state symmetry could not be determined.
 Excited State   4:      Singlet-?Sym    5.0400 eV  246.00 nm  f=0.0529  <S**2>=0.000
      48 -> 51         0.24383
      50 -> 51         0.23176
      50 -> 52         0.60955

 Alpha  occ. eigenvalues --  -19.21062 -14.35764 -14.32195 -14.31986 -10.27320
 Alpha  occ. eigenvalues --  -10.27137 -10.24391 -10.24359 -10.20516 -10.20310
 Alpha  occ. eigenvalues --  -10.19766 -10.19715 -10.19671 -10.19639  -1.11079
 Alpha  occ. eigenvalues --   -0.98156  -0.92984  -0.86049  -0.84693  -0.80203
 Alpha  occ. eigenvalues --   -0.75559  -0.73910  -0.66844  -0.64634  -0.62672
 Alpha  occ. eigenvalues --   -0.60351  -0.56335  -0.55160  -0.51104  -0.50029
 Alpha  occ. eigenvalues --   -0.49373  -0.48029  -0.45693  -0.44379  -0.43397
 Alpha  occ. eigenvalues --   -0.42624  -0.41323  -0.40661  -0.40139  -0.38675
 Alpha  occ. eigenvalues --   -0.38154  -0.34346  -0.34290  -0.34070  -0.33445
 Alpha  occ. eigenvalues --   -0.28868  -0.27588  -0.26346  -0.25250  -0.20719
 Alpha virt. eigenvalues --   -0.01680   0.00416   0.04683   0.06394   0.08672
 Alpha virt. eigenvalues --    0.11452   0.12031   0.12965   0.14643   0.15050
 Alpha virt. eigenvalues --    0.15617   0.16205   0.16765   0.17649   0.19023

 Mulliken charges:
               1
     1  N   -0.774641
     2  C    0.414347
     3  N   -0.490073
     4  C    0.157434
     5  N   -0.488300
     6  C    0.498161
     7  O   -0.503552
     8  C    0.292910
     9  C    0.067177
    10  C    0.047381
    11  C   -0.350127
    12  C   -0.272910
    13  C   -0.273020
    14  C   -0.351083
    15  H    0.334487
    16  H    0.341491
    17  H    0.148601
    18  H    0.152294
    19  H    0.145446
    20  H    0.147309
    21  H    0.139260
    22  H    0.145677
    23  H    0.143133
    24  H    0.165476
    25  H    0.163123
 Sum of Mulliken charges =  -0.00000

 Dipole moment (field-independent basis, Debye):
    X=             -3.1618    Y=              3.4184    Z=              1.8689  Tot=              5.0175
 Quadrupole moment (field-independent basis, Debye-Ang):
   XX=            -82.3812   YY=            -77.9113   ZZ=            -84.1939
   XY=              7.0778   XZ=              1.9508   YZ=             -2.4567

 Normal termination of Gaussian 16 at Sat Nov  5 11:01:16 2022.
