 Gaussian 16, Revision B.01,
 Gaussian 16:  ES64L-G16RevB.01 20-Dec-2017

 -----------------------------
 #p b3lyp/6-31g(d) opt SCF=XQC
 -----------------------------

 ------------------------------
 Gaussian input prepared by ASE
 ------------------------------
 Symbolic Z-matrix:
 Charge =  0 Multiplicity = 1

 SCF Done:  E(RB3LYP) =  -805.494948607     A.U. after   15 cycles
 SCF Done:  E(RB3LYP) =  -805.498162491     A.U. after   12 cycles
 SCF Done:  E(RB3LYP) =  -805.498459669     A.U. after   11 cycles
 SCF Done:  E(RB3LYP) =  -805.498540042     A.U. after   11 cycles
 SCF Done:  E(RB3LYP) =  -805.498568736     A.U. after   10 cycles
 SCF Done:  E(RB3LYP) =  -805.498587489     A.U. after    9 cycles
 SCF Done:  E(RB3LYP) =  -805.498610784     A.U. after   10 cycles
 SCF Done:  E(RB3LYP) =  -805.498634834     A.U. after   10 cycles
 SCF Done:  E(RB3LYP) =  -805.498650958     A.U. after   10 cycles
 SCF Done:  E(RB3LYP) =  -805.498665407     A.U. after   10 cycles
 SCF Done:  E(RB3LYP) =  -805.498744420     A.U. after   11 cycles
 SCF Done:  E(RB3LYP) =  -805.498777050     A.U. after   10 cycles
 SCF Done:  E(RB3LYP) =  -805.498794899     A.U. after   11 cycles
 SCF Done:  E(RB3LYP) =  -805.498769912     A.U. after   11 cycles
 SCF Done:  E(RB3LYP) =  -805.498806534     A.U. after   11 cycles
 SCF Done:  E(RB3LYP) =  -805.498810937     A.U. after   10 cycles
 SCF Done:  E(RB3LYP) =  -805.498810524     A.U. after    9 cycles
 SCF Done:  E(RB3LYP) =  -805.498811329     A.U. after    9 cycles
 SCF Done:  E(RB3LYP) =  -805.498811329     A.U. after    8 cycles
 SCF Done:  E(RB3LYP) =  -805.498811372     A.U. after    7 cycles
 Optimization completed.
    -- Stationary point found.

                         Standard orientation:
 ---------------------------------------------------------------------
 Center     Atomic      Atomic             Coordinates (Angstroms)
 Number     Number       Type             X           Y           Z
 ---------------------------------------------------------------------
      1          6           0       -5.673734   -2.441147    0.351520
      2          6           0       -5.329744   -1.017657   -0.090060
      3          6           0       -3.817015   -0.779342   -0.132239
      4          8           0       -3.027285   -1.680464   -0.382449
      5          7           0       -3.451783    0.526432    0.103878
      6          6           0       -2.170456    1.123608    0.077733
      7          6           0       -2.104557    2.500391    0.359727
      8          6           0       -0.868226    3.134440    0.352554
      9          6           0        0.305537    2.435067    0.072458
     10          6           0        0.241949    1.060195   -0.218617
     11          7           0        1.368859    0.317465   -0.552949
     12          6           0        2.709933    0.775743   -0.251037
     13          6           0        3.727964   -0.263134   -0.722490
     14          6           0        5.169150    0.026631   -0.245544
     15          6           0        5.353591   -0.944742    0.934136
     16          6           0        4.487781   -2.125216    0.493439
     17          8           0        3.362772   -1.540027   -0.163031
     18          6           0       -1.008042    0.408402   -0.208345
     19          1           0       -5.144652   -3.166261   -0.271620
     20          1           0       -5.374263   -2.614782    1.390652
     21          1           0       -6.750586   -2.621977    0.270746
     22          1           0       -5.713545   -0.840337   -1.105100
     23          1           0       -5.820404   -0.279801    0.558414
     24          1           0       -4.207265    1.165643    0.310236
     25          1           0       -3.010957    3.058439    0.583673
     26          1           0       -0.813016    4.197072    0.575317
     27          1           0        1.256377    2.956154    0.080998
     28          1           0        1.267583   -0.680419   -0.405483
     29          1           0        2.908642    1.716339   -0.780934
     30          1           0        2.855801    0.970537    0.827566
     31          1           0        3.670319   -0.340737   -1.816432
     32          1           0        5.310125    1.074846    0.037611
     33          1           0        5.885694   -0.200199   -1.042450
     34          1           0        6.398889   -1.219083    1.106782
     35          1           0        4.956493   -0.510991    1.858872
     36          1           0        4.113469   -2.738359    1.319005
     37          1           0        5.037724   -2.780003   -0.201853
     38          1           0       -1.074654   -0.648864   -0.428078
 ---------------------------------------------------------------------

 The electronic state is 1-A.
 Alpha  occ. eigenvalues --  -19.14600 -19.11127 -14.36865 -14.32901 -10.28550
 Alpha  occ. eigenvalues --  -10.23785 -10.23280 -10.22396 -10.21543 -10.21305
 Alpha  occ. eigenvalues --  -10.19603 -10.19431 -10.19296 -10.17993 -10.17430
 Alpha  occ. eigenvalues --  -10.17195 -10.16746 -10.16352  -1.03367  -1.02958
 Alpha  occ. eigenvalues --   -0.93278  -0.92019  -0.82637  -0.78960  -0.77530
 Alpha  occ. eigenvalues --   -0.76424  -0.72972  -0.71822  -0.66616  -0.65192
 Alpha  occ. eigenvalues --   -0.61312  -0.60297  -0.58815  -0.57728  -0.55764
 Alpha  occ. eigenvalues --   -0.53021  -0.50484  -0.49471  -0.48619  -0.47916
 Alpha  occ. eigenvalues --   -0.47210  -0.45932  -0.45326  -0.44539  -0.42107
 Alpha  occ. eigenvalues --   -0.41864  -0.41194  -0.40759  -0.40452  -0.40034
 Alpha  occ. eigenvalues --   -0.38755  -0.37299  -0.36358  -0.36110  -0.35886
 Alpha  occ. eigenvalues --   -0.35396  -0.34662  -0.34259  -0.34030  -0.33538
 Alpha  occ. eigenvalues --   -0.31880  -0.30566  -0.27155  -0.25216  -0.24403
 Alpha  occ. eigenvalues --   -0.21168  -0.18490
 Alpha virt. eigenvalues --    0.00153   0.02314   0.05822   0.07289   0.08053
 Alpha virt. eigenvalues --    0.10199   0.10831   0.11567   0.11840   0.12172
 Alpha virt. eigenvalues --    0.13829   0.14111   0.14979   0.15182   0.15751

 Mulliken charges:
               1
     1  C   -0.436731
     2  C   -0.366586
     3  C    0.625200
     4  O   -0.504401
     5  N   -0.723771
     6  C    0.357300
     7  C   -0.209365
     8  C   -0.140276
     9  C   -0.185880
    10  C    0.363339
    11  N   -0.679388
    12  C   -0.112412
    13  C    0.147323
    14  C   -0.321532
    15  C   -0.296450
    16  C   -0.013815
    17  O   -0.510091
    18  C   -0.248957
    19  H    0.178349
    20  H    0.152734
    21  H    0.140090
    22  H    0.172597
    23  H    0.137349
    24  H    0.327005
    25  H    0.107519
    26  H    0.121635
    27  H    0.116368
    28  H    0.338900
    29  H    0.143784
    30  H    0.128828
    31  H    0.138681
    32  H    0.150692
    33  H    0.149261
    34  H    0.146032
    35  H    0.152369
    36  H    0.149086
    37  H    0.128293
    38  H    0.176921
 Sum of Mulliken charges =  -0.00000

 Dipole moment (field-independent basis, Debye):
    X=              1.1991    Y=              1.7754    Z=              1.2252  Tot=              2.4680
 Quadrupole moment (field-independent basis, Debye-Ang):
   XX=            -71.4016   YY=           -107.6405   ZZ=           -109.5304
   XY=             -6.7526   XZ=             -0.7945   YZ=             -0.7428

 Normal termination of Gaussian 16 at Fri Nov  4 18:28:48 2022.
