 Gaussian 16, Revision B.01,
 Gaussian 16:  ES64L-G16RevB.01 20-Dec-2017

 -------------------------------------------------------------------
 #p b3lyp/6-31g(d) 6D 10F nosymm GFInput td=(50-50,nstate=2) SCF=XQC
 -------------------------------------------------------------------

 ------------------------------
 Gaussian input prepared by ASE
 ------------------------------
 Symbolic Z-matrix:
 Charge =  0 Multiplicity = 1

                          Input orientation:
 ---------------------------------------------------------------------
 Center     Atomic      Atomic             Coordinates (Angstroms)
 Number     Number       Type             X           Y           Z
 ---------------------------------------------------------------------
      1          6           0        5.796680    0.630437   -2.292860
      2          6           0        5.469685    0.205662   -0.860278
      3          6           0        3.961343    0.061731   -0.634204
      4          8           0        3.201377   -0.269871   -1.534643
      5          7           0        3.565980    0.307786    0.660916
      6          6           0        2.283383    0.206585    1.247266
      7          6           0        2.182515    0.521876    2.614677
      8          6           0        0.943039    0.443862    3.237731
      9          6           0       -0.200012    0.060587    2.536424
     10          6           0       -0.100820   -0.263869    1.171167
     11          7           0       -1.192789   -0.699080    0.428505
     12          6           0       -2.556926   -0.481411    0.866001
     13          6           0       -3.527275   -1.053878   -0.167744
     14          6           0       -5.001946   -0.673642    0.095367
     15          6           0       -5.259699    0.461858   -0.911327
     16          6           0       -4.351802    0.051309   -2.070865
     17          8           0       -3.189159   -0.505915   -1.457018
     18          6           0        1.152252   -0.182286    0.530406
     19          1           0        5.321433   -0.049302   -3.004279
     20          1           0        5.425571    1.640070   -2.499129
     21          1           0        6.878455    0.622110   -2.461766
     22          1           0        5.923140   -0.773792   -0.650279
     23          1           0        5.904660    0.908262   -0.137196
     24          1           0        4.297772    0.585814    1.300530
     25          1           0        3.064455    0.825984    3.173989
     26          1           0        0.860484    0.691996    4.292943
     27          1           0       -1.154640    0.015547    3.048633
     28          1           0       -1.091470   -0.572953   -0.572296
     29          1           0       -2.727451   -0.997442    1.819746
     30          1           0       -2.781665    0.589004    1.028205
     31          1           0       -3.390706   -2.142612   -0.213146
     32          1           0       -5.174201   -0.371860    1.133665
     33          1           0       -5.657156   -1.526021   -0.114622
     34          1           0       -6.311621    0.551197   -1.199764
     35          1           0       -4.934490    1.424592   -0.501029
     36          1           0       -4.030839    0.883978   -2.704315
     37          1           0       -4.843460   -0.699880   -2.710086
     38          1           0        1.245903   -0.426430   -0.519429
 ---------------------------------------------------------------------

 SCF Done:  E(RB3LYP) =  -805.498811341     A.U. after   15 cycles

 Excitation energies and oscillator strengths:

 Excited state symmetry could not be determined.
 Excited State   1:      Triplet-?Sym    3.4879 eV  355.47 nm  f=0.0000  <S**2>=2.000
      63 -> 69         0.12280
      66 -> 68         0.39722
      66 -> 69        -0.10706
      67 -> 68         0.23792
      67 -> 69         0.47114
      67 -> 70        -0.14592
 This state for optimization and/or second-order correction.
 Total Energy, E(TD-HF/TD-DFT) =  -805.370633380
 Copying the excited state density for this state as the 1-particle RhoCI density.

 Excited state symmetry could not be determined.
 Excited State   2:      Triplet-?Sym    3.7657 eV  329.25 nm  f=0.0000  <S**2>=2.000
      67 -> 68         0.62664
      67 -> 69        -0.27999
      67 -> 70        -0.10633

 Excited state symmetry could not be determined.
 Excited State   3:      Singlet-?Sym    4.4343 eV  279.60 nm  f=0.0396  <S**2>=0.000
      66 -> 69        -0.19159
      67 -> 68         0.66006
      67 -> 69        -0.11998

 Excited state symmetry could not be determined.
 Excited State   4:      Singlet-?Sym    5.2108 eV  237.94 nm  f=0.0016  <S**2>=0.000
      65 -> 68         0.66551
      65 -> 69         0.10183
      65 -> 70         0.18738

 Alpha  occ. eigenvalues --  -19.14600 -19.11127 -14.36865 -14.32901 -10.28550
 Alpha  occ. eigenvalues --  -10.23785 -10.23280 -10.22396 -10.21543 -10.21305
 Alpha  occ. eigenvalues --  -10.19603 -10.19431 -10.19296 -10.17993 -10.17430
 Alpha  occ. eigenvalues --  -10.17195 -10.16746 -10.16352  -1.03367  -1.02959
 Alpha  occ. eigenvalues --   -0.93278  -0.92019  -0.82637  -0.78960  -0.77530
 Alpha  occ. eigenvalues --   -0.76424  -0.72972  -0.71822  -0.66616  -0.65192
 Alpha  occ. eigenvalues --   -0.61312  -0.60297  -0.58815  -0.57728  -0.55764
 Alpha  occ. eigenvalues --   -0.53021  -0.50484  -0.49471  -0.48619  -0.47916
 Alpha  occ. eigenvalues --   -0.47210  -0.45932  -0.45326  -0.44539  -0.42107
 Alpha  occ. eigenvalues --   -0.41864  -0.41194  -0.40759  -0.40452  -0.40034
 Alpha  occ. eigenvalues --   -0.38755  -0.37299  -0.36358  -0.36110  -0.35886
 Alpha  occ. eigenvalues --   -0.35396  -0.34662  -0.34259  -0.34030  -0.33538
 Alpha  occ. eigenvalues --   -0.31880  -0.30566  -0.27155  -0.25216  -0.24403
 Alpha  occ. eigenvalues --   -0.21168  -0.18490
 Alpha virt. eigenvalues --    0.00153   0.02314   0.05822   0.07289   0.08053
 Alpha virt. eigenvalues --    0.10199   0.10831   0.11567   0.11840   0.12172
 Alpha virt. eigenvalues --    0.13829   0.14111   0.14979   0.15182   0.15751

 Mulliken charges:
               1
     1  C   -0.436732
     2  C   -0.366589
     3  C    0.625188
     4  O   -0.504394
     5  N   -0.723760
     6  C    0.357269
     7  C   -0.209350
     8  C   -0.140273
     9  C   -0.185898
    10  C    0.363349
    11  N   -0.679389
    12  C   -0.112420
    13  C    0.147366
    14  C   -0.321546
    15  C   -0.296457
    16  C   -0.013813
    17  O   -0.510107
    18  C   -0.248941
    19  H    0.178349
    20  H    0.152735
    21  H    0.140090
    22  H    0.172597
    23  H    0.137350
    24  H    0.327004
    25  H    0.107519
    26  H    0.121635
    27  H    0.116371
    28  H    0.338900
    29  H    0.143783
    30  H    0.128828
    31  H    0.138678
    32  H    0.150691
    33  H    0.149262
    34  H    0.146033
    35  H    0.152374
    36  H    0.149086
    37  H    0.128293
    38  H    0.176920
 Sum of Mulliken charges =  -0.00000

 Dipole moment (field-independent basis, Debye):
    X=             -1.3029    Y=              1.1856    Z=              1.7285  Tot=              2.4680
 Quadrupole moment (field-independent basis, Debye-Ang):
   XX=            -72.2173   YY=           -109.3717   ZZ=           -107.1066
   XY=              3.9480   XZ=              7.1718   YZ=             -0.1444

 Normal termination of Gaussian 16 at Sat Nov  5 11:00:26 2022.
