 Gaussian 16, Revision B.01,
 Gaussian 16:  ES64L-G16RevB.01 20-Dec-2017

 -----------------------------
 #p b3lyp/6-31g(d) opt SCF=XQC
 -----------------------------

 ------------------------------
 Gaussian input prepared by ASE
 ------------------------------
 Symbolic Z-matrix:
 Charge =  0 Multiplicity = 1

 SCF Done:  E(RB3LYP) =  -884.055385100     A.U. after   14 cycles
 SCF Done:  E(RB3LYP) =  -884.060337830     A.U. after   12 cycles
 SCF Done:  E(RB3LYP) =  -884.061520144     A.U. after   12 cycles
 SCF Done:  E(RB3LYP) =  -884.061968570     A.U. after   11 cycles
 SCF Done:  E(RB3LYP) =  -884.062113843     A.U. after   11 cycles
 SCF Done:  E(RB3LYP) =  -884.062086602     A.U. after   11 cycles
 SCF Done:  E(RB3LYP) =  -884.062214076     A.U. after   11 cycles
 SCF Done:  E(RB3LYP) =  -884.062263212     A.U. after   10 cycles
 SCF Done:  E(RB3LYP) =  -884.062299131     A.U. after   10 cycles
 SCF Done:  E(RB3LYP) =  -884.062309826     A.U. after    9 cycles
 SCF Done:  E(RB3LYP) =  -884.062335180     A.U. after   11 cycles
 SCF Done:  E(RB3LYP) =  -884.062338345     A.U. after    9 cycles
 SCF Done:  E(RB3LYP) =  -884.062339692     A.U. after    8 cycles
 SCF Done:  E(RB3LYP) =  -884.062340034     A.U. after    8 cycles
 SCF Done:  E(RB3LYP) =  -884.062340092     A.U. after    7 cycles
 Optimization completed.
    -- Stationary point found.

                         Standard orientation:
 ---------------------------------------------------------------------
 Center     Atomic      Atomic             Coordinates (Angstroms)
 Number     Number       Type             X           Y           Z
 ---------------------------------------------------------------------
      1          6           0       -0.283273    2.685770   -1.195656
      2          6           0       -0.872693    1.358370   -0.780628
      3          6           0       -2.207705    1.273259   -0.376838
      4          6           0       -2.789765    0.050647   -0.019748
      5          6           0       -4.202086   -0.016526    0.422984
      6          7           0       -4.779151    1.134606    0.934180
      7          7           0       -4.839483   -1.131456    0.260922
      8          8           0       -6.157975   -1.009930    0.795698
      9          6           0       -2.016529   -1.112347   -0.114369
     10          6           0       -0.684826   -1.074648   -0.529501
     11          6           0        0.084964   -2.364191   -0.700258
     12          6           0       -0.106449    0.178732   -0.822049
     13          8           0        1.197301    0.262860   -1.272175
     14          6           0        2.266473    0.005333   -0.323684
     15          6           0        3.478320   -0.471778   -1.133708
     16          6           0        4.389619   -1.430980   -0.348148
     17          6           0        5.183849   -0.819612    0.816193
     18          6           0        4.367362   -0.045888    1.867522
     19          6           0        3.814918    1.298897    1.354981
     20          6           0        2.508420    1.261330    0.527868
     21          1           0        0.347818    2.579029   -2.082582
     22          1           0        0.345310    3.116652   -0.406602
     23          1           0       -1.076889    3.406642   -1.416220
     24          1           0       -2.813348    2.175542   -0.376152
     25          1           0       -4.160394    1.722829    1.476819
     26          1           0       -5.676341    0.969366    1.374153
     27          1           0       -6.527053   -1.884461    0.606175
     28          1           0       -2.479175   -2.065050    0.123692
     29          1           0        0.796029   -2.289738   -1.528691
     30          1           0       -0.601424   -3.190773   -0.908839
     31          1           0        0.654462   -2.637600    0.197888
     32          1           0        1.946861   -0.813891    0.331279
     33          1           0        3.090795   -0.997191   -2.013791
     34          1           0        4.048928    0.388152   -1.511063
     35          1           0        5.102288   -1.887698   -1.047319
     36          1           0        3.771719   -2.257554    0.033268
     37          1           0        5.948485   -0.139691    0.411775
     38          1           0        5.733466   -1.629386    1.314895
     39          1           0        5.028474    0.159911    2.719371
     40          1           0        3.557013   -0.675156    2.263558
     41          1           0        4.606074    1.776563    0.761308
     42          1           0        3.646382    1.966715    2.208883
     43          1           0        2.497900    2.122388   -0.150204
     44          1           0        1.644863    1.380716    1.194741
 ---------------------------------------------------------------------

 The electronic state is 1-A.
 Alpha  occ. eigenvalues --  -19.16993 -19.15415 -14.34801 -14.33991 -10.24391
 Alpha  occ. eigenvalues --  -10.23743 -10.23353 -10.19198 -10.19145 -10.19065
 Alpha  occ. eigenvalues --  -10.18401 -10.18394 -10.18299 -10.18288 -10.18178
 Alpha  occ. eigenvalues --  -10.18026 -10.18016 -10.17997 -10.17930 -10.17637
 Alpha  occ. eigenvalues --   -1.05465  -1.03833  -0.92229  -0.85132  -0.82282
 Alpha  occ. eigenvalues --   -0.81417  -0.77773  -0.76481  -0.76104  -0.74189
 Alpha  occ. eigenvalues --   -0.68753  -0.67441  -0.65286  -0.64881  -0.61213
 Alpha  occ. eigenvalues --   -0.57847  -0.56742  -0.55426  -0.54427  -0.52852
 Alpha  occ. eigenvalues --   -0.51343  -0.50774  -0.47815  -0.46534  -0.46141
 Alpha  occ. eigenvalues --   -0.45093  -0.44157  -0.43182  -0.42774  -0.42523
 Alpha  occ. eigenvalues --   -0.41670  -0.40948  -0.40252  -0.40117  -0.39985
 Alpha  occ. eigenvalues --   -0.39595  -0.39398  -0.38436  -0.36913  -0.36283
 Alpha  occ. eigenvalues --   -0.35469  -0.35058  -0.34487  -0.33872  -0.33017
 Alpha  occ. eigenvalues --   -0.32438  -0.31791  -0.31212  -0.30770  -0.30373
 Alpha  occ. eigenvalues --   -0.26853  -0.26582  -0.23424  -0.23126  -0.19883
 Alpha virt. eigenvalues --   -0.01506   0.00522   0.06170   0.07262   0.08027
 Alpha virt. eigenvalues --    0.08484   0.10246   0.10696   0.11317   0.12033
 Alpha virt. eigenvalues --    0.12925   0.13134   0.13270   0.14655   0.15302

 Mulliken charges:
               1
     1  C   -0.523248
     2  C    0.150888
     3  C   -0.281746
     4  C    0.138358
     5  C    0.446510
     6  N   -0.773316
     7  N   -0.296745
     8  O   -0.542934
     9  C   -0.254641
    10  C    0.165835
    11  C   -0.542047
    12  C    0.235588
    13  O   -0.567149
    14  C    0.152380
    15  C   -0.282623
    16  C   -0.271431
    17  C   -0.255283
    18  C   -0.260530
    19  C   -0.268178
    20  C   -0.284624
    21  H    0.172765
    22  H    0.158929
    23  H    0.149714
    24  H    0.132685
    25  H    0.323612
    26  H    0.355397
    27  H    0.415879
    28  H    0.145475
    29  H    0.172533
    30  H    0.161295
    31  H    0.158895
    32  H    0.126503
    33  H    0.153815
    34  H    0.136469
    35  H    0.135910
    36  H    0.131448
    37  H    0.129680
    38  H    0.131373
    39  H    0.133831
    40  H    0.130436
    41  H    0.134691
    42  H    0.136162
    43  H    0.148417
    44  H    0.139021
 Sum of Mulliken charges =  -0.00000

 Dipole moment (field-independent basis, Debye):
    X=              1.8903    Y=              0.4031    Z=              2.1651  Tot=              2.9023
 Quadrupole moment (field-independent basis, Debye-Ang):
   XX=           -115.1598   YY=           -112.9211   ZZ=           -121.1934
   XY=             -0.3993   XZ=             -5.6970   YZ=              2.4448

 Normal termination of Gaussian 16 at Fri Nov  4 18:23:22 2022.
