 Gaussian 16, Revision B.01,
 Gaussian 16:  ES64L-G16RevB.01 20-Dec-2017

 -------------------------------------------------------------------
 #p b3lyp/6-31g(d) 6D 10F nosymm GFInput td=(50-50,nstate=2) SCF=XQC
 -------------------------------------------------------------------

 ------------------------------
 Gaussian input prepared by ASE
 ------------------------------
 Symbolic Z-matrix:
 Charge =  0 Multiplicity = 1

                          Input orientation:
 ---------------------------------------------------------------------
 Center     Atomic      Atomic             Coordinates (Angstroms)
 Number     Number       Type             X           Y           Z
 ---------------------------------------------------------------------
      1          6           0        0.491520   -2.728614   -1.450330
      2          6           0        1.233266   -1.728862   -0.594781
      3          6           0        2.239395   -2.153595    0.276915
      4          6           0        2.966569   -1.245400    1.056331
      5          6           0        4.017560   -1.716925    1.988133
      6          7           0        3.950283   -3.026243    2.436006
      7          7           0        4.972807   -0.898735    2.294199
      8          8           0        5.847609   -1.517551    3.238108
      9          6           0        2.697716    0.121352    0.918096
     10          6           0        1.713610    0.589702    0.046676
     11          6           0        1.517777    2.077479   -0.134504
     12          6           0        0.953630   -0.352221   -0.678774
     13          8           0       -0.006299    0.064869   -1.581009
     14          6           0       -1.235497    0.634352   -1.057707
     15          6           0       -1.796658    1.561894   -2.142654
     16          6           0       -2.608467    2.737402   -1.571003
     17          6           0       -3.956432    2.386291   -0.922950
     18          6           0       -3.924768    1.310826    0.178396
     19          6           0       -3.651399   -0.110436   -0.352288
     20          6           0       -2.178023   -0.497614   -0.620093
     21          1           0        0.347191   -2.350508   -2.466456
     22          1           0       -0.504611   -2.949466   -1.047430
     23          1           0        1.042875   -3.672688   -1.503837
     24          1           0        2.482822   -3.211798    0.320107
     25          1           0        3.015767   -3.382817    2.587199
     26          1           0        4.590177   -3.220882    3.196585
     27          1           0        6.510186   -0.825041    3.373617
     28          1           0        3.288688    0.828117    1.492198
     29          1           0        1.225252    2.312247   -1.162499
     30          1           0        2.445933    2.612239    0.090058
     31          1           0        0.743136    2.484830    0.528627
     32          1           0       -0.979669    1.244069   -0.183034
     33          1           0       -0.941098    1.962826   -2.697679
     34          1           0       -2.394622    0.988473   -2.864525
     35          1           0       -2.792905    3.459842   -2.376852
     36          1           0       -1.981785    3.262506   -0.834771
     37          1           0       -4.654730    2.051898   -1.704664
     38          1           0       -4.385488    3.309155   -0.509732
     39          1           0       -4.905741    1.307621    0.671094
     40          1           0       -3.199284    1.582086    0.959152
     41          1           0       -4.232698   -0.235947   -1.275803
     42          1           0       -4.062393   -0.842591    0.353804
     43          1           0       -2.153726   -1.263768   -1.403503
     44          1           0       -1.747475   -0.958372    0.278257
 ---------------------------------------------------------------------

 SCF Done:  E(RB3LYP) =  -884.062339487     A.U. after   14 cycles

 Excitation energies and oscillator strengths:

 Excited state symmetry could not be determined.
 Excited State   1:      Triplet-?Sym    3.0130 eV  411.50 nm  f=0.0000  <S**2>=2.000
      73 -> 77         0.17144
      74 -> 78        -0.10185
      75 -> 76         0.65584
      75 -> 78         0.10975
 This state for optimization and/or second-order correction.
 Total Energy, E(TD-HF/TD-DFT) =  -883.951615506
 Copying the excited state density for this state as the 1-particle RhoCI density.

 Excited state symmetry could not be determined.
 Excited State   2:      Triplet-?Sym    3.8301 eV  323.71 nm  f=0.0000  <S**2>=2.000
      73 -> 77         0.38893
      74 -> 76         0.48105
      75 -> 76        -0.11621
      75 -> 78        -0.21109
      75 -> 80        -0.12387

 Excited state symmetry could not be determined.
 Excited State   3:      Singlet-?Sym    4.7148 eV  262.97 nm  f=0.2772  <S**2>=0.000
      73 -> 76        -0.14817
      75 -> 76         0.64921
      75 -> 77         0.17086

 Excited state symmetry could not be determined.
 Excited State   4:      Singlet-?Sym    4.7206 eV  262.64 nm  f=0.0314  <S**2>=0.000
      73 -> 76        -0.32226
      75 -> 76        -0.23671
      75 -> 77         0.57378

 Alpha  occ. eigenvalues --  -19.16993 -19.15415 -14.34801 -14.33991 -10.24391
 Alpha  occ. eigenvalues --  -10.23743 -10.23353 -10.19198 -10.19145 -10.19065
 Alpha  occ. eigenvalues --  -10.18401 -10.18394 -10.18299 -10.18288 -10.18178
 Alpha  occ. eigenvalues --  -10.18026 -10.18016 -10.17997 -10.17930 -10.17637
 Alpha  occ. eigenvalues --   -1.05465  -1.03833  -0.92229  -0.85132  -0.82282
 Alpha  occ. eigenvalues --   -0.81417  -0.77772  -0.76481  -0.76104  -0.74189
 Alpha  occ. eigenvalues --   -0.68753  -0.67441  -0.65286  -0.64881  -0.61213
 Alpha  occ. eigenvalues --   -0.57847  -0.56742  -0.55426  -0.54427  -0.52852
 Alpha  occ. eigenvalues --   -0.51343  -0.50774  -0.47815  -0.46534  -0.46141
 Alpha  occ. eigenvalues --   -0.45093  -0.44157  -0.43182  -0.42774  -0.42523
 Alpha  occ. eigenvalues --   -0.41670  -0.40948  -0.40252  -0.40117  -0.39985
 Alpha  occ. eigenvalues --   -0.39595  -0.39398  -0.38436  -0.36913  -0.36283
 Alpha  occ. eigenvalues --   -0.35469  -0.35058  -0.34487  -0.33872  -0.33017
 Alpha  occ. eigenvalues --   -0.32438  -0.31791  -0.31212  -0.30770  -0.30373
 Alpha  occ. eigenvalues --   -0.26853  -0.26582  -0.23424  -0.23126  -0.19883
 Alpha virt. eigenvalues --   -0.01506   0.00522   0.06170   0.07262   0.08027
 Alpha virt. eigenvalues --    0.08483   0.10246   0.10696   0.11317   0.12034
 Alpha virt. eigenvalues --    0.12925   0.13134   0.13270   0.14655   0.15302

 Mulliken charges:
               1
     1  C   -0.523252
     2  C    0.150905
     3  C   -0.281750
     4  C    0.138349
     5  C    0.446518
     6  N   -0.773320
     7  N   -0.296740
     8  O   -0.542938
     9  C   -0.254637
    10  C    0.165836
    11  C   -0.542035
    12  C    0.235570
    13  O   -0.567142
    14  C    0.152402
    15  C   -0.282610
    16  C   -0.271436
    17  C   -0.255261
    18  C   -0.260583
    19  C   -0.268163
    20  C   -0.284652
    21  H    0.172767
    22  H    0.158929
    23  H    0.149714
    24  H    0.132685
    25  H    0.323612
    26  H    0.355397
    27  H    0.415880
    28  H    0.145475
    29  H    0.172528
    30  H    0.161294
    31  H    0.158892
    32  H    0.126496
    33  H    0.153812
    34  H    0.136466
    35  H    0.135908
    36  H    0.131444
    37  H    0.129681
    38  H    0.131373
    39  H    0.133839
    40  H    0.130446
    41  H    0.134694
    42  H    0.136164
    43  H    0.148417
    44  H    0.139024
 Sum of Mulliken charges =  -0.00000

 Dipole moment (field-independent basis, Debye):
    X=             -2.6370    Y=              0.1792    Z=              1.1993  Tot=              2.9024
 Quadrupole moment (field-independent basis, Debye-Ang):
   XX=           -122.6406   YY=           -112.5383   ZZ=           -117.0606
   XY=              2.3762   XZ=              5.9135   YZ=             -3.6267

 Normal termination of Gaussian 16 at Sat Nov  5 11:06:25 2022.
