 Gaussian 16, Revision B.01,
 Gaussian 16:  ES64L-G16RevB.01 20-Dec-2017

 -----------------------------
 #p b3lyp/6-31g(d) opt SCF=XQC
 -----------------------------

 ------------------------------
 Gaussian input prepared by ASE
 ------------------------------
 Symbolic Z-matrix:
 Charge =  0 Multiplicity = 1

 SCF Done:  E(RB3LYP) =  -752.495201884     A.U. after   14 cycles
 SCF Done:  E(RB3LYP) =  -752.498239807     A.U. after   12 cycles
 SCF Done:  E(RB3LYP) =  -752.499308358     A.U. after   12 cycles
 SCF Done:  E(RB3LYP) =  -752.499604118     A.U. after   12 cycles
 SCF Done:  E(RB3LYP) =  -752.499682818     A.U. after   11 cycles
 SCF Done:  E(RB3LYP) =  -752.499719245     A.U. after   10 cycles
 SCF Done:  E(RB3LYP) =  -752.499745780     A.U. after   10 cycles
 SCF Done:  E(RB3LYP) =  -752.499777360     A.U. after   11 cycles
 SCF Done:  E(RB3LYP) =  -752.499794486     A.U. after   11 cycles
 SCF Done:  E(RB3LYP) =  -752.499793106     A.U. after   11 cycles
 SCF Done:  E(RB3LYP) =  -752.500247048     A.U. after   10 cycles
 SCF Done:  E(RB3LYP) =  -752.500350855     A.U. after   11 cycles
 SCF Done:  E(RB3LYP) =  -752.500425235     A.U. after   11 cycles
 SCF Done:  E(RB3LYP) =  -752.500455832     A.U. after   10 cycles
 SCF Done:  E(RB3LYP) =  -752.500472758     A.U. after    9 cycles
 SCF Done:  E(RB3LYP) =  -752.500481277     A.U. after    9 cycles
 SCF Done:  E(RB3LYP) =  -752.500484444     A.U. after    8 cycles
 SCF Done:  E(RB3LYP) =  -752.500486622     A.U. after    9 cycles
 SCF Done:  E(RB3LYP) =  -752.500487139     A.U. after    7 cycles
 SCF Done:  E(RB3LYP) =  -752.500487257     A.U. after    7 cycles
 Optimization completed.
    -- Stationary point found.

                         Standard orientation:
 ---------------------------------------------------------------------
 Center     Atomic      Atomic             Coordinates (Angstroms)
 Number     Number       Type             X           Y           Z
 ---------------------------------------------------------------------
      1          6           0       -1.829186   -2.896271    1.083289
      2          8           0       -1.775059   -2.289113   -0.191974
      3          6           0       -2.860442   -1.418222   -0.468402
      4          6           0       -2.705950    0.001302    0.111237
      5          6           0       -4.048140    0.758809    0.011936
      6          7           0       -1.553022    0.709677   -0.471583
      7          6           0       -1.774005    1.189624   -1.829550
      8          6           0       -0.917856    1.645848    0.483833
      9          6           0       -0.194121    2.824076   -0.178231
     10          6           0        0.051580    0.879086    1.432620
     11          6           0        1.334636    0.383108    0.798445
     12          6           0        2.560778    1.004357    1.077777
     13          6           0        3.754051    0.569409    0.504562
     14          6           0        3.738795   -0.515911   -0.374788
     15          8           0        4.934582   -0.914112   -0.915527
     16          6           0        2.528390   -1.153066   -0.665627
     17          6           0        1.341390   -0.708130   -0.083767
     18          1           0       -0.970625   -3.569308    1.150973
     19          1           0       -2.754258   -3.481643    1.209828
     20          1           0       -1.765177   -2.168259    1.905979
     21          1           0       -2.937942   -1.376455   -1.560026
     22          1           0       -3.799152   -1.858203   -0.092757
     23          1           0       -2.482826   -0.116659    1.177493
     24          1           0       -4.416869    0.803381   -1.019361
     25          1           0       -3.945433    1.787566    0.374199
     26          1           0       -4.817874    0.267467    0.618096
     27          1           0       -0.824876    1.482039   -2.283388
     28          1           0       -2.175003    0.374892   -2.440540
     29          1           0       -2.471674    2.042398   -1.918681
     30          1           0       -1.697094    2.087922    1.133284
     31          1           0       -0.875136    3.448894   -0.763667
     32          1           0        0.243705    3.455434    0.602943
     33          1           0        0.622435    2.490936   -0.825247
     34          1           0        0.296916    1.550595    2.266430
     35          1           0       -0.491910    0.034867    1.874589
     36          1           0        2.586598    1.847529    1.765336
     37          1           0        4.699009    1.054413    0.729489
     38          1           0        4.772154   -1.671160   -1.499302
     39          1           0        2.513275   -2.003952   -1.346054
     40          1           0        0.407202   -1.208756   -0.318525
 ---------------------------------------------------------------------

 The electronic state is 1-A.
 Alpha  occ. eigenvalues --  -19.16699 -19.14819 -14.31497 -10.23456 -10.22756
 Alpha  occ. eigenvalues --  -10.22711 -10.21317 -10.21200 -10.19603 -10.17815
 Alpha  occ. eigenvalues --  -10.17586 -10.17538 -10.17448 -10.17335 -10.17069
 Alpha  occ. eigenvalues --  -10.16993 -10.16846  -1.04604  -1.02905  -0.91167
 Alpha  occ. eigenvalues --   -0.83641  -0.78568  -0.75746  -0.73079  -0.72351
 Alpha  occ. eigenvalues --   -0.71017  -0.68487  -0.65853  -0.64453  -0.60618
 Alpha  occ. eigenvalues --   -0.59040  -0.57271  -0.54151  -0.52801  -0.50260
 Alpha  occ. eigenvalues --   -0.48724  -0.47355  -0.46417  -0.45463  -0.45071
 Alpha  occ. eigenvalues --   -0.44565  -0.43135  -0.42263  -0.41540  -0.40786
 Alpha  occ. eigenvalues --   -0.40403  -0.39328  -0.39102  -0.38809  -0.38160
 Alpha  occ. eigenvalues --   -0.37556  -0.36803  -0.35932  -0.35759  -0.34808
 Alpha  occ. eigenvalues --   -0.33883  -0.33548  -0.32411  -0.31967  -0.30804
 Alpha  occ. eigenvalues --   -0.30579  -0.25286  -0.23618  -0.20364  -0.19455
 Alpha virt. eigenvalues --    0.01290   0.02574   0.07276   0.07747   0.08951
 Alpha virt. eigenvalues --    0.10013   0.10567   0.12223   0.12755   0.13200
 Alpha virt. eigenvalues --    0.13961   0.14829   0.15316   0.16023   0.16246

 Mulliken charges:
               1
     1  C   -0.202659
     2  O   -0.448861
     3  C   -0.016025
     4  C    0.015675
     5  C   -0.466652
     6  N   -0.378490
     7  C   -0.308430
     8  C    0.066459
     9  C   -0.474497
    10  C   -0.350772
    11  C    0.161344
    12  C   -0.195289
    13  C   -0.159790
    14  C    0.347368
    15  O   -0.648088
    16  C   -0.204387
    17  C   -0.201686
    18  H    0.162701
    19  H    0.131040
    20  H    0.134445
    21  H    0.141901
    22  H    0.114367
    23  H    0.132188
    24  H    0.147274
    25  H    0.153365
    26  H    0.143050
    27  H    0.161412
    28  H    0.145801
    29  H    0.120168
    30  H    0.105312
    31  H    0.146094
    32  H    0.142971
    33  H    0.169001
    34  H    0.128018
    35  H    0.141130
    36  H    0.116629
    37  H    0.131293
    38  H    0.404041
    39  H    0.112426
    40  H    0.180149
 Sum of Mulliken charges =  -0.00000

 Dipole moment (field-independent basis, Debye):
    X=             -2.6683    Y=             -0.4039    Z=              0.1016  Tot=              2.7006
 Quadrupole moment (field-independent basis, Debye-Ang):
   XX=           -105.5524   YY=            -98.8235   ZZ=           -100.3532
   XY=             -2.3553   XZ=             -4.0913   YZ=              1.9896

 Normal termination of Gaussian 16 at Fri Nov  4 18:43:58 2022.
