 Gaussian 16, Revision B.01,
 Gaussian 16:  ES64L-G16RevB.01 20-Dec-2017

 -------------------------------------------------------------------
 #p b3lyp/6-31g(d) 6D 10F nosymm GFInput td=(50-50,nstate=2) SCF=XQC
 -------------------------------------------------------------------

 ------------------------------
 Gaussian input prepared by ASE
 ------------------------------
 Symbolic Z-matrix:
 Charge =  0 Multiplicity = 1

                          Input orientation:
 ---------------------------------------------------------------------
 Center     Atomic      Atomic             Coordinates (Angstroms)
 Number     Number       Type             X           Y           Z
 ---------------------------------------------------------------------
      1          6           0       -1.737042   -2.851771    0.948151
      2          8           0       -1.779294   -2.120578   -0.260748
      3          6           0       -2.713140   -1.052472   -0.262476
      4          6           0       -2.203648    0.244464    0.395759
      5          6           0       -3.378550    1.224826    0.604680
      6          7           0       -1.049527    0.809185   -0.325220
      7          6           0       -1.395555    1.471962   -1.575920
      8          6           0       -0.103371    1.508478    0.573916
      9          6           0        0.709831    2.614941   -0.107837
     10          6           0        0.847341    0.484951    1.264181
     11          6           0        1.894115   -0.145388    0.369004
     12          6           0        3.243591    0.222902    0.472347
     13          6           0        4.224740   -0.339460   -0.341748
     14          6           0        3.863661   -1.298535   -1.291066
     15          8           0        4.859412   -1.829074   -2.070731
     16          6           0        2.524581   -1.683744   -1.409861
     17          6           0        1.552785   -1.113659   -0.587599
     18          1           0       -1.020028   -3.663853    0.802894
     19          1           0       -2.721916   -3.282457    1.190978
     20          1           0       -1.404743   -2.244224    1.803358
     21          1           0       -2.958573   -0.873433   -1.314665
     22          1           0       -3.643404   -1.367058    0.239035
     23          1           0       -1.835520   -0.030936    1.390363
     24          1           0       -3.895737    1.449065   -0.335403
     25          1           0       -3.027713    2.172931    1.026741
     26          1           0       -4.117096    0.804923    1.297190
     27          1           0       -0.495531    1.649291   -2.168231
     28          1           0       -2.035962    0.812402   -2.169854
     29          1           0       -1.926625    2.435165   -1.465856
     30          1           0       -0.669656    1.998906    1.388306
     31          1           0        0.071302    3.409025   -0.506114
     32          1           0        1.379426    3.069272    0.630921
     33          1           0        1.333017    2.224539   -0.917527
     34          1           0        1.346558    1.005183    2.092731
     35          1           0        0.235237   -0.299910    1.725422
     36          1           0        3.538359    0.965124    1.211645
     37          1           0        5.267486   -0.050643   -0.252126
     38          1           0        4.465337   -2.475724   -2.676410
     39          1           0        2.239905   -2.436148   -2.144751
     40          1           0        0.515949   -1.418467   -0.690107
 ---------------------------------------------------------------------

 SCF Done:  E(RB3LYP) =  -752.500493932     A.U. after   14 cycles

 Excitation energies and oscillator strengths:

 Excited state symmetry could not be determined.
 Excited State   1:      Triplet-?Sym    3.7010 eV  335.00 nm  f=0.0000  <S**2>=2.000
      63 -> 66         0.41440
      64 -> 66        -0.15083
      64 -> 67         0.49245
      65 -> 67         0.22891
 This state for optimization and/or second-order correction.
 Total Energy, E(TD-HF/TD-DFT) =  -752.364482915
 Copying the excited state density for this state as the 1-particle RhoCI density.

 Excited state symmetry could not be determined.
 Excited State   2:      Triplet-?Sym    4.1473 eV  298.95 nm  f=0.0000  <S**2>=2.000
      64 -> 66         0.60382
      64 -> 67         0.11307
      65 -> 66         0.32467

 Excited state symmetry could not be determined.
 Excited State   3:      Singlet-?Sym    4.9628 eV  249.83 nm  f=0.0111  <S**2>=0.000
      63 -> 67        -0.13430
      65 -> 66         0.68727

 Excited state symmetry could not be determined.
 Excited State   4:      Singlet-?Sym    5.1436 eV  241.05 nm  f=0.0243  <S**2>=0.000
      63 -> 67        -0.26129
      64 -> 66         0.62438
      65 -> 66        -0.10813
      65 -> 67        -0.14074

 Alpha  occ. eigenvalues --  -19.16699 -19.14819 -14.31497 -10.23456 -10.22756
 Alpha  occ. eigenvalues --  -10.22711 -10.21317 -10.21200 -10.19603 -10.17815
 Alpha  occ. eigenvalues --  -10.17586 -10.17538 -10.17448 -10.17335 -10.17069
 Alpha  occ. eigenvalues --  -10.16993 -10.16846  -1.04604  -1.02905  -0.91167
 Alpha  occ. eigenvalues --   -0.83641  -0.78568  -0.75746  -0.73079  -0.72351
 Alpha  occ. eigenvalues --   -0.71017  -0.68487  -0.65853  -0.64453  -0.60618
 Alpha  occ. eigenvalues --   -0.59040  -0.57271  -0.54151  -0.52801  -0.50260
 Alpha  occ. eigenvalues --   -0.48724  -0.47355  -0.46417  -0.45463  -0.45071
 Alpha  occ. eigenvalues --   -0.44565  -0.43135  -0.42263  -0.41540  -0.40786
 Alpha  occ. eigenvalues --   -0.40403  -0.39328  -0.39102  -0.38809  -0.38160
 Alpha  occ. eigenvalues --   -0.37556  -0.36803  -0.35932  -0.35759  -0.34808
 Alpha  occ. eigenvalues --   -0.33883  -0.33548  -0.32411  -0.31967  -0.30804
 Alpha  occ. eigenvalues --   -0.30579  -0.25286  -0.23618  -0.20364  -0.19456
 Alpha virt. eigenvalues --    0.01290   0.02574   0.07276   0.07747   0.08951
 Alpha virt. eigenvalues --    0.10013   0.10567   0.12223   0.12755   0.13200
 Alpha virt. eigenvalues --    0.13961   0.14829   0.15316   0.16023   0.16246

 Mulliken charges:
               1
     1  C   -0.202663
     2  O   -0.448854
     3  C   -0.016037
     4  C    0.015695
     5  C   -0.466642
     6  N   -0.378490
     7  C   -0.308427
     8  C    0.066426
     9  C   -0.474508
    10  C   -0.350751
    11  C    0.161354
    12  C   -0.195292
    13  C   -0.159785
    14  C    0.347366
    15  O   -0.648088
    16  C   -0.204381
    17  C   -0.201702
    18  H    0.162703
    19  H    0.131040
    20  H    0.134448
    21  H    0.141902
    22  H    0.114367
    23  H    0.132184
    24  H    0.147273
    25  H    0.153361
    26  H    0.143048
    27  H    0.161411
    28  H    0.145801
    29  H    0.120168
    30  H    0.105316
    31  H    0.146100
    32  H    0.142975
    33  H    0.169005
    34  H    0.128016
    35  H    0.141127
    36  H    0.116629
    37  H    0.131293
    38  H    0.404041
    39  H    0.112426
    40  H    0.180143
 Sum of Mulliken charges =  -0.00000

 Dipole moment (field-independent basis, Debye):
    X=             -2.6438    Y=              0.0454    Z=              0.5493  Tot=              2.7006
 Quadrupole moment (field-independent basis, Debye-Ang):
   XX=           -109.3153   YY=            -98.8784   ZZ=            -98.8884
   XY=              0.3711   XZ=             -1.7881   YZ=              2.7795

 Normal termination of Gaussian 16 at Sat Nov  5 11:03:04 2022.
