 Gaussian 16, Revision B.01,
 Gaussian 16:  ES64L-G16RevB.01 20-Dec-2017

 -----------------------------
 #p b3lyp/6-31g(d) opt SCF=XQC
 -----------------------------

 ------------------------------
 Gaussian input prepared by ASE
 ------------------------------
 Symbolic Z-matrix:
 Charge =  0 Multiplicity = 1

 SCF Done:  E(RB3LYP) =  -817.066747873     A.U. after   12 cycles
 SCF Done:  E(RB3LYP) =  -817.072126312     A.U. after   10 cycles
 SCF Done:  E(RB3LYP) =  -817.073008970     A.U. after   10 cycles
 SCF Done:  E(RB3LYP) =  -817.073320306     A.U. after   10 cycles
 SCF Done:  E(RB3LYP) =  -817.073528487     A.U. after   10 cycles
 SCF Done:  E(RB3LYP) =  -817.073629622     A.U. after   10 cycles
 SCF Done:  E(RB3LYP) =  -817.073680984     A.U. after    9 cycles
 SCF Done:  E(RB3LYP) =  -817.073768926     A.U. after   10 cycles
 SCF Done:  E(RB3LYP) =  -817.073854694     A.U. after   10 cycles
 SCF Done:  E(RB3LYP) =  -817.073896953     A.U. after    9 cycles
 SCF Done:  E(RB3LYP) =  -817.073932028     A.U. after    9 cycles
 SCF Done:  E(RB3LYP) =  -817.073948200     A.U. after   10 cycles
 SCF Done:  E(RB3LYP) =  -817.073946573     A.U. after    9 cycles
 SCF Done:  E(RB3LYP) =  -817.073955099     A.U. after    9 cycles
 SCF Done:  E(RB3LYP) =  -817.073955761     A.U. after    8 cycles
 SCF Done:  E(RB3LYP) =  -817.073956479     A.U. after    8 cycles
 SCF Done:  E(RB3LYP) =  -817.073956531     A.U. after    7 cycles
 SCF Done:  E(RB3LYP) =  -817.073956508     A.U. after    7 cycles
 SCF Done:  E(RB3LYP) =  -817.073956432     A.U. after    7 cycles
 SCF Done:  E(RB3LYP) =  -817.073956414     A.U. after    5 cycles
 Optimization completed.
    -- Stationary point found.

                         Standard orientation:
 ---------------------------------------------------------------------
 Center     Atomic      Atomic             Coordinates (Angstroms)
 Number     Number       Type             X           Y           Z
 ---------------------------------------------------------------------
      1          6           0        2.494809    4.294960    0.231006
      2          6           0        2.450691    3.030230    1.096898
      3          6           0        1.117587    2.260028    1.001752
      4          6           0        0.895966    1.478479   -0.326092
      5          6           0        1.405444    0.021784   -0.271381
      6          7           0        2.830409   -0.060505    0.049989
      7          6           0        3.608452   -1.179738   -0.478472
      8          6           0        3.545121   -2.544467    0.250196
      9          6           0        4.636529   -3.474703   -0.303102
     10          6           0        2.170464   -3.224253    0.172298
     11          7           0       -0.498925    1.479059   -0.821988
     12          6           0       -0.838005    2.713319   -1.516671
     13          6           0       -1.519847    1.106149    0.166984
     14          6           0       -2.744397    0.436160   -0.470871
     15          6           0       -2.468831   -0.960958   -1.122351
     16          6           0       -3.564556   -1.866461   -0.510400
     17          6           0       -3.201275   -2.146839    0.967886
     18          6           0       -3.469010   -0.772110    1.664609
     19          6           0       -3.925924    0.132541    0.494047
     20          6           0       -4.737962   -0.872845   -0.353109
     21          1           0        1.703126    4.998931    0.517551
     22          1           0        2.364020    4.066414   -0.833185
     23          1           0        3.455367    4.812131    0.338170
     24          1           0        3.274970    2.366346    0.813640
     25          1           0        2.617939    3.316576    2.144564
     26          1           0        0.298331    2.979745    1.135753
     27          1           0        1.038119    1.563658    1.849835
     28          1           0        1.485756    1.967798   -1.109763
     29          1           0        1.253086   -0.410571   -1.265599
     30          1           0        0.771453   -0.558997    0.420110
     31          1           0        2.985090    0.033266    1.050445
     32          1           0        4.661718   -0.863133   -0.491010
     33          1           0        3.319303   -1.315981   -1.529846
     34          1           0        3.772628   -2.355164    1.312101
     35          1           0        4.649656   -4.432015    0.230610
     36          1           0        5.632992   -3.025882   -0.212865
     37          1           0        4.464688   -3.691611   -1.365768
     38          1           0        2.191149   -4.202248    0.668444
     39          1           0        1.873796   -3.390084   -0.871764
     40          1           0        1.387603   -2.628773    0.650874
     41          1           0       -0.125246    2.890175   -2.329323
     42          1           0       -1.833835    2.633153   -1.963639
     43          1           0       -0.840546    3.607733   -0.862394
     44          1           0       -1.064552    0.411509    0.878620
     45          1           0       -1.853184    1.981780    0.758614
     46          1           0       -3.135363    1.112638   -1.241591
     47          1           0       -1.459546   -1.325637   -0.900034
     48          1           0       -2.555279   -0.913006   -2.213423
     49          1           0       -3.770340   -2.770601   -1.091813
     50          1           0       -2.163188   -2.481688    1.076474
     51          1           0       -3.840341   -2.932806    1.386997
     52          1           0       -2.594181   -0.384045    2.195262
     53          1           0       -4.273119   -0.857744    2.404720
     54          1           0       -4.460771    1.031230    0.818893
     55          1           0       -5.085158   -0.455436   -1.305948
     56          1           0       -5.598074   -1.295174    0.180918
 ---------------------------------------------------------------------

 The electronic state is 1-A.
 Alpha  occ. eigenvalues --  -14.31268 -14.31062 -10.20031 -10.19968 -10.19621
 Alpha  occ. eigenvalues --  -10.19610 -10.19353 -10.18486 -10.17789 -10.17627
 Alpha  occ. eigenvalues --  -10.17534 -10.17276 -10.17198 -10.17192 -10.17161
 Alpha  occ. eigenvalues --  -10.17123 -10.17053 -10.17015 -10.16682 -10.16582
 Alpha  occ. eigenvalues --   -0.91109  -0.88909  -0.85924  -0.79207  -0.77755
 Alpha  occ. eigenvalues --   -0.74678  -0.72677  -0.71717  -0.69757  -0.68148
 Alpha  occ. eigenvalues --   -0.67354  -0.66616  -0.64879  -0.61377  -0.59024
 Alpha  occ. eigenvalues --   -0.57860  -0.56440  -0.54558  -0.54351  -0.51448
 Alpha  occ. eigenvalues --   -0.49792  -0.48839  -0.47712  -0.46489  -0.45613
 Alpha  occ. eigenvalues --   -0.44991  -0.44669  -0.43547  -0.42818  -0.42240
 Alpha  occ. eigenvalues --   -0.42014  -0.41652  -0.40285  -0.39065  -0.38701
 Alpha  occ. eigenvalues --   -0.38299  -0.38141  -0.37408  -0.36875  -0.36047
 Alpha  occ. eigenvalues --   -0.35720  -0.35113  -0.34870  -0.34402  -0.34100
 Alpha  occ. eigenvalues --   -0.33843  -0.33374  -0.32822  -0.32584  -0.32131
 Alpha  occ. eigenvalues --   -0.31985  -0.31938  -0.31110  -0.30639  -0.29847
 Alpha  occ. eigenvalues --   -0.29069  -0.28041  -0.20823  -0.19468
 Alpha virt. eigenvalues --    0.06624   0.08036   0.08560   0.09520   0.10078
 Alpha virt. eigenvalues --    0.11284   0.11826   0.12202   0.12388   0.13084
 Alpha virt. eigenvalues --    0.13471   0.14426   0.14773   0.14844   0.15210

 Mulliken charges:
               1
     1  C   -0.443491
     2  C   -0.260551
     3  C   -0.278324
     4  C    0.046744
     5  C   -0.138146
     6  N   -0.561999
     7  C   -0.119685
     8  C   -0.076356
     9  C   -0.445442
    10  C   -0.445009
    11  N   -0.391831
    12  C   -0.305578
    13  C   -0.142559
    14  C   -0.073454
    15  C   -0.272832
    16  C   -0.098616
    17  C   -0.270040
    18  C   -0.277065
    19  C   -0.108182
    20  C   -0.271819
    21  H    0.137638
    22  H    0.145288
    23  H    0.141050
    24  H    0.154345
    25  H    0.122725
    26  H    0.136057
    27  H    0.118243
    28  H    0.134028
    29  H    0.148031
    30  H    0.118137
    31  H    0.292788
    32  H    0.131693
    33  H    0.132935
    34  H    0.112769
    35  H    0.141715
    36  H    0.140709
    37  H    0.140680
    38  H    0.139344
    39  H    0.139355
    40  H    0.148792
    41  H    0.147498
    42  H    0.149361
    43  H    0.117728
    44  H    0.135971
    45  H    0.109431
    46  H    0.123004
    47  H    0.136581
    48  H    0.131642
    49  H    0.111746
    50  H    0.128878
    51  H    0.132001
    52  H    0.135136
    53  H    0.133148
    54  H    0.110370
    55  H    0.128460
    56  H    0.126958
 Sum of Mulliken charges =  -0.00000

 Dipole moment (field-independent basis, Debye):
    X=             -0.0091    Y=             -0.3532    Z=              0.7214  Tot=              0.8033
 Quadrupole moment (field-independent basis, Debye-Ang):
   XX=           -128.8942   YY=           -129.5281   ZZ=           -128.2967
   XY=             -3.0204   XZ=              1.8431   YZ=             -0.5742

 1\1\GINC-NODE57\FOpt\RB3LYP\6-31G(d)\C18H36N2\WYKGROUP\04-Nov-2022\0\\
 #p b3lyp/6-31g(d) opt SCF=XQC\\Gaussian input prepared by ASE\\0,1\C,-
 2.2144487587,4.2789513264,-0.9337427748\C,-2.2146885851,2.8772528884,-
 1.5554306729\C,-0.910966331,2.0901198949,-1.3101563459\C,-0.7213321918
 ,1.5553020247,0.1393653397\C,-1.2837716447,0.1319909411,0.3452024385\N
 ,-2.7100254167,0.0435503696,0.0312700571\C,-3.5298602156,-0.9326541558
 ,0.7469520286\C,-3.5148960129,-2.4083904554,0.2785171459\C,-4.64101019
 37,-3.1831844724,0.9815187892\C,-2.1662905073,-3.1112825989,0.49080381

 Normal termination of Gaussian 16 at Fri Nov  4 18:35:12 2022.
