 Gaussian 16, Revision B.01,
 Gaussian 16:  ES64L-G16RevB.01 20-Dec-2017

 -------------------------------------------------------------------
 #p b3lyp/6-31g(d) 6D 10F nosymm GFInput td=(50-50,nstate=2) SCF=XQC
 -------------------------------------------------------------------

 ------------------------------
 Gaussian input prepared by ASE
 ------------------------------
 Symbolic Z-matrix:
 Charge =  0 Multiplicity = 1

                          Input orientation:
 ---------------------------------------------------------------------
 Center     Atomic      Atomic             Coordinates (Angstroms)
 Number     Number       Type             X           Y           Z
 ---------------------------------------------------------------------
      1          6           0       -2.214449    4.278951   -0.933743
      2          6           0       -2.214689    2.877253   -1.555431
      3          6           0       -0.910966    2.090120   -1.310156
      4          6           0       -0.721332    1.555302    0.139365
      5          6           0       -1.283772    0.131991    0.345202
      6          7           0       -2.710025    0.043550    0.031270
      7          6           0       -3.529860   -0.932654    0.746952
      8          6           0       -3.514896   -2.408390    0.278517
      9          6           0       -4.641010   -3.183184    0.981519
     10          6           0       -2.166291   -3.111283    0.490804
     11          7           0        0.671454    1.596211    0.639471
     12          6           0        1.053924    2.923217    1.101775
     13          6           0        1.680366    1.013763   -0.256219
     14          6           0        2.877989    0.427534    0.503584
     15          6           0        2.549805   -0.817325    1.395169
     16          6           0        3.613033   -1.857367    0.967509
     17          6           0        3.243238   -2.388404   -0.438608
     18          6           0        3.562884   -1.173485   -1.370693
     19          6           0        4.049882   -0.088176   -0.379575
     20          6           0        4.822470   -0.951297    0.643171
     21          1           0       -1.396793    4.890512   -1.336085
     22          1           0       -2.094670    4.242945    0.155384
     23          1           0       -3.155130    4.801964   -1.141583
     24          1           0       -3.063440    2.305652   -1.163886
     25          1           0       -2.368821    2.974361   -2.639121
     26          1           0       -0.065543    2.743872   -1.565100
     27          1           0       -0.855075    1.248938   -2.017108
     28          1           0       -1.294643    2.199501    0.815936
     29          1           0       -1.149748   -0.117780    1.402683
     30          1           0       -0.669864   -0.586925   -0.223734
     31          1           0       -2.858776   -0.040463   -0.970950
     32          1           0       -4.570830   -0.581702    0.692368
     33          1           0       -3.248412   -0.885924    1.808159
     34          1           0       -3.732772   -2.407086   -0.802115
     35          1           0       -4.687973   -4.220413    0.630209
     36          1           0       -5.620121   -2.722987    0.802398
     37          1           0       -4.479777   -3.209495    2.067405
     38          1           0       -2.221655   -4.161745    0.180119
     39          1           0       -1.878397   -3.095225    1.550255
     40          1           0       -1.360973   -2.640897   -0.080776
     41          1           0        0.346197    3.269996    1.862415
     42          1           0        2.045075    2.890112    1.564820
     43          1           0        1.090835    3.683279    0.296166
     44          1           0        1.201594    0.218117   -0.834122
     45          1           0        2.047010    1.754951   -0.993838
     46          1           0        3.291668    1.218353    1.142303
     47          1           0        1.528356   -1.180105    1.233608
     48          1           0        2.635351   -0.575147    2.460178
     49          1           0        3.784124   -2.647641    1.705107
     50          1           0        2.193828   -2.700191   -0.494001
     51          1           0        3.854040   -3.259681   -0.702429
     52          1           0        2.704147   -0.857308   -1.970789
     53          1           0        4.365073   -1.420699   -2.075722
     54          1           0        4.618109    0.716937   -0.857213
     55          1           0        5.182470   -0.380441    1.507579
     56          1           0        5.667782   -1.493963    0.202376
 ---------------------------------------------------------------------

 SCF Done:  E(RB3LYP) =  -817.073972754     A.U. after   12 cycles

 Excitation energies and oscillator strengths:

 Excited state symmetry could not be determined.
 Excited State   1:      Triplet-?Sym    6.0838 eV  203.79 nm  f=0.0000  <S**2>=2.000
      78 -> 80         0.30100
      78 -> 82         0.23520
      79 -> 80         0.51235
      79 -> 82         0.20236
 This state for optimization and/or second-order correction.
 Total Energy, E(TD-HF/TD-DFT) =  -816.850398168
 Copying the excited state density for this state as the 1-particle RhoCI density.

 Excited state symmetry could not be determined.
 Excited State   2:      Singlet-?Sym    6.2750 eV  197.58 nm  f=0.0139  <S**2>=0.000
      79 -> 80         0.67837

 Excited state symmetry could not be determined.
 Excited State   3:      Triplet-?Sym    6.3691 eV  194.66 nm  f=0.0000  <S**2>=2.000
      78 -> 80        -0.39175
      78 -> 82        -0.20750
      79 -> 80         0.43829
      79 -> 81         0.22232
      79 -> 82        -0.12501
      79 -> 84         0.14856

 Excited state symmetry could not be determined.
 Excited State   4:      Singlet-?Sym    6.5494 eV  189.31 nm  f=0.0088  <S**2>=0.000
      78 -> 80         0.56843
      78 -> 82         0.18602
      79 -> 80        -0.13810
      79 -> 81        -0.26391
      79 -> 82         0.17011
      79 -> 84        -0.11078

 Alpha  occ. eigenvalues --  -14.31268 -14.31062 -10.20031 -10.19969 -10.19621
 Alpha  occ. eigenvalues --  -10.19611 -10.19353 -10.18487 -10.17789 -10.17627
 Alpha  occ. eigenvalues --  -10.17534 -10.17276 -10.17198 -10.17192 -10.17161
 Alpha  occ. eigenvalues --  -10.17123 -10.17053 -10.17015 -10.16682 -10.16582
 Alpha  occ. eigenvalues --   -0.91109  -0.88909  -0.85925  -0.79207  -0.77755
 Alpha  occ. eigenvalues --   -0.74678  -0.72677  -0.71717  -0.69757  -0.68148
 Alpha  occ. eigenvalues --   -0.67354  -0.66616  -0.64879  -0.61377  -0.59024
 Alpha  occ. eigenvalues --   -0.57860  -0.56440  -0.54558  -0.54351  -0.51448
 Alpha  occ. eigenvalues --   -0.49793  -0.48839  -0.47712  -0.46489  -0.45613
 Alpha  occ. eigenvalues --   -0.44992  -0.44669  -0.43547  -0.42818  -0.42240
 Alpha  occ. eigenvalues --   -0.42014  -0.41652  -0.40285  -0.39065  -0.38701
 Alpha  occ. eigenvalues --   -0.38299  -0.38141  -0.37408  -0.36875  -0.36047
 Alpha  occ. eigenvalues --   -0.35720  -0.35113  -0.34870  -0.34402  -0.34100
 Alpha  occ. eigenvalues --   -0.33843  -0.33374  -0.32822  -0.32584  -0.32131
 Alpha  occ. eigenvalues --   -0.31985  -0.31938  -0.31110  -0.30639  -0.29847
 Alpha  occ. eigenvalues --   -0.29069  -0.28041  -0.20823  -0.19468
 Alpha virt. eigenvalues --    0.06624   0.08036   0.08560   0.09520   0.10078
 Alpha virt. eigenvalues --    0.11284   0.11826   0.12202   0.12388   0.13084
 Alpha virt. eigenvalues --    0.13471   0.14426   0.14773   0.14843   0.15210

 Mulliken charges:
               1
     1  C   -0.443463
     2  C   -0.260564
     3  C   -0.278336
     4  C    0.046766
     5  C   -0.138156
     6  N   -0.562006
     7  C   -0.119671
     8  C   -0.076353
     9  C   -0.445443
    10  C   -0.445015
    11  N   -0.391847
    12  C   -0.305564
    13  C   -0.142563
    14  C   -0.073452
    15  C   -0.272860
    16  C   -0.098571
    17  C   -0.270046
    18  C   -0.277109
    19  C   -0.108196
    20  C   -0.271811
    21  H    0.137636
    22  H    0.145281
    23  H    0.141044
    24  H    0.154345
    25  H    0.122727
    26  H    0.136059
    27  H    0.118244
    28  H    0.134028
    29  H    0.148031
    30  H    0.118138
    31  H    0.292790
    32  H    0.131691
    33  H    0.132932
    34  H    0.112768
    35  H    0.141715
    36  H    0.140709
    37  H    0.140680
    38  H    0.139345
    39  H    0.139358
    40  H    0.148788
    41  H    0.147498
    42  H    0.149360
    43  H    0.117721
    44  H    0.135972
    45  H    0.109436
    46  H    0.123006
    47  H    0.136590
    48  H    0.131645
    49  H    0.111742
    50  H    0.128882
    51  H    0.132003
    52  H    0.135147
    53  H    0.133159
    54  H    0.110375
    55  H    0.128458
    56  H    0.126955
 Sum of Mulliken charges =  -0.00000

 Dipole moment (field-independent basis, Debye):
    X=             -0.0021    Y=             -0.4786    Z=             -0.6453  Tot=              0.8034
 Quadrupole moment (field-independent basis, Debye-Ang):
   XX=           -128.6831   YY=           -129.5281   ZZ=           -128.6416
   XY=              3.2191   XZ=              1.2101   YZ=              0.6878

 Normal termination of Gaussian 16 at Sat Nov  5 11:06:29 2022.
