 Gaussian 16, Revision B.01,
 Gaussian 16:  ES64L-G16RevB.01 20-Dec-2017

 -----------------------------
 #p b3lyp/6-31g(d) opt SCF=XQC
 -----------------------------

 ------------------------------
 Gaussian input prepared by ASE
 ------------------------------
 Symbolic Z-matrix:
 Charge =  0 Multiplicity = 1

 SCF Done:  E(RB3LYP) =  -719.211147659     A.U. after   15 cycles
 SCF Done:  E(RB3LYP) =  -719.214882310     A.U. after   12 cycles
 SCF Done:  E(RB3LYP) =  -719.215212877     A.U. after   11 cycles
 SCF Done:  E(RB3LYP) =  -719.215285996     A.U. after   11 cycles
 SCF Done:  E(RB3LYP) =  -719.215342325     A.U. after   11 cycles
 SCF Done:  E(RB3LYP) =  -719.215375319     A.U. after   11 cycles
 SCF Done:  E(RB3LYP) =  -719.215430985     A.U. after   10 cycles
 SCF Done:  E(RB3LYP) =  -719.215447756     A.U. after   10 cycles
 SCF Done:  E(RB3LYP) =  -719.215449428     A.U. after   10 cycles
 SCF Done:  E(RB3LYP) =  -719.215450416     A.U. after    9 cycles
 SCF Done:  E(RB3LYP) =  -719.215450954     A.U. after    8 cycles
 SCF Done:  E(RB3LYP) =  -719.215451186     A.U. after    7 cycles
 SCF Done:  E(RB3LYP) =  -719.215451411     A.U. after    7 cycles
 SCF Done:  E(RB3LYP) =  -719.215451468     A.U. after    7 cycles
 SCF Done:  E(RB3LYP) =  -719.215451504     A.U. after    7 cycles
 Optimization completed.
    -- Stationary point found.

                         Standard orientation:
 ---------------------------------------------------------------------
 Center     Atomic      Atomic             Coordinates (Angstroms)
 Number     Number       Type             X           Y           Z
 ---------------------------------------------------------------------
      1          6           0       -0.496568    3.346942    0.360936
      2          6           0       -0.717196    1.862114    0.239222
      3          7           0        0.402091    1.099827    0.299609
      4          6           0        0.289286   -0.231323    0.204114
      5          7           0        1.414598   -0.990251    0.294830
      6          6           0        2.772776   -0.449654    0.372930
      7          6           0        3.667099   -1.449805    1.108030
      8          6           0        3.303665   -0.082234   -1.036756
      9          7           0        4.578030    0.630423   -1.091129
     10          6           0       -0.995873   -0.815330    0.035489
     11          6           0       -1.616254   -2.086632   -0.108926
     12          7           0       -2.929120   -1.967200   -0.238801
     13          7           0       -3.196422   -0.629583   -0.181914
     14          6           0       -4.554371   -0.138850   -0.291549
     15          6           0       -2.061331    0.102662   -0.016769
     16          7           0       -1.972119    1.442195    0.081011
     17          1           0       -1.448109    3.878558    0.303016
     18          1           0       -0.004682    3.581657    1.311854
     19          1           0        0.166979    3.699365   -0.437083
     20          1           0        1.316649   -1.978829    0.109732
     21          1           0        2.698273    0.474878    0.954329
     22          1           0        3.720245   -2.405973    0.568953
     23          1           0        3.293790   -1.645707    2.118192
     24          1           0        4.687918   -1.063930    1.195082
     25          1           0        2.547971    0.541595   -1.525217
     26          1           0        3.398269   -0.999215   -1.635020
     27          1           0        4.518995    1.496790   -0.558078
     28          1           0        5.324375    0.078305   -0.673648
     29          1           0       -1.173902   -3.075076   -0.122999
     30          1           0       -4.985950   -0.430695   -1.253599
     31          1           0       -4.517238    0.949144   -0.216794
     32          1           0       -5.170376   -0.546087    0.515699
 ---------------------------------------------------------------------

 The electronic state is 1-A.
 Alpha  occ. eigenvalues --  -14.40429 -14.36483 -14.35356 -14.31713 -14.31712
 Alpha  occ. eigenvalues --  -14.31231 -10.27475 -10.25268 -10.24845 -10.22777
 Alpha  occ. eigenvalues --  -10.22183 -10.21558 -10.20744 -10.19239 -10.18859
 Alpha  occ. eigenvalues --  -10.17295  -1.04750  -0.98208  -0.94183  -0.88384
 Alpha  occ. eigenvalues --   -0.86629  -0.83739  -0.79803  -0.76088  -0.71932
 Alpha  occ. eigenvalues --   -0.70661  -0.67873  -0.64675  -0.62185  -0.60367
 Alpha  occ. eigenvalues --   -0.57425  -0.54685  -0.52004  -0.50091  -0.49587
 Alpha  occ. eigenvalues --   -0.47854  -0.47321  -0.46156  -0.44189  -0.43685
 Alpha  occ. eigenvalues --   -0.43357  -0.42104  -0.40393  -0.40166  -0.39803
 Alpha  occ. eigenvalues --   -0.39140  -0.38672  -0.38314  -0.37685  -0.35922
 Alpha  occ. eigenvalues --   -0.34430  -0.33266  -0.30147  -0.28107  -0.26969
 Alpha  occ. eigenvalues --   -0.25073  -0.24651  -0.23642  -0.20958
 Alpha virt. eigenvalues --   -0.02170   0.01206   0.05118   0.06686   0.07315
 Alpha virt. eigenvalues --    0.11864   0.12060   0.12404   0.13446   0.13731
 Alpha virt. eigenvalues --    0.14710   0.15349   0.15538   0.16033   0.16466

 Mulliken charges:
               1
     1  C   -0.505195
     2  C    0.435352
     3  N   -0.572237
     4  C    0.515236
     5  N   -0.659270
     6  C    0.049503
     7  C   -0.469409
     8  C   -0.140227
     9  N   -0.707969
    10  C   -0.016986
    11  C   -0.003897
    12  N   -0.280413
    13  N   -0.369150
    14  C   -0.317458
    15  C    0.571282
    16  N   -0.544072
    17  H    0.166833
    18  H    0.164474
    19  H    0.165514
    20  H    0.323621
    21  H    0.164994
    22  H    0.139261
    23  H    0.163934
    24  H    0.145801
    25  H    0.166792
    26  H    0.129937
    27  H    0.300064
    28  H    0.296158
    29  H    0.139258
    30  H    0.175877
    31  H    0.196638
    32  H    0.175753
 Sum of Mulliken charges =  -0.00000

 Dipole moment (field-independent basis, Debye):
    X=              1.7178    Y=             -1.1303    Z=              1.2701  Tot=              2.4169
 Quadrupole moment (field-independent basis, Debye-Ang):
   XX=            -87.3120   YY=            -92.4856   ZZ=            -98.9817
   XY=             -7.7830   XZ=              7.6745   YZ=              1.1658

 1\1\GINC-NODE57\FOpt\RB3LYP\6-31G(d)\C10H16N6\WYKGROUP\04-Nov-2022\0\\
 #p b3lyp/6-31g(d) opt SCF=XQC\\Gaussian input prepared by ASE\\0,1\C,-
 1.9775713952,2.7473254465,0.3985800307\C,-1.6512178864,1.2797667859,0.
 3092954146\N,-0.330882748,0.9792068993,0.2467576146\C,0.0417122587,-0.
 305000315,0.170678064\N,1.3695204727,-0.5988710089,0.1375814111\C,2.43
 62037262,0.4006905013,0.0597691458\C,3.7050196404,-0.1722464165,0.6940
 68731\C,2.6475220986,0.8712830213,-1.4024018499\N,3.5600946224,1.99455
 32324,-1.6031953056\C,-0.9508902505,-1.3225792788,0.1505194455\C,-1.07

 Normal termination of Gaussian 16 at Fri Nov  4 18:18:25 2022.
