 Gaussian 16, Revision B.01,
 Gaussian 16:  ES64L-G16RevB.01 20-Dec-2017

 -------------------------------------------------------------------
 #p b3lyp/6-31g(d) 6D 10F nosymm GFInput td=(50-50,nstate=2) SCF=XQC
 -------------------------------------------------------------------

 ------------------------------
 Gaussian input prepared by ASE
 ------------------------------
 Symbolic Z-matrix:
 Charge =  0 Multiplicity = 1

                          Input orientation:
 ---------------------------------------------------------------------
 Center     Atomic      Atomic             Coordinates (Angstroms)
 Number     Number       Type             X           Y           Z
 ---------------------------------------------------------------------
      1          6           0       -1.977571    2.747325    0.398580
      2          6           0       -1.651218    1.279767    0.309295
      3          7           0       -0.330883    0.979207    0.246758
      4          6           0        0.041712   -0.305000    0.170678
      5          7           0        1.369520   -0.598871    0.137581
      6          6           0        2.436204    0.400691    0.059769
      7          6           0        3.705020   -0.172246    0.694069
      8          6           0        2.647522    0.871283   -1.402402
      9          7           0        3.560095    1.994553   -1.603195
     10          6           0       -0.950890   -1.322579    0.150519
     11          6           0       -1.074736   -2.737500    0.082712
     12          7           0       -2.346213   -3.108665    0.100951
     13          7           0       -3.076756   -1.958128    0.181440
     14          6           0       -4.523628   -1.999154    0.223163
     15          6           0       -2.277535   -0.857197    0.214359
     16          7           0       -2.674784    0.426354    0.295328
     17          1           0       -3.058132    2.894180    0.445739
     18          1           0       -1.510331    3.187472    1.286976
     19          1           0       -1.574972    3.279882   -0.470689
     20          1           0        1.621340   -1.562917   -0.030774
     21          1           0        2.089159    1.260547    0.641613
     22          1           0        4.048243   -1.067374    0.156826
     23          1           0        3.535535   -0.444164    1.740729
     24          1           0        4.517149    0.561294    0.663847
     25          1           0        1.669994    1.155477   -1.805518
     26          1           0        3.008659    0.024983   -2.003302
     27          1           0        3.243643    2.803691   -1.070866
     28          1           0        4.495430    1.770486   -1.269883
     29          1           0       -0.305545   -3.497584    0.023451
     30          1           0       -4.915339   -2.471094   -0.682822
     31          1           0       -4.879439   -0.969661    0.288271
     32          1           0       -4.861253   -2.565056    1.096501
 ---------------------------------------------------------------------

 SCF Done:  E(RB3LYP) =  -719.215449295     A.U. after   15 cycles

 Excitation energies and oscillator strengths:

 Excited state symmetry could not be determined.
 Excited State   1:      Triplet-?Sym    3.3452 eV  370.63 nm  f=0.0000  <S**2>=2.000
      58 -> 60         0.22003
      59 -> 60         0.64937
 This state for optimization and/or second-order correction.
 Total Energy, E(TD-HF/TD-DFT) =  -719.092515009
 Copying the excited state density for this state as the 1-particle RhoCI density.

 Excited state symmetry could not be determined.
 Excited State   2:      Triplet-?Sym    4.3865 eV  282.65 nm  f=0.0000  <S**2>=2.000
      55 -> 60        -0.24816
      56 -> 60         0.16398
      57 -> 60        -0.10975
      58 -> 60         0.34269
      58 -> 62        -0.11733
      59 -> 60        -0.11436
      59 -> 61         0.45124
      59 -> 62        -0.16677

 Excited state symmetry could not be determined.
 Excited State   3:      Singlet-?Sym    4.7016 eV  263.71 nm  f=0.2442  <S**2>=0.000
      56 -> 60         0.13939
      56 -> 61        -0.11255
      59 -> 60         0.66853
      59 -> 61         0.10737

 Excited state symmetry could not be determined.
 Excited State   4:      Singlet-?Sym    4.8888 eV  253.61 nm  f=0.0059  <S**2>=0.000
      57 -> 60         0.68789

 Alpha  occ. eigenvalues --  -14.40429 -14.36483 -14.35356 -14.31713 -14.31712
 Alpha  occ. eigenvalues --  -14.31231 -10.27475 -10.25268 -10.24845 -10.22777
 Alpha  occ. eigenvalues --  -10.22183 -10.21558 -10.20744 -10.19239 -10.18859
 Alpha  occ. eigenvalues --  -10.17295  -1.04750  -0.98208  -0.94183  -0.88384
 Alpha  occ. eigenvalues --   -0.86629  -0.83739  -0.79803  -0.76088  -0.71932
 Alpha  occ. eigenvalues --   -0.70661  -0.67873  -0.64675  -0.62185  -0.60367
 Alpha  occ. eigenvalues --   -0.57425  -0.54685  -0.52004  -0.50091  -0.49587
 Alpha  occ. eigenvalues --   -0.47854  -0.47321  -0.46156  -0.44189  -0.43685
 Alpha  occ. eigenvalues --   -0.43357  -0.42104  -0.40393  -0.40166  -0.39803
 Alpha  occ. eigenvalues --   -0.39140  -0.38672  -0.38314  -0.37685  -0.35922
 Alpha  occ. eigenvalues --   -0.34430  -0.33266  -0.30147  -0.28107  -0.26969
 Alpha  occ. eigenvalues --   -0.25073  -0.24651  -0.23642  -0.20958
 Alpha virt. eigenvalues --   -0.02170   0.01206   0.05118   0.06686   0.07315
 Alpha virt. eigenvalues --    0.11864   0.12060   0.12404   0.13446   0.13731
 Alpha virt. eigenvalues --    0.14710   0.15349   0.15538   0.16033   0.16466

 Mulliken charges:
               1
     1  C   -0.505197
     2  C    0.435379
     3  N   -0.572240
     4  C    0.515236
     5  N   -0.659260
     6  C    0.049484
     7  C   -0.469408
     8  C   -0.140222
     9  N   -0.707967
    10  C   -0.017002
    11  C   -0.003883
    12  N   -0.280415
    13  N   -0.369147
    14  C   -0.317455
    15  C    0.571284
    16  N   -0.544095
    17  H    0.166834
    18  H    0.164475
    19  H    0.165511
    20  H    0.323620
    21  H    0.164994
    22  H    0.139262
    23  H    0.163934
    24  H    0.145802
    25  H    0.166794
    26  H    0.129936
    27  H    0.300063
    28  H    0.296158
    29  H    0.139258
    30  H    0.175876
    31  H    0.196638
    32  H    0.175752
 Sum of Mulliken charges =  -0.00000

 Dipole moment (field-independent basis, Debye):
    X=              2.1333    Y=             -0.3709    Z=              1.0737  Tot=              2.4169
 Quadrupole moment (field-independent basis, Debye-Ang):
   XX=            -82.9007   YY=            -96.5722   ZZ=           -100.5709
   XY=             -3.5714   XZ=              4.6911   YZ=              3.9112

 Normal termination of Gaussian 16 at Sat Nov  5 11:02:36 2022.
