 Gaussian 16, Revision B.01,
 Gaussian 16:  ES64L-G16RevB.01 20-Dec-2017

 -------------------------------------------------------------------
 #p b3lyp/6-31g(d) 6D 10F nosymm GFInput td=(50-50,nstate=2) SCF=XQC
 -------------------------------------------------------------------

 ------------------------------
 Gaussian input prepared by ASE
 ------------------------------
 Symbolic Z-matrix:
 Charge =  0 Multiplicity = 1

                          Input orientation:
 ---------------------------------------------------------------------
 Center     Atomic      Atomic             Coordinates (Angstroms)
 Number     Number       Type             X           Y           Z
 ---------------------------------------------------------------------
      1          6           0       -4.563653    3.026497   -0.674346
      2          6           0       -3.880341    2.191842    0.404973
      3          8           0       -2.937819    3.050792    1.060140
      4          6           0       -3.173476    0.968235   -0.125710
      5          6           0       -2.316007    0.856127   -1.188418
      6          6           0       -1.601813   -0.377797   -1.210032
      7          6           0       -1.901703   -1.214625   -0.162968
      8          6           0       -1.177169   -2.461755    0.304820
      9          6           0       -0.196440   -2.071019    1.452907
     10          7           0        0.787175   -1.061626    1.098348
     11          6           0        0.635050    0.271910    1.397289
     12          8           0       -0.292944    0.709590    2.077124
     13          6           0        1.687461    1.190888    0.879885
     14          6           0        2.971054    0.859691    0.650192
     15          6           0        4.053661    1.743018    0.200459
     16          6           0        3.855155    3.096224   -0.133731
     17          6           0        4.918258    3.887866   -0.555538
     18          6           0        6.205262    3.349623   -0.656372
     19          6           0        6.419059    2.009877   -0.331307
     20          6           0        5.353366    1.217419    0.091369
     21          6           0       -2.152903   -3.572242    0.774682
     22          6           0       -2.690299   -4.208070   -0.525793
     23          6           0       -1.579542   -3.978094   -1.592893
     24          6           0       -0.466783   -3.189212   -0.865470
     25         16           0       -3.134547   -0.483249    0.838871
     26          1           0       -5.357113    2.454148   -1.165358
     27          1           0       -3.840053    3.350069   -1.429299
     28          1           0       -5.000382    3.921525   -0.220274
     29          1           0       -4.645820    1.866201    1.128722
     30          1           0       -2.291417    2.485920    1.518956
     31          1           0       -2.162978    1.648278   -1.913737
     32          1           0       -0.860240   -0.612715   -1.966073
     33          1           0       -0.755670   -1.673177    2.302415
     34          1           0        0.331022   -2.975443    1.784291
     35          1           0        1.453555   -1.294808    0.375930
     36          1           0        1.339241    2.215604    0.788097
     37          1           0        3.281153   -0.169201    0.835532
     38          1           0        2.862565    3.531091   -0.065239
     39          1           0        4.743910    4.930198   -0.808424
     40          1           0        7.032687    3.971587   -0.986546
     41          1           0        7.414759    1.581202   -0.405939
     42          1           0        5.525514    0.173894    0.345770
     43          1           0       -1.583842   -4.312634    1.353313
     44          1           0       -2.947756   -3.199168    1.429067
     45          1           0       -3.617655   -3.713023   -0.831016
     46          1           0       -2.925084   -5.268470   -0.387602
     47          1           0       -1.972398   -3.397859   -2.433543
     48          1           0       -1.196037   -4.917112   -2.005399
     49          1           0        0.264505   -3.887040   -0.434437
     50          1           0        0.087474   -2.520981   -1.532161
 ---------------------------------------------------------------------

 SCF Done:  E(RB3LYP) =  -1418.66083009     A.U. after   15 cycles

 Excitation energies and oscillator strengths:

 Excited state symmetry could not be determined.
 Excited State   1:      Triplet-?Sym    2.6855 eV  461.69 nm  f=0.0000  <S**2>=2.000
      88 -> 99         0.10168
      89 -> 98         0.12579
      93 -> 96         0.32103
      94 -> 96         0.59383
 This state for optimization and/or second-order correction.
 Total Energy, E(TD-HF/TD-DFT) =  -1418.56214113
 Copying the excited state density for this state as the 1-particle RhoCI density.

 Excited state symmetry could not be determined.
 Excited State   2:      Triplet-?Sym    3.1890 eV  388.78 nm  f=0.0000  <S**2>=2.000
      95 -> 97         0.61566
      95 -> 98         0.30781

 Excited state symmetry could not be determined.
 Excited State   3:      Singlet-?Sym    3.6783 eV  337.07 nm  f=0.0021  <S**2>=0.000
      95 -> 96         0.70239

 Excited state symmetry could not be determined.
 Excited State   4:      Singlet-?Sym    4.0588 eV  305.47 nm  f=0.0435  <S**2>=0.000
      90 -> 96        -0.29910
      92 -> 96        -0.23220
      93 -> 96        -0.35057
      94 -> 96         0.45179

 Alpha  occ. eigenvalues --  -88.89311 -19.12252 -19.11045 -14.35934 -10.28730
 Alpha  occ. eigenvalues --  -10.23556 -10.22280 -10.21278 -10.21198 -10.20990
 Alpha  occ. eigenvalues --  -10.20924 -10.20395 -10.20109 -10.20035 -10.19978
 Alpha  occ. eigenvalues --  -10.19952 -10.19938 -10.19908 -10.19050 -10.18676
 Alpha  occ. eigenvalues --  -10.18397 -10.18391 -10.18213 -10.18147 -10.16780
 Alpha  occ. eigenvalues --   -7.95414  -5.91821  -5.91456  -5.91119  -1.02659
 Alpha  occ. eigenvalues --   -0.99664  -0.92220  -0.87440  -0.86677  -0.84111
 Alpha  occ. eigenvalues --   -0.80565  -0.76426  -0.75478  -0.75188  -0.73665
 Alpha  occ. eigenvalues --   -0.72581  -0.71118  -0.69879  -0.66948  -0.64046
 Alpha  occ. eigenvalues --   -0.61429  -0.61384  -0.59437  -0.58344  -0.57516
 Alpha  occ. eigenvalues --   -0.56438  -0.53119  -0.52693  -0.52306  -0.51597
 Alpha  occ. eigenvalues --   -0.50046  -0.48148  -0.47552  -0.47366  -0.46685
 Alpha  occ. eigenvalues --   -0.46486  -0.44353  -0.43874  -0.42927  -0.42655
 Alpha  occ. eigenvalues --   -0.42516  -0.41846  -0.40544  -0.39866  -0.39769
 Alpha  occ. eigenvalues --   -0.38628  -0.38365  -0.38186  -0.37727  -0.37404
 Alpha  occ. eigenvalues --   -0.36142  -0.35793  -0.35322  -0.35145  -0.34814
 Alpha  occ. eigenvalues --   -0.34372  -0.34150  -0.33723  -0.33180  -0.32171
 Alpha  occ. eigenvalues --   -0.31518  -0.31035  -0.30699  -0.25993  -0.25718
 Alpha  occ. eigenvalues --   -0.25586  -0.24983  -0.23689  -0.23100  -0.21322
 Alpha virt. eigenvalues --   -0.05823  -0.00882  -0.00847   0.02194   0.03366
 Alpha virt. eigenvalues --    0.06522   0.06904   0.08284   0.08630   0.08849
 Alpha virt. eigenvalues --    0.09231   0.10822   0.11143   0.11393   0.11770

 Mulliken charges:
               1
     1  C   -0.443738
     2  C    0.112393
     3  O   -0.632811
     4  C   -0.163741
     5  C   -0.119481
     6  C   -0.138429
     7  C   -0.125852
     8  C    0.027937
     9  C   -0.141646
    10  N   -0.606394
    11  C    0.614789
    12  O   -0.537306
    13  C   -0.198412
    14  C   -0.174570
    15  C    0.173900
    16  C   -0.176586
    17  C   -0.130609
    18  C   -0.125676
    19  C   -0.129839
    20  C   -0.192920
    21  C   -0.295429
    22  C   -0.269804
    23  C   -0.268958
    24  C   -0.292151
    25  S    0.231851
    26  H    0.144622
    27  H    0.151258
    28  H    0.158758
    29  H    0.119799
    30  H    0.408853
    31  H    0.136557
    32  H    0.126741
    33  H    0.191168
    34  H    0.138988
    35  H    0.322512
    36  H    0.159238
    37  H    0.130899
    38  H    0.140621
    39  H    0.137884
    40  H    0.135961
    41  H    0.135294
    42  H    0.130106
    43  H    0.132160
    44  H    0.157443
    45  H    0.154188
    46  H    0.138204
    47  H    0.149139
    48  H    0.137105
    49  H    0.129781
    50  H    0.136202
 Sum of Mulliken charges =  -0.00000

 Dipole moment (field-independent basis, Debye):
    X=              3.7030    Y=             -3.0055    Z=             -2.5755  Tot=              5.4202
 Quadrupole moment (field-independent basis, Debye-Ang):
   XX=           -142.3188   YY=           -147.7992   ZZ=           -161.3924
   XY=              6.7062   XZ=             -0.1718   YZ=             -8.1327

 Normal termination of Gaussian 16 at Sat Nov  5 11:53:55 2022.
