 Gaussian 16, Revision B.01,
 Gaussian 16:  ES64L-G16RevB.01 20-Dec-2017

 -----------------------------
 #p b3lyp/6-31g(d) opt SCF=XQC
 -----------------------------

 ------------------------------
 Gaussian input prepared by ASE
 ------------------------------
 Symbolic Z-matrix:
 Charge =  0 Multiplicity = 1

 SCF Done:  E(RB3LYP) =  -1418.65105453     A.U. after   15 cycles
 SCF Done:  E(RB3LYP) =  -1418.65363936     A.U. after   15 cycles
 SCF Done:  E(RB3LYP) =  -1418.65667786     A.U. after   15 cycles
 SCF Done:  E(RB3LYP) =  -1418.65896991     A.U. after   13 cycles
 SCF Done:  E(RB3LYP) =  -1418.66008552     A.U. after   13 cycles
 SCF Done:  E(RB3LYP) =  -1418.66053467     A.U. after   12 cycles
 SCF Done:  E(RB3LYP) =  -1418.66072902     A.U. after   11 cycles
 SCF Done:  E(RB3LYP) =  -1418.66079583     A.U. after   11 cycles
 SCF Done:  E(RB3LYP) =  -1418.66081345     A.U. after   10 cycles
 SCF Done:  E(RB3LYP) =  -1418.66081850     A.U. after   10 cycles
 SCF Done:  E(RB3LYP) =  -1418.66082104     A.U. after    9 cycles
 SCF Done:  E(RB3LYP) =  -1418.66082391     A.U. after   10 cycles
 SCF Done:  E(RB3LYP) =  -1418.66082634     A.U. after   10 cycles
 SCF Done:  E(RB3LYP) =  -1418.66082793     A.U. after   10 cycles
 SCF Done:  E(RB3LYP) =  -1418.66082946     A.U. after   10 cycles
 SCF Done:  E(RB3LYP) =  -1418.66083004     A.U. after    9 cycles
 SCF Done:  E(RB3LYP) =  -1418.66083016     A.U. after    8 cycles
 SCF Done:  E(RB3LYP) =  -1418.66083029     A.U. after    8 cycles
 SCF Done:  E(RB3LYP) =  -1418.66083038     A.U. after    8 cycles
 SCF Done:  E(RB3LYP) =  -1418.66083040     A.U. after    7 cycles
 Optimization completed.
    -- Stationary point found.

                         Standard orientation:
 ---------------------------------------------------------------------
 Center     Atomic      Atomic             Coordinates (Angstroms)
 Number     Number       Type             X           Y           Z
 ---------------------------------------------------------------------
      1          6           0       -2.871306    4.450604   -1.030526
      2          6           0       -2.610549    3.448677    0.090474
      3          8           0       -1.400255    3.858201    0.740756
      4          6           0       -2.477814    2.022050   -0.384516
      5          6           0       -1.737444    1.520159   -1.422363
      6          6           0       -1.606750    0.100701   -1.388181
      7          6           0       -2.239054   -0.492480   -0.322871
      8          6           0       -2.108711   -1.909408    0.200993
      9          6           0       -1.064423   -1.921666    1.359405
     10          7           0        0.254950   -1.431756    0.997012
     11          6           0        0.673850   -0.146763    1.250270
     12          8           0        0.009355    0.665288    1.893646
     13          6           0        2.019126    0.226030    0.729641
     14          6           0        3.047209   -0.621087    0.541228
     15          6           0        4.404353   -0.290683    0.090057
     16          6           0        4.794835    1.007214   -0.291051
     17          6           0        6.095566    1.263692   -0.711910
     18          6           0        7.038765    0.232280   -0.764992
     19          6           0        6.667890   -1.060163   -0.393057
     20          6           0        5.364456   -1.316263    0.028633
     21          6           0       -3.464337   -2.489891    0.681957
     22          6           0       -4.207758   -2.891595   -0.610431
     23          6           0       -3.093911   -3.189455   -1.657330
     24          6           0       -1.759117   -2.912042   -0.928578
     25         16           0       -3.059780    0.726131    0.625755
     26          1           0       -3.827451    4.244939   -1.522199
     27          1           0       -2.072274    4.411888   -1.777721
     28          1           0       -2.896057    5.463017   -0.615320
     29          1           0       -3.448194    3.501862    0.805552
     30          1           0       -1.054484    3.092589    1.232394
     31          1           0       -1.259946    2.146732   -2.168292
     32          1           0       -1.025734   -0.452234   -2.118522
     33          1           0       -1.412371   -1.293733    2.182396
     34          1           0       -0.967991   -2.950381    1.731511
     35          1           0        0.768156   -1.950317    0.298415
     36          1           0        2.133806    1.297993    0.597463
     37          1           0        2.895372   -1.677262    0.766103
     38          1           0        4.075768    1.820243   -0.260001
     39          1           0        6.376838    2.272580   -1.001452
     40          1           0        8.053598    0.437108   -1.094608
     41          1           0        7.392429   -1.869114   -0.430364
     42          1           0        5.080674   -2.325254    0.319673
     43          1           0       -3.263440   -3.377711    1.296970
     44          1           0       -4.034874   -1.793214    1.305114
     45          1           0       -4.839159   -2.065694   -0.953130
     46          1           0       -4.866986   -3.749865   -0.444719
     47          1           0       -3.199827   -2.530842   -2.524919
     48          1           0       -3.136283   -4.217874   -2.030896
     49          1           0       -1.391846   -3.834904   -0.458501
     50          1           0       -0.969934   -2.563742   -1.602437
 ---------------------------------------------------------------------

 The electronic state is 1-A.
 Alpha  occ. eigenvalues --  -88.89312 -19.12252 -19.11045 -14.35934 -10.28730
 Alpha  occ. eigenvalues --  -10.23556 -10.22280 -10.21278 -10.21199 -10.20990
 Alpha  occ. eigenvalues --  -10.20924 -10.20395 -10.20109 -10.20035 -10.19978
 Alpha  occ. eigenvalues --  -10.19952 -10.19938 -10.19908 -10.19050 -10.18676
 Alpha  occ. eigenvalues --  -10.18398 -10.18391 -10.18213 -10.18147 -10.16780
 Alpha  occ. eigenvalues --   -7.95414  -5.91821  -5.91456  -5.91119  -1.02659
 Alpha  occ. eigenvalues --   -0.99664  -0.92220  -0.87440  -0.86677  -0.84111
 Alpha  occ. eigenvalues --   -0.80565  -0.76426  -0.75478  -0.75188  -0.73665
 Alpha  occ. eigenvalues --   -0.72581  -0.71118  -0.69879  -0.66948  -0.64046
 Alpha  occ. eigenvalues --   -0.61429  -0.61384  -0.59437  -0.58344  -0.57516
 Alpha  occ. eigenvalues --   -0.56438  -0.53119  -0.52693  -0.52306  -0.51597
 Alpha  occ. eigenvalues --   -0.50046  -0.48148  -0.47552  -0.47366  -0.46685
 Alpha  occ. eigenvalues --   -0.46487  -0.44353  -0.43874  -0.42927  -0.42655
 Alpha  occ. eigenvalues --   -0.42516  -0.41846  -0.40544  -0.39866  -0.39769
 Alpha  occ. eigenvalues --   -0.38628  -0.38365  -0.38186  -0.37727  -0.37404
 Alpha  occ. eigenvalues --   -0.36142  -0.35793  -0.35322  -0.35145  -0.34814
 Alpha  occ. eigenvalues --   -0.34372  -0.34150  -0.33722  -0.33180  -0.32171
 Alpha  occ. eigenvalues --   -0.31518  -0.31035  -0.30699  -0.25993  -0.25718
 Alpha  occ. eigenvalues --   -0.25586  -0.24983  -0.23689  -0.23100  -0.21322
 Alpha virt. eigenvalues --   -0.05823  -0.00882  -0.00847   0.02194   0.03366
 Alpha virt. eigenvalues --    0.06522   0.06904   0.08284   0.08630   0.08849
 Alpha virt. eigenvalues --    0.09231   0.10822   0.11143   0.11393   0.11770

 Mulliken charges:
               1
     1  C   -0.443732
     2  C    0.112377
     3  O   -0.632811
     4  C   -0.163726
     5  C   -0.119475
     6  C   -0.138413
     7  C   -0.125890
     8  C    0.027927
     9  C   -0.141629
    10  N   -0.606413
    11  C    0.614814
    12  O   -0.537320
    13  C   -0.198421
    14  C   -0.174567
    15  C    0.173929
    16  C   -0.176608
    17  C   -0.130606
    18  C   -0.125668
    19  C   -0.129846
    20  C   -0.192932
    21  C   -0.295419
    22  C   -0.269829
    23  C   -0.268933
    24  C   -0.292138
    25  S    0.231857
    26  H    0.144622
    27  H    0.151256
    28  H    0.158756
    29  H    0.119800
    30  H    0.408854
    31  H    0.136558
    32  H    0.126739
    33  H    0.191166
    34  H    0.138985
    35  H    0.322513
    36  H    0.159243
    37  H    0.130897
    38  H    0.140621
    39  H    0.137884
    40  H    0.135960
    41  H    0.135295
    42  H    0.130106
    43  H    0.132159
    44  H    0.157443
    45  H    0.154192
    46  H    0.138207
    47  H    0.149134
    48  H    0.137101
    49  H    0.129780
    50  H    0.136199
 Sum of Mulliken charges =  -0.00000

 Dipole moment (field-independent basis, Debye):
    X=              2.1222    Y=             -4.3772    Z=             -2.3906  Tot=              5.4202
 Quadrupole moment (field-independent basis, Debye-Ang):
   XX=           -138.1358   YY=           -150.9321   ZZ=           -160.1473
   XY=              1.8246   XZ=             -3.7685   YZ=             -6.5336

 Normal termination of Gaussian 16 at Fri Nov  4 06:30:29 2022.
