 Gaussian 16, Revision B.01,
 Gaussian 16:  ES64L-G16RevB.01 20-Dec-2017

 -------------------------------------------------------------------
 #p b3lyp/6-31g(d) 6D 10F nosymm GFInput td=(50-50,nstate=2) SCF=XQC
 -------------------------------------------------------------------

 ------------------------------
 Gaussian input prepared by ASE
 ------------------------------
 Symbolic Z-matrix:
 Charge =  0 Multiplicity = 1

                          Input orientation:
 ---------------------------------------------------------------------
 Center     Atomic      Atomic             Coordinates (Angstroms)
 Number     Number       Type             X           Y           Z
 ---------------------------------------------------------------------
      1          6           0        5.948093    0.580613    1.316314
      2          8           0        5.157608   -0.565921    1.583959
      3          6           0        3.870707   -0.585335    1.128820
      4          6           0        3.138984   -1.747775    1.417246
      5          6           0        1.826921   -1.860617    0.989289
      6          6           0        1.188516   -0.825797    0.276315
      7          6           0        1.936567    0.328858   -0.021426
      8          6           0        3.266171    0.443613    0.402009
      9          6           0        1.277679    1.443441   -0.799781
     10          6           0        0.363684    0.870474   -1.894717
     11          6           0       -0.702962   -0.103955   -1.348286
     12          6           0       -0.219355   -0.928571   -0.157978
     13          6           0       -1.129772   -1.730537    0.425591
     14          6           0       -2.533139   -1.800725   -0.111804
     15          6           0       -3.116528   -0.390656   -0.392484
     16          6           0       -4.412242   -0.502618   -1.218606
     17          6           0       -3.447421    0.287461    0.938917
     18          8           0       -4.184711   -0.118385    1.827602
     19          6           0       -2.763202    1.586532    0.992694
     20          8           0       -2.962812    2.396472    2.050934
     21          6           0       -2.018037    1.770479   -0.111979
     22          6           0       -2.078896    0.583360   -1.049502
     23          1           0        5.514435    1.484246    1.764981
     24          1           0        6.922106    0.385401    1.768923
     25          1           0        6.075724    0.741079    0.237376
     26          1           0        3.627764   -2.550043    1.961078
     27          1           0        1.286384   -2.780490    1.191847
     28          1           0        3.815563    1.346145    0.155363
     29          1           0        2.038595    2.093190   -1.248746
     30          1           0        0.696865    2.075386   -0.114496
     31          1           0        0.996287    0.335928   -2.614066
     32          1           0       -0.121548    1.681820   -2.452706
     33          1           0       -0.927417   -0.817761   -2.156353
     34          1           0       -0.879081   -2.326941    1.298778
     35          1           0       -2.556365   -2.374942   -1.052422
     36          1           0       -3.200087   -2.316500    0.586837
     37          1           0       -4.842046    0.485342   -1.420340
     38          1           0       -4.214540   -0.990687   -2.179822
     39          1           0       -5.158369   -1.092547   -0.675690
     40          1           0       -3.571747    1.902746    2.637894
     41          1           0       -1.449886    2.667478   -0.331980
     42          1           0       -2.458489    0.920736   -2.025633
 ---------------------------------------------------------------------

 SCF Done:  E(RB3LYP) =  -961.711249988     A.U. after   15 cycles

 Excitation energies and oscillator strengths:

 Excited state symmetry could not be determined.
 Excited State   1:      Triplet-?Sym    2.8343 eV  437.45 nm  f=0.0000  <S**2>=2.000
      75 -> 81        -0.12483
      75 -> 83         0.12430
      77 -> 82        -0.13392
      79 -> 80         0.10930
      79 -> 81         0.65596
 This state for optimization and/or second-order correction.
 Total Energy, E(TD-HF/TD-DFT) =  -961.607092690
 Copying the excited state density for this state as the 1-particle RhoCI density.

 Excited state symmetry could not be determined.
 Excited State   2:      Triplet-?Sym    2.9006 eV  427.45 nm  f=0.0000  <S**2>=2.000
      77 -> 80         0.16558
      78 -> 80         0.66422

 Excited state symmetry could not be determined.
 Excited State   3:      Singlet-?Sym    3.4867 eV  355.59 nm  f=0.0017  <S**2>=0.000
      79 -> 80         0.70101

 Excited state symmetry could not be determined.
 Excited State   4:      Singlet-?Sym    4.0457 eV  306.46 nm  f=0.0025  <S**2>=0.000
      75 -> 80        -0.20239
      76 -> 80         0.66917

 Alpha  occ. eigenvalues --  -19.18037 -19.17765 -19.14461 -10.26866 -10.24536
 Alpha  occ. eigenvalues --  -10.24485 -10.24143 -10.20747 -10.20498 -10.19949
 Alpha  occ. eigenvalues --  -10.19867 -10.19415 -10.18972 -10.18952 -10.18905
 Alpha  occ. eigenvalues --  -10.18897 -10.18645 -10.18596 -10.18536 -10.18338
 Alpha  occ. eigenvalues --  -10.18043 -10.17726  -1.07017  -1.06317  -1.03265
 Alpha  occ. eigenvalues --   -0.87619  -0.85571  -0.81182  -0.79540  -0.76831
 Alpha  occ. eigenvalues --   -0.75558  -0.73568  -0.71441  -0.70190  -0.66981
 Alpha  occ. eigenvalues --   -0.65510  -0.63810  -0.61420  -0.59861  -0.57496
 Alpha  occ. eigenvalues --   -0.56111  -0.55492  -0.52269  -0.51380  -0.50398
 Alpha  occ. eigenvalues --   -0.49134  -0.47897  -0.46902  -0.46812  -0.45715
 Alpha  occ. eigenvalues --   -0.45093  -0.44291  -0.43365  -0.43336  -0.41976
 Alpha  occ. eigenvalues --   -0.41230  -0.40904  -0.40348  -0.39748  -0.39257
 Alpha  occ. eigenvalues --   -0.38624  -0.38131  -0.37339  -0.36916  -0.36503
 Alpha  occ. eigenvalues --   -0.36229  -0.35899  -0.34972  -0.34514  -0.33645
 Alpha  occ. eigenvalues --   -0.32254  -0.31557  -0.30916  -0.30350  -0.25879
 Alpha  occ. eigenvalues --   -0.25142  -0.24264  -0.23368  -0.19746
 Alpha virt. eigenvalues --   -0.04604  -0.01854   0.00254   0.05957   0.07052
 Alpha virt. eigenvalues --    0.08831   0.09445   0.09744   0.10314   0.10843
 Alpha virt. eigenvalues --    0.11699   0.12517   0.13175   0.13333   0.14476

 Mulliken charges:
               1
     1  C   -0.212958
     2  O   -0.509377
     3  C    0.388917
     4  C   -0.179145
     5  C   -0.184982
     6  C    0.076961
     7  C    0.119484
     8  C   -0.280158
     9  C   -0.353907
    10  C   -0.286848
    11  C   -0.160914
    12  C    0.122256
    13  C   -0.211725
    14  C   -0.313247
    15  C    0.002649
    16  C   -0.462832
    17  C    0.404737
    18  O   -0.511114
    19  C    0.322161
    20  O   -0.637517
    21  C   -0.158628
    22  C   -0.169157
    23  H    0.152608
    24  H    0.169685
    25  H    0.150854
    26  H    0.136159
    27  H    0.131101
    28  H    0.123525
    29  H    0.140196
    30  H    0.160585
    31  H    0.146256
    32  H    0.133239
    33  H    0.141535
    34  H    0.131641
    35  H    0.144684
    36  H    0.162170
    37  H    0.150715
    38  H    0.147513
    39  H    0.167440
    40  H    0.419799
    41  H    0.148593
    42  H    0.137043
 Sum of Mulliken charges =  -0.00000

 Dipole moment (field-independent basis, Debye):
    X=              1.8272    Y=              0.9859    Z=             -2.5852  Tot=              3.3157
 Quadrupole moment (field-independent basis, Debye-Ang):
   XX=           -123.6508   YY=           -126.7434   ZZ=           -129.0501
   XY=              7.8907   XZ=              6.9175   YZ=             -1.4923

 Normal termination of Gaussian 16 at Sat Nov  5 11:48:09 2022.
