 Gaussian 16, Revision B.01,
 Gaussian 16:  ES64L-G16RevB.01 20-Dec-2017

 -----------------------------
 #p b3lyp/6-31g(d) opt SCF=XQC
 -----------------------------

 ------------------------------
 Gaussian input prepared by ASE
 ------------------------------
 Symbolic Z-matrix:
 Charge =  0 Multiplicity = 1

 SCF Done:  E(RB3LYP) =  -961.706036402     A.U. after   14 cycles
 SCF Done:  E(RB3LYP) =  -961.710403612     A.U. after   13 cycles
 SCF Done:  E(RB3LYP) =  -961.710939253     A.U. after   12 cycles
 SCF Done:  E(RB3LYP) =  -961.711098536     A.U. after   12 cycles
 SCF Done:  E(RB3LYP) =  -961.711226869     A.U. after   10 cycles
 SCF Done:  E(RB3LYP) =  -961.711243280     A.U. after    9 cycles
 SCF Done:  E(RB3LYP) =  -961.711246157     A.U. after    9 cycles
 SCF Done:  E(RB3LYP) =  -961.711246434     A.U. after    8 cycles
 Optimization completed.
    -- Stationary point found.

                         Standard orientation:
 ---------------------------------------------------------------------
 Center     Atomic      Atomic             Coordinates (Angstroms)
 Number     Number       Type             X           Y           Z
 ---------------------------------------------------------------------
      1          6           0       -6.052115   -0.921674    0.482207
      2          8           0       -5.362411    0.286743    0.756208
      3          6           0       -4.039640    0.365622    0.428034
      4          6           0       -3.411338    1.587170    0.716012
      5          6           0       -2.071888    1.762246    0.411685
      6          6           0       -1.304302    0.734474   -0.172472
      7          6           0       -1.948346   -0.480883   -0.471757
      8          6           0       -3.304644   -0.659255   -0.173515
      9          6           0       -1.149070   -1.590311   -1.114092
     10          6           0       -0.165141   -1.018603   -2.147337
     11          6           0        0.780979    0.051342   -1.559197
     12          6           0        0.131535    0.905432   -0.473171
     13          6           0        0.929038    1.795331    0.147014
     14          6           0        2.372739    1.927982   -0.254596
     15          6           0        3.064480    0.545956   -0.392134
     16          6           0        4.427886    0.697681   -1.093555
     17          6           0        3.299301   -0.036549    1.003397
     18          8           0        3.917725    0.463752    1.933622
     19          6           0        2.691822   -1.372739    1.068196
     20          8           0        2.831661   -2.109851    2.187495
     21          6           0        2.074120   -1.664063   -0.090676
     22          6           0        2.158299   -0.527629   -1.087340
     23          1           0       -5.612798   -1.769640    1.024304
     24          1           0       -7.076692   -0.766409    0.825423
     25          1           0       -6.060527   -1.147907   -0.592453
     26          1           0       -3.999412    2.383897    1.160633
     27          1           0       -1.610337    2.724999    0.610313
     28          1           0       -3.771579   -1.607677   -0.417843
     29          1           0       -1.820747   -2.311542   -1.595145
     30          1           0       -0.603663   -2.145235   -0.338910
     31          1           0       -0.752739   -0.565942   -2.955555
     32          1           0        0.421379   -1.825368   -2.605822
     33          1           0        1.042796    0.733797   -2.382955
     34          1           0        0.556485    2.420181    0.954334
     35          1           0        2.456398    2.451086   -1.221235
     36          1           0        2.933912    2.523009    0.473395
     37          1           0        4.933973   -0.269529   -1.192917
     38          1           0        4.299350    1.119416   -2.096975
     39          1           0        5.078970    1.363392   -0.517016
     40          1           0        3.347793   -1.546587    2.800217
     41          1           0        1.585539   -2.606764   -0.310690
     42          1           0        2.653803   -0.891500   -1.999930
 ---------------------------------------------------------------------

 The electronic state is 1-A.
 Alpha  occ. eigenvalues --  -19.18037 -19.17765 -19.14461 -10.26866 -10.24535
 Alpha  occ. eigenvalues --  -10.24485 -10.24143 -10.20746 -10.20498 -10.19949
 Alpha  occ. eigenvalues --  -10.19867 -10.19416 -10.18972 -10.18952 -10.18905
 Alpha  occ. eigenvalues --  -10.18897 -10.18646 -10.18596 -10.18536 -10.18338
 Alpha  occ. eigenvalues --  -10.18043 -10.17726  -1.07017  -1.06317  -1.03265
 Alpha  occ. eigenvalues --   -0.87619  -0.85571  -0.81182  -0.79540  -0.76831
 Alpha  occ. eigenvalues --   -0.75558  -0.73568  -0.71441  -0.70190  -0.66981
 Alpha  occ. eigenvalues --   -0.65509  -0.63810  -0.61420  -0.59861  -0.57496
 Alpha  occ. eigenvalues --   -0.56111  -0.55492  -0.52269  -0.51380  -0.50398
 Alpha  occ. eigenvalues --   -0.49134  -0.47897  -0.46902  -0.46812  -0.45715
 Alpha  occ. eigenvalues --   -0.45093  -0.44291  -0.43364  -0.43335  -0.41976
 Alpha  occ. eigenvalues --   -0.41230  -0.40904  -0.40348  -0.39748  -0.39257
 Alpha  occ. eigenvalues --   -0.38624  -0.38131  -0.37339  -0.36916  -0.36503
 Alpha  occ. eigenvalues --   -0.36229  -0.35899  -0.34972  -0.34514  -0.33645
 Alpha  occ. eigenvalues --   -0.32254  -0.31557  -0.30916  -0.30350  -0.25879
 Alpha  occ. eigenvalues --   -0.25142  -0.24264  -0.23367  -0.19746
 Alpha virt. eigenvalues --   -0.04604  -0.01854   0.00253   0.05957   0.07052
 Alpha virt. eigenvalues --    0.08831   0.09445   0.09744   0.10314   0.10843
 Alpha virt. eigenvalues --    0.11699   0.12517   0.13175   0.13333   0.14476

 Mulliken charges:
               1
     1  C   -0.212965
     2  O   -0.509373
     3  C    0.388913
     4  C   -0.179147
     5  C   -0.184978
     6  C    0.076971
     7  C    0.119449
     8  C   -0.280153
     9  C   -0.353917
    10  C   -0.286836
    11  C   -0.160893
    12  C    0.122233
    13  C   -0.211701
    14  C   -0.313249
    15  C    0.002648
    16  C   -0.462836
    17  C    0.404748
    18  O   -0.511120
    19  C    0.322149
    20  O   -0.637520
    21  C   -0.158583
    22  C   -0.169193
    23  H    0.152610
    24  H    0.169686
    25  H    0.150856
    26  H    0.136160
    27  H    0.131102
    28  H    0.123523
    29  H    0.140199
    30  H    0.160587
    31  H    0.146256
    32  H    0.133241
    33  H    0.141535
    34  H    0.131642
    35  H    0.144683
    36  H    0.162168
    37  H    0.150715
    38  H    0.147512
    39  H    0.167439
    40  H    0.419798
    41  H    0.148594
    42  H    0.137043
 Sum of Mulliken charges =  -0.00000

 Dipole moment (field-independent basis, Debye):
    X=             -1.4954    Y=             -1.2406    Z=             -2.6868  Tot=              3.3158
 Quadrupole moment (field-independent basis, Debye-Ang):
   XX=           -123.1078   YY=           -125.5354   ZZ=           -129.0827
   XY=              7.6087   XZ=             -6.2752   YZ=              2.0364

 Normal termination of Gaussian 16 at Fri Nov  4 19:30:04 2022.
