 Gaussian 16, Revision B.01,
 Gaussian 16:  ES64L-G16RevB.01 20-Dec-2017

 -----------------------------
 #p b3lyp/6-31g(d) opt SCF=XQC
 -----------------------------

 ------------------------------
 Gaussian input prepared by ASE
 ------------------------------
 Symbolic Z-matrix:
 Charge =  0 Multiplicity = 1

 SCF Done:  E(RB3LYP) =  -931.814275644     A.U. after   14 cycles
 SCF Done:  E(RB3LYP) =  -931.820349663     A.U. after   13 cycles
 SCF Done:  E(RB3LYP) =  -931.821322741     A.U. after   12 cycles
 SCF Done:  E(RB3LYP) =  -931.821834994     A.U. after   12 cycles
 SCF Done:  E(RB3LYP) =  -931.822690031     A.U. after   12 cycles
 SCF Done:  E(RB3LYP) =  -931.823386960     A.U. after   12 cycles
 SCF Done:  E(RB3LYP) =  -931.823777221     A.U. after   12 cycles
 SCF Done:  E(RB3LYP) =  -931.824316642     A.U. after   13 cycles
 SCF Done:  E(RB3LYP) =  -931.825376976     A.U. after   12 cycles
 SCF Done:  E(RB3LYP) =  -931.825783558     A.U. after   11 cycles
 SCF Done:  E(RB3LYP) =  -931.825877681     A.U. after   10 cycles
 SCF Done:  E(RB3LYP) =  -931.825917142     A.U. after   11 cycles
 SCF Done:  E(RB3LYP) =  -931.825899356     A.U. after   11 cycles
 SCF Done:  E(RB3LYP) =  -931.825930715     A.U. after   10 cycles
 SCF Done:  E(RB3LYP) =  -931.825931601     A.U. after    9 cycles
 SCF Done:  E(RB3LYP) =  -931.825935112     A.U. after   10 cycles
 SCF Done:  E(RB3LYP) =  -931.825936185     A.U. after    9 cycles
 SCF Done:  E(RB3LYP) =  -931.825936959     A.U. after    9 cycles
 SCF Done:  E(RB3LYP) =  -931.825937140     A.U. after    8 cycles
 SCF Done:  E(RB3LYP) =  -931.825937168     A.U. after    6 cycles
 Optimization completed.
    -- Stationary point found.

                         Standard orientation:
 ---------------------------------------------------------------------
 Center     Atomic      Atomic             Coordinates (Angstroms)
 Number     Number       Type             X           Y           Z
 ---------------------------------------------------------------------
      1          8           0        3.645013   -3.456833   -0.496575
      2          6           0        3.406392   -2.312960   -0.128973
      3          6           0        4.556139   -1.369464   -0.002328
      4          6           0        4.640068   -0.102119    0.444929
      5          6           0        3.588947    0.822519    0.997388
      6          6           0        3.091570    1.849797   -0.045080
      7          6           0        1.976210    2.744691    0.509844
      8          6           0        1.352045    3.650550   -0.578211
      9          6           0        0.114577    4.359837   -0.099253
     10          6           0       -1.136194    3.858480   -0.026012
     11          6           0       -1.528504    2.484041   -0.415400
     12          8           0       -0.706121    1.632036   -0.745487
     13          6           0       -3.014927    2.118780   -0.401510
     14          6           0       -3.264555    0.822226    0.394548
     15          6           0       -4.538069    0.070853   -0.013106
     16          6           0       -4.769754   -1.239133    0.769508
     17          6           0       -3.558126   -2.189202    0.841660
     18          6           0       -3.018839   -2.663770   -0.519094
     19          6           0       -1.625582   -3.318647   -0.461193
     20          6           0       -0.504523   -2.339550   -0.075610
     21          6           0        0.912439   -2.897836   -0.261134
     22          6           0        1.974365   -1.873210    0.151587
     23          1           0        5.472430   -1.841834   -0.352339
     24          1           0        5.633239    0.347269    0.387396
     25          1           0        4.022224    1.365604    1.849221
     26          1           0        2.730454    0.270415    1.385739
     27          1           0        3.934462    2.459513   -0.399629
     28          1           0        2.710811    1.308393   -0.920597
     29          1           0        2.357856    3.358250    1.337637
     30          1           0        1.184215    2.108743    0.917831
     31          1           0        1.097331    3.017955   -1.433245
     32          1           0        2.091565    4.391495   -0.907316
     33          1           0        0.247797    5.388825    0.237215
     34          1           0       -1.934229    4.501608    0.339008
     35          1           0       -3.631865    2.946315   -0.033415
     36          1           0       -3.296047    1.953169   -1.451878
     37          1           0       -2.397394    0.177027    0.230316
     38          1           0       -3.289128    1.050401    1.469787
     39          1           0       -5.416779    0.718233    0.116952
     40          1           0       -4.483250   -0.145658   -1.088995
     41          1           0       -5.070768   -0.990816    1.797231
     42          1           0       -5.625237   -1.764719    0.322209
     43          1           0       -2.758230   -1.692655    1.403321
     44          1           0       -3.835872   -3.067713    1.440714
     45          1           0       -3.737582   -3.367960   -0.961352
     46          1           0       -2.961648   -1.816015   -1.215078
     47          1           0       -1.399530   -3.744210   -1.449014
     48          1           0       -1.636065   -4.166256    0.239874
     49          1           0       -0.628370   -2.026797    0.970809
     50          1           0       -0.605890   -1.422572   -0.674906
     51          1           0        1.045630   -3.819130    0.318892
     52          1           0        1.070476   -3.179385   -1.309728
     53          1           0        1.887114   -1.658812    1.227518
     54          1           0        1.789068   -0.915602   -0.353049
 ---------------------------------------------------------------------

 The electronic state is 1-A.
 Alpha  occ. eigenvalues --  -19.13611 -19.12302 -10.27481 -10.26249 -10.21844
 Alpha  occ. eigenvalues --  -10.20667 -10.19750 -10.19427 -10.19163 -10.19119
 Alpha  occ. eigenvalues --  -10.19021 -10.18808 -10.18693 -10.18232 -10.18183
 Alpha  occ. eigenvalues --  -10.17931 -10.17723 -10.17242 -10.17137 -10.17047
 Alpha  occ. eigenvalues --  -10.16985 -10.16823  -1.03328  -1.02133  -0.82448
 Alpha  occ. eigenvalues --   -0.81044  -0.80865  -0.79338  -0.77910  -0.76395
 Alpha  occ. eigenvalues --   -0.74718  -0.72159  -0.70501  -0.66942  -0.66359
 Alpha  occ. eigenvalues --   -0.62664  -0.61390  -0.59400  -0.58261  -0.57581
 Alpha  occ. eigenvalues --   -0.56513  -0.54627  -0.51324  -0.50668  -0.49724
 Alpha  occ. eigenvalues --   -0.48576  -0.47537  -0.46834  -0.46021  -0.45409
 Alpha  occ. eigenvalues --   -0.45012  -0.44533  -0.43160  -0.43043  -0.42225
 Alpha  occ. eigenvalues --   -0.41812  -0.40912  -0.40389  -0.39986  -0.39710
 Alpha  occ. eigenvalues --   -0.39145  -0.38244  -0.38104  -0.36613  -0.36339
 Alpha  occ. eigenvalues --   -0.36028  -0.35667  -0.35054  -0.34684  -0.34084
 Alpha  occ. eigenvalues --   -0.33755  -0.33522  -0.33080  -0.32734  -0.32612
 Alpha  occ. eigenvalues --   -0.31950  -0.31528  -0.30691  -0.29970  -0.29888
 Alpha  occ. eigenvalues --   -0.27088  -0.25827  -0.24540  -0.23519
 Alpha virt. eigenvalues --   -0.06224  -0.04226   0.06215   0.07087   0.07815
 Alpha virt. eigenvalues --    0.08740   0.08971   0.09663   0.10765   0.10937
 Alpha virt. eigenvalues --    0.11686   0.12236   0.12504   0.13206   0.13394

 Mulliken charges:
               1
     1  O   -0.469853
     2  C    0.452943
     3  C   -0.178497
     4  C   -0.096769
     5  C   -0.314815
     6  C   -0.262234
     7  C   -0.253839
     8  C   -0.295728
     9  C   -0.085056
    10  C   -0.177244
    11  C    0.432804
    12  O   -0.487369
    13  C   -0.346335
    14  C   -0.272857
    15  C   -0.262083
    16  C   -0.258488
    17  C   -0.265599
    18  C   -0.258433
    19  C   -0.256060
    20  C   -0.270476
    21  C   -0.249103
    22  C   -0.388389
    23  H    0.143462
    24  H    0.138258
    25  H    0.144290
    26  H    0.154537
    27  H    0.133488
    28  H    0.155636
    29  H    0.128438
    30  H    0.161220
    31  H    0.177552
    32  H    0.133233
    33  H    0.143106
    34  H    0.130829
    35  H    0.139977
    36  H    0.165683
    37  H    0.180670
    38  H    0.130764
    39  H    0.127308
    40  H    0.135020
    41  H    0.126569
    42  H    0.128801
    43  H    0.139676
    44  H    0.127780
    45  H    0.125927
    46  H    0.134791
    47  H    0.129284
    48  H    0.126681
    49  H    0.125038
    50  H    0.151808
    51  H    0.145603
    52  H    0.145026
    53  H    0.160616
    54  H    0.172409
 Sum of Mulliken charges =  -0.00000

 Dipole moment (field-independent basis, Debye):
    X=             -1.6917    Y=              5.2989    Z=              1.4899  Tot=              5.7584
 Quadrupole moment (field-independent basis, Debye-Ang):
   XX=           -133.8486   YY=           -138.3801   ZZ=           -136.6617
   XY=             13.1358   XZ=              3.2532   YZ=             -1.2383

 1\1\GINC-NODE32\FOpt\RB3LYP\6-31G(d)\C20H32O2\WYKGROUP\04-Nov-2022\0\\
 #p b3lyp/6-31g(d) opt SCF=XQC\\Gaussian input prepared by ASE\\0,1\O,-
 0.0959722642,5.17150555,0.7738432139\C,0.6098779533,4.2745864596,0.329
 0644502\C,2.0690686653,4.549433452,0.1762092966\C,3.0754395586,3.82344
 22853,-0.3466677782\C,3.0828683223,2.4605630635,-0.9850454307\C,3.5737
 899525,1.3546658117,-0.0230620737\C,3.5169043,-0.0377989815,-0.6638497
 293\C,3.8346096218,-1.1647498667,0.3476198275\C,3.5595456605,-2.535174
 4481,-0.2092394546\C,2.3657996662,-3.1598295244,-0.2862139324\C,1.0765

 Normal termination of Gaussian 16 at Fri Nov  4 19:31:49 2022.
