 Gaussian 16, Revision B.01,
 Gaussian 16:  ES64L-G16RevB.01 20-Dec-2017

 -------------------------------------------------------------------
 #p b3lyp/6-31g(d) 6D 10F nosymm GFInput td=(50-50,nstate=2) SCF=XQC
 -------------------------------------------------------------------

 ------------------------------
 Gaussian input prepared by ASE
 ------------------------------
 Symbolic Z-matrix:
 Charge =  0 Multiplicity = 1

                          Input orientation:
 ---------------------------------------------------------------------
 Center     Atomic      Atomic             Coordinates (Angstroms)
 Number     Number       Type             X           Y           Z
 ---------------------------------------------------------------------
      1          8           0       -0.095972    5.171506    0.773843
      2          6           0        0.609878    4.274586    0.329064
      3          6           0        2.069069    4.549433    0.176209
      4          6           0        3.075440    3.823442   -0.346668
      5          6           0        3.082868    2.460563   -0.985045
      6          6           0        3.573790    1.354666   -0.023062
      7          6           0        3.516904   -0.037799   -0.663850
      8          6           0        3.834610   -1.164750    0.347620
      9          6           0        3.559546   -2.535174   -0.209239
     10          6           0        2.365800   -3.159830   -0.286214
     11          6           0        1.076517   -2.596045    0.176938
     12          8           0        0.969784   -1.440489    0.582503
     13          6           0       -0.164410   -3.491634    0.144063
     14          6           0       -1.336800   -2.796182   -0.576299
     15          6           0       -2.721558   -3.306589   -0.158554
     16          6           0       -3.892165   -2.589636   -0.864163
     17          6           0       -3.833380   -1.049517   -0.842835
     18          6           0       -3.805701   -0.416728    0.559488
     19          6           0       -3.404098    1.070417    0.581733
     20          6           0       -1.943969    1.316448    0.167521
     21          6           0       -1.446314    2.744299    0.427264
     22          6           0        0.009407    2.917600   -0.018525
     23          1           0        2.312835    5.530382    0.580620
     24          1           0        4.062370    4.286402   -0.289367
     25          1           0        3.751972    2.492845   -1.856566
     26          1           0        2.095196    2.186875   -1.362197
     27          1           0        4.594244    1.581396    0.316336
     28          1           0        2.940663    1.359835    0.873459
     29          1           0        4.206956   -0.091787   -1.517233
     30          1           0        2.507855   -0.205541   -1.053494
     31          1           0        3.213038   -1.003493    1.232936
     32          1           0        4.887331   -1.099831    0.650544
     33          1           0        4.419558   -3.076709   -0.605338
     34          1           0        2.328197   -4.159939   -0.712921
     35          1           0        0.055582   -4.472588   -0.292119
     36          1           0       -0.441706   -3.663802    1.194394
     37          1           0       -1.261915   -1.729683   -0.347838
     38          1           0       -1.210502   -2.895656   -1.663939
     39          1           0       -2.801256   -4.385402   -0.353384
     40          1           0       -2.819371   -3.191644    0.929857
     41          1           0       -3.928109   -2.915579   -1.913426
     42          1           0       -4.833164   -2.929768   -0.409191
     43          1           0       -2.953841   -0.725921   -1.411653
     44          1           0       -4.699826   -0.657324   -1.393514
     45          1           0       -4.794336   -0.537191    1.024412
     46          1           0       -3.102625   -0.963046    1.202587
     47          1           0       -3.552842    1.456074    1.600134
     48          1           0       -4.076971    1.652529   -0.065132
     49          1           0       -1.816687    1.085026   -0.899432
     50          1           0       -1.293670    0.610690    0.705383
     51          1           0       -2.078731    3.475888   -0.090209
     52          1           0       -1.527633    2.981497    1.495402
     53          1           0        0.084613    2.779319   -1.107758
     54          1           0        0.633532    2.127559    0.420005
 ---------------------------------------------------------------------

 SCF Done:  E(RB3LYP) =  -931.825942110     A.U. after   14 cycles

 Excitation energies and oscillator strengths:

 Excited state symmetry could not be determined.
 Excited State   1:      Triplet-?Sym    2.9750 eV  416.75 nm  f=0.0000  <S**2>=2.000
      81 -> 85         0.17932
      82 -> 85        -0.10591
      83 -> 85         0.66254
 This state for optimization and/or second-order correction.
 Total Energy, E(TD-HF/TD-DFT) =  -931.716611936
 Copying the excited state density for this state as the 1-particle RhoCI density.

 Excited state symmetry could not be determined.
 Excited State   2:      Triplet-?Sym    3.1031 eV  399.55 nm  f=0.0000  <S**2>=2.000
      81 -> 85         0.60324
      82 -> 85        -0.23343
      83 -> 85        -0.19882
      84 -> 86        -0.13097

 Excited state symmetry could not be determined.
 Excited State   3:      Singlet-?Sym    3.4664 eV  357.68 nm  f=0.0002  <S**2>=0.000
      83 -> 85         0.69861

 Excited state symmetry could not be determined.
 Excited State   4:      Singlet-?Sym    3.6716 eV  337.69 nm  f=0.0001  <S**2>=0.000
      84 -> 85         0.12042
      84 -> 86         0.68871

 Alpha  occ. eigenvalues --  -19.13611 -19.12302 -10.27481 -10.26249 -10.21844
 Alpha  occ. eigenvalues --  -10.20667 -10.19750 -10.19427 -10.19163 -10.19119
 Alpha  occ. eigenvalues --  -10.19021 -10.18808 -10.18693 -10.18232 -10.18183
 Alpha  occ. eigenvalues --  -10.17931 -10.17723 -10.17242 -10.17137 -10.17047
 Alpha  occ. eigenvalues --  -10.16985 -10.16823  -1.03328  -1.02133  -0.82448
 Alpha  occ. eigenvalues --   -0.81044  -0.80865  -0.79338  -0.77910  -0.76395
 Alpha  occ. eigenvalues --   -0.74718  -0.72159  -0.70501  -0.66942  -0.66359
 Alpha  occ. eigenvalues --   -0.62664  -0.61390  -0.59400  -0.58261  -0.57581
 Alpha  occ. eigenvalues --   -0.56513  -0.54627  -0.51324  -0.50668  -0.49723
 Alpha  occ. eigenvalues --   -0.48576  -0.47537  -0.46834  -0.46022  -0.45409
 Alpha  occ. eigenvalues --   -0.45012  -0.44533  -0.43160  -0.43043  -0.42225
 Alpha  occ. eigenvalues --   -0.41812  -0.40912  -0.40389  -0.39987  -0.39710
 Alpha  occ. eigenvalues --   -0.39145  -0.38244  -0.38104  -0.36613  -0.36339
 Alpha  occ. eigenvalues --   -0.36028  -0.35667  -0.35054  -0.34684  -0.34084
 Alpha  occ. eigenvalues --   -0.33755  -0.33522  -0.33080  -0.32734  -0.32612
 Alpha  occ. eigenvalues --   -0.31950  -0.31528  -0.30691  -0.29970  -0.29888
 Alpha  occ. eigenvalues --   -0.27088  -0.25827  -0.24540  -0.23519
 Alpha virt. eigenvalues --   -0.06224  -0.04226   0.06215   0.07087   0.07816
 Alpha virt. eigenvalues --    0.08740   0.08971   0.09663   0.10765   0.10937
 Alpha virt. eigenvalues --    0.11686   0.12236   0.12504   0.13206   0.13394

 Mulliken charges:
               1
     1  O   -0.469854
     2  C    0.452943
     3  C   -0.178495
     4  C   -0.096762
     5  C   -0.314817
     6  C   -0.262242
     7  C   -0.253856
     8  C   -0.295691
     9  C   -0.085072
    10  C   -0.177254
    11  C    0.432829
    12  O   -0.487379
    13  C   -0.346335
    14  C   -0.272871
    15  C   -0.262083
    16  C   -0.258472
    17  C   -0.265608
    18  C   -0.258443
    19  C   -0.256045
    20  C   -0.270490
    21  C   -0.249114
    22  C   -0.388379
    23  H    0.143461
    24  H    0.138257
    25  H    0.144291
    26  H    0.154534
    27  H    0.133490
    28  H    0.155639
    29  H    0.128439
    30  H    0.161224
    31  H    0.177547
    32  H    0.133227
    33  H    0.143106
    34  H    0.130829
    35  H    0.139977
    36  H    0.165684
    37  H    0.180672
    38  H    0.130766
    39  H    0.127309
    40  H    0.135020
    41  H    0.126566
    42  H    0.128799
    43  H    0.139677
    44  H    0.127782
    45  H    0.125929
    46  H    0.134793
    47  H    0.129283
    48  H    0.126679
    49  H    0.125045
    50  H    0.151809
    51  H    0.145606
    52  H    0.145028
    53  H    0.160614
    54  H    0.172407
 Sum of Mulliken charges =  -0.00000

 Dipole moment (field-independent basis, Debye):
    X=              2.8964    Y=             -4.6146    Z=             -1.8644  Tot=              5.7584
 Quadrupole moment (field-independent basis, Debye-Ang):
   XX=           -122.6547   YY=           -150.0580   ZZ=           -136.9011
   XY=              4.1598   XZ=             -1.6987   YZ=             -4.3123

 Normal termination of Gaussian 16 at Sat Nov  5 11:55:05 2022.
