 Gaussian 16, Revision B.01,
 Gaussian 16:  ES64L-G16RevB.01 20-Dec-2017

 -----------------------------
 #p b3lyp/6-31g(d) opt SCF=XQC
 -----------------------------

 ------------------------------
 Gaussian input prepared by ASE
 ------------------------------
 Symbolic Z-matrix:
 Charge =  0 Multiplicity = 1

 SCF Done:  E(RB3LYP) =  -854.917855963     A.U. after   14 cycles
 SCF Done:  E(RB3LYP) =  -854.922158084     A.U. after   12 cycles
 SCF Done:  E(RB3LYP) =  -854.922577952     A.U. after   12 cycles
 SCF Done:  E(RB3LYP) =  -854.922887999     A.U. after   12 cycles
 SCF Done:  E(RB3LYP) =  -854.923040253     A.U. after   12 cycles
 SCF Done:  E(RB3LYP) =  -854.923197357     A.U. after   12 cycles
 SCF Done:  E(RB3LYP) =  -854.923316401     A.U. after   12 cycles
 SCF Done:  E(RB3LYP) =  -854.923371942     A.U. after   11 cycles
 SCF Done:  E(RB3LYP) =  -854.923420077     A.U. after   12 cycles
 SCF Done:  E(RB3LYP) =  -854.923472793     A.U. after   12 cycles
 SCF Done:  E(RB3LYP) =  -854.923498549     A.U. after   11 cycles
 SCF Done:  E(RB3LYP) =  -854.923506994     A.U. after   11 cycles
 SCF Done:  E(RB3LYP) =  -854.923500544     A.U. after    9 cycles
 SCF Done:  E(RB3LYP) =  -854.923513545     A.U. after   12 cycles
 SCF Done:  E(RB3LYP) =  -854.923515544     A.U. after   11 cycles
 SCF Done:  E(RB3LYP) =  -854.923519512     A.U. after   10 cycles
 SCF Done:  E(RB3LYP) =  -854.923520656     A.U. after   10 cycles
 SCF Done:  E(RB3LYP) =  -854.923520876     A.U. after    8 cycles
 SCF Done:  E(RB3LYP) =  -854.923520822     A.U. after    7 cycles
 Optimization completed.
    -- Stationary point found.

                         Standard orientation:
 ---------------------------------------------------------------------
 Center     Atomic      Atomic             Coordinates (Angstroms)
 Number     Number       Type             X           Y           Z
 ---------------------------------------------------------------------
      1          8           0       -3.523223    0.324956   -1.974692
      2          6           0       -3.454611   -0.232548   -0.662652
      3          6           0       -2.031968   -0.517764   -0.211281
      4          6           0       -1.472049   -1.762342   -0.519441
      5          6           0       -0.149068   -2.056607   -0.190949
      6          6           0        0.656629   -1.115238    0.458517
      7          6           0        2.090628   -1.442486    0.843626
      8          6           0        3.124627   -0.456845    0.323002
      9          6           0        3.961529    0.239426    1.202109
     10          6           0        4.921746    1.134269    0.722690
     11          6           0        5.057571    1.344764   -0.648881
     12          6           0        4.226649    0.656039   -1.537019
     13          6           0        3.269192   -0.234134   -1.054327
     14          6           0        0.095457    0.131917    0.764680
     15          6           0       -1.224719    0.430333    0.436545
     16          6           0       -4.281189    0.654539    0.267608
     17          9           0       -3.799048    1.947351    0.236826
     18          9           0       -4.216256    0.214189    1.555378
     19          1           0       -3.026581    1.159632   -1.948877
     20          1           0       -3.991414   -1.184492   -0.735469
     21          1           0       -2.076828   -2.510050   -1.027614
     22          1           0        0.259884   -3.033859   -0.437976
     23          1           0        2.169240   -1.490108    1.937871
     24          1           0        2.330070   -2.450331    0.479927
     25          1           0        3.863940    0.077407    2.273527
     26          1           0        5.561562    1.665077    1.422989
     27          1           0        5.803544    2.039679   -1.025188
     28          1           0        4.325056    0.813826   -2.608024
     29          1           0        2.620633   -0.760258   -1.751026
     30          1           0        0.703133    0.882812    1.263624
     31          1           0       -1.630896    1.400050    0.700290
     32          1           0       -5.330368    0.697179   -0.041714
 ---------------------------------------------------------------------

 The electronic state is 1-A.
 Alpha  occ. eigenvalues --  -24.70748 -24.70445 -19.15695 -10.34400 -10.25411
 Alpha  occ. eigenvalues --  -10.20067 -10.19953 -10.19720 -10.19662 -10.19350
 Alpha  occ. eigenvalues --  -10.19125 -10.19123 -10.18921 -10.18898 -10.18891
 Alpha  occ. eigenvalues --  -10.18789 -10.18777 -10.18645  -1.24536  -1.18994
 Alpha  occ. eigenvalues --   -1.03120  -0.86404  -0.85089  -0.79720  -0.76418
 Alpha  occ. eigenvalues --   -0.74660  -0.74191  -0.73160  -0.68434  -0.64045
 Alpha  occ. eigenvalues --   -0.61414  -0.60305  -0.59136  -0.57370  -0.55321
 Alpha  occ. eigenvalues --   -0.54109  -0.53223  -0.51354  -0.50341  -0.47247
 Alpha  occ. eigenvalues --   -0.46707  -0.45855  -0.45053  -0.43814  -0.43188
 Alpha  occ. eigenvalues --   -0.42300  -0.41840  -0.41250  -0.41110  -0.40744
 Alpha  occ. eigenvalues --   -0.39625  -0.39066  -0.37882  -0.36420  -0.35471
 Alpha  occ. eigenvalues --   -0.34886  -0.34137  -0.34041  -0.33555  -0.32850
 Alpha  occ. eigenvalues --   -0.28196  -0.25320  -0.25011  -0.24771  -0.23515
 Alpha virt. eigenvalues --   -0.01353  -0.00684  -0.00233   0.00746   0.08140
 Alpha virt. eigenvalues --    0.09080   0.09639   0.11187   0.11806   0.12633
 Alpha virt. eigenvalues --    0.13184   0.14659   0.14955   0.15524   0.16273

 Mulliken charges:
               1
     1  O   -0.608729
     2  C   -0.036483
     3  C    0.148427
     4  C   -0.174881
     5  C   -0.197819
     6  C    0.190022
     7  C   -0.441437
     8  C    0.183931
     9  C   -0.196955
    10  C   -0.125648
    11  C   -0.131233
    12  C   -0.128563
    13  C   -0.174461
    14  C   -0.178875
    15  C   -0.189042
    16  C    0.449555
    17  F   -0.296499
    18  F   -0.280357
    19  H    0.396332
    20  H    0.155105
    21  H    0.131785
    22  H    0.126149
    23  H    0.159666
    24  H    0.157531
    25  H    0.123410
    26  H    0.129140
    27  H    0.128823
    28  H    0.129901
    29  H    0.130479
    30  H    0.135837
    31  H    0.146038
    32  H    0.138851
 Sum of Mulliken charges =  -0.00000

 Dipole moment (field-independent basis, Debye):
    X=              0.8865    Y=             -0.4048    Z=             -0.0532  Tot=              0.9760
 Quadrupole moment (field-independent basis, Debye-Ang):
   XX=            -99.0013   YY=            -98.1652   ZZ=           -104.0714
   XY=              3.9037   XZ=              1.4811   YZ=             -0.5329

 Normal termination of Gaussian 16 at Fri Nov  4 19:14:11 2022.
