 Gaussian 16, Revision B.01,
 Gaussian 16:  ES64L-G16RevB.01 20-Dec-2017

 -------------------------------------------------------------------
 #p b3lyp/6-31g(d) 6D 10F nosymm GFInput td=(50-50,nstate=2) SCF=XQC
 -------------------------------------------------------------------

 ------------------------------
 Gaussian input prepared by ASE
 ------------------------------
 Symbolic Z-matrix:
 Charge =  0 Multiplicity = 1

                          Input orientation:
 ---------------------------------------------------------------------
 Center     Atomic      Atomic             Coordinates (Angstroms)
 Number     Number       Type             X           Y           Z
 ---------------------------------------------------------------------
      1          8           0        3.917116    1.364259   -1.559440
      2          6           0        3.908902    0.454748   -0.459583
      3          6           0        2.522169    0.238120    0.122692
      4          6           0        2.080774    1.101330    1.131395
      5          6           0        0.793423    0.994255    1.656790
      6          6           0       -0.094057    0.018291    1.190955
      7          6           0       -1.488490   -0.119816    1.781073
      8          6           0       -2.613989   -0.066950    0.760217
      9          6           0       -3.508064   -1.134067    0.619081
     10          6           0       -4.551294   -1.079242   -0.308964
     11          6           0       -4.714105    0.049338   -1.111311
     12          6           0       -3.826749    1.121273   -0.980469
     13          6           0       -2.786689    1.061513   -0.054818
     14          6           0        0.348330   -0.844367    0.178949
     15          6           0        1.632498   -0.739396   -0.349712
     16          6           0        4.653059   -0.808683   -0.890294
     17          9           0        4.050622   -1.352603   -2.006533
     18          9           0        4.637289   -1.750203    0.094473
     19          1           0        3.343897    0.979577   -2.243139
     20          1           0        4.532930    0.933175    0.302883
     21          1           0        2.750714    1.871034    1.507962
     22          1           0        0.477371    1.675374    2.443856
     23          1           0       -1.556112   -1.067919    2.330935
     24          1           0       -1.633556    0.672487    2.527111
     25          1           0       -3.389584   -2.016445    1.244448
     26          1           0       -5.234518   -1.919464   -0.402624
     27          1           0       -5.524564    0.095482   -1.833818
     28          1           0       -3.945639    2.005244   -1.601830
     29          1           0       -2.095184    1.896061    0.035587
     30          1           0       -0.324846   -1.607209   -0.204411
     31          1           0        1.946595   -1.431834   -1.122217
     32          1           0        5.691750   -0.593361   -1.160539
 ---------------------------------------------------------------------

 SCF Done:  E(RB3LYP) =  -854.923523414     A.U. after   14 cycles

 Excitation energies and oscillator strengths:

 Excited state symmetry could not be determined.
 Excited State   1:      Triplet-?Sym    3.6643 eV  338.36 nm  f=0.0000  <S**2>=2.000
      62 -> 66        -0.12193
      62 -> 67         0.36760
      62 -> 69         0.12396
      63 -> 66        -0.27208
      63 -> 67        -0.12098
      63 -> 69        -0.13710
      64 -> 66         0.19022
      65 -> 66         0.40610
      65 -> 67        -0.11671
 This state for optimization and/or second-order correction.
 Total Energy, E(TD-HF/TD-DFT) =  -854.788862346
 Copying the excited state density for this state as the 1-particle RhoCI density.

 Excited state symmetry could not be determined.
 Excited State   2:      Triplet-?Sym    3.7331 eV  332.12 nm  f=0.0000  <S**2>=2.000
      62 -> 68         0.17064
      63 -> 68         0.32941
      64 -> 66         0.15364
      64 -> 67         0.18232
      64 -> 69        -0.32735
      65 -> 67        -0.12095
      65 -> 68         0.37243
      65 -> 69         0.15721

 Excited state symmetry could not be determined.
 Excited State   3:      Singlet-?Sym    5.2487 eV  236.22 nm  f=0.0110  <S**2>=0.000
      62 -> 66        -0.32602
      63 -> 66         0.23282
      63 -> 67        -0.15198
      64 -> 67         0.15022
      64 -> 68        -0.13271
      65 -> 66         0.20766
      65 -> 67         0.45036

 Excited state symmetry could not be determined.
 Excited State   4:      Singlet-?Sym    5.3756 eV  230.64 nm  f=0.0196  <S**2>=0.000
      62 -> 66         0.27793
      63 -> 67         0.19864
      63 -> 69        -0.12628
      64 -> 68        -0.32935
      65 -> 66         0.32504
      65 -> 68         0.21370
      65 -> 69        -0.27654

 Alpha  occ. eigenvalues --  -24.70747 -24.70445 -19.15695 -10.34400 -10.25411
 Alpha  occ. eigenvalues --  -10.20067 -10.19953 -10.19720 -10.19662 -10.19350
 Alpha  occ. eigenvalues --  -10.19125 -10.19123 -10.18921 -10.18898 -10.18891
 Alpha  occ. eigenvalues --  -10.18789 -10.18777 -10.18645  -1.24536  -1.18994
 Alpha  occ. eigenvalues --   -1.03120  -0.86404  -0.85089  -0.79720  -0.76418
 Alpha  occ. eigenvalues --   -0.74660  -0.74191  -0.73160  -0.68434  -0.64045
 Alpha  occ. eigenvalues --   -0.61414  -0.60305  -0.59136  -0.57370  -0.55321
 Alpha  occ. eigenvalues --   -0.54109  -0.53223  -0.51354  -0.50341  -0.47247
 Alpha  occ. eigenvalues --   -0.46707  -0.45855  -0.45053  -0.43814  -0.43188
 Alpha  occ. eigenvalues --   -0.42300  -0.41840  -0.41250  -0.41110  -0.40744
 Alpha  occ. eigenvalues --   -0.39624  -0.39066  -0.37882  -0.36420  -0.35471
 Alpha  occ. eigenvalues --   -0.34886  -0.34137  -0.34041  -0.33555  -0.32850
 Alpha  occ. eigenvalues --   -0.28196  -0.25320  -0.25011  -0.24771  -0.23515
 Alpha virt. eigenvalues --   -0.01353  -0.00684  -0.00233   0.00746   0.08140
 Alpha virt. eigenvalues --    0.09080   0.09639   0.11187   0.11806   0.12633
 Alpha virt. eigenvalues --    0.13184   0.14659   0.14955   0.15524   0.16273

 Mulliken charges:
               1
     1  O   -0.608729
     2  C   -0.036498
     3  C    0.148448
     4  C   -0.174894
     5  C   -0.197825
     6  C    0.190034
     7  C   -0.441435
     8  C    0.183927
     9  C   -0.196949
    10  C   -0.125649
    11  C   -0.131245
    12  C   -0.128548
    13  C   -0.174466
    14  C   -0.178885
    15  C   -0.189050
    16  C    0.449558
    17  F   -0.296498
    18  F   -0.280356
    19  H    0.396334
    20  H    0.155107
    21  H    0.131786
    22  H    0.126150
    23  H    0.159666
    24  H    0.157530
    25  H    0.123410
    26  H    0.129140
    27  H    0.128824
    28  H    0.129900
    29  H    0.130480
    30  H    0.135838
    31  H    0.146043
    32  H    0.138850
 Sum of Mulliken charges =  -0.00000

 Dipole moment (field-independent basis, Debye):
    X=             -0.8445    Y=              0.2660    Z=              0.4107  Tot=              0.9760
 Quadrupole moment (field-independent basis, Debye-Ang):
   XX=            -99.0374   YY=           -103.5620   ZZ=            -99.5101
   XY=              3.2991   XZ=              3.0535   YZ=              1.6571

 Normal termination of Gaussian 16 at Sat Nov  5 12:01:49 2022.
