 Gaussian 16, Revision B.01,
 Gaussian 16:  ES64L-G16RevB.01 20-Dec-2017

 -----------------------------
 #p b3lyp/6-31g(d) opt SCF=XQC
 -----------------------------

 ------------------------------
 Gaussian input prepared by ASE
 ------------------------------
 Symbolic Z-matrix:
 Charge =  0 Multiplicity = 1

 SCF Done:  E(RB3LYP) =  -933.429345257     A.U. after   16 cycles
 SCF Done:  E(RB3LYP) =  -933.432422979     A.U. after   14 cycles
 SCF Done:  E(RB3LYP) =  -933.433667987     A.U. after   15 cycles
 SCF Done:  E(RB3LYP) =  -933.435042955     A.U. after   13 cycles
 SCF Done:  E(RB3LYP) =  -933.435258911     A.U. after   12 cycles
 SCF Done:  E(RB3LYP) =  -933.435331364     A.U. after   12 cycles
 SCF Done:  E(RB3LYP) =  -933.435370733     A.U. after   11 cycles
 SCF Done:  E(RB3LYP) =  -933.435377869     A.U. after   10 cycles
 SCF Done:  E(RB3LYP) =  -933.435379540     A.U. after    8 cycles
 SCF Done:  E(RB3LYP) =  -933.435379929     A.U. after    8 cycles
 SCF Done:  E(RB3LYP) =  -933.435380044     A.U. after    8 cycles
 SCF Done:  E(RB3LYP) =  -933.435380078     A.U. after    7 cycles
 SCF Done:  E(RB3LYP) =  -933.435380081     A.U. after    7 cycles
 Optimization completed.
    -- Stationary point found.

                         Standard orientation:
 ---------------------------------------------------------------------
 Center     Atomic      Atomic             Coordinates (Angstroms)
 Number     Number       Type             X           Y           Z
 ---------------------------------------------------------------------
      1          6           0       -2.532426    3.533056   -0.188326
      2          8           0       -1.881830    2.276264   -0.050715
      3          6           0       -2.644700    1.142057   -0.076024
      4          6           0       -4.028374    1.115100   -0.240973
      5          6           0       -4.705491   -0.109366   -0.247382
      6          6           0       -4.013823   -1.296097   -0.058919
      7          6           0       -2.618530   -1.276300    0.129236
      8          6           0       -1.956989   -2.505506    0.451012
      9          7           0       -1.483963   -3.517979    0.773136
     10          6           0       -1.916854   -0.058071    0.089516
     11          7           0       -0.524411    0.033072    0.255809
     12          6           0        0.394841   -0.677259   -0.514790
     13          8           0        0.048895   -1.514443   -1.332857
     14          6           0        1.838754   -0.317626   -0.312885
     15          6           0        2.660400   -0.487624   -1.438102
     16          6           0        4.006875   -0.176679   -1.367727
     17          6           0        4.523866    0.290937   -0.150448
     18          6           0        5.978987    0.662880   -0.008467
     19          7           0        3.757886    0.411936    0.940820
     20          6           0        2.446157    0.116089    0.884942
     21          6           0        1.728012    0.249597    2.210850
     22          1           0       -3.043899    3.611896   -1.155588
     23          1           0       -1.743043    4.284180   -0.133950
     24          1           0       -3.253489    3.700745    0.621531
     25          1           0       -4.583220    2.036070   -0.376873
     26          1           0       -5.781859   -0.123909   -0.387678
     27          1           0       -4.533024   -2.247739   -0.035393
     28          1           0       -0.209034    0.926466    0.611545
     29          1           0        2.212753   -0.868288   -2.350538
     30          1           0        4.653555   -0.295190   -2.232583
     31          1           0        6.261263    1.442222   -0.726947
     32          1           0        6.170736    1.027121    1.002791
     33          1           0        6.627291   -0.201484   -0.199227
     34          1           0        0.955355   -0.510726    2.347479
     35          1           0        2.468299    0.169281    3.009789
     36          1           0        1.250987    1.234462    2.316778
 ---------------------------------------------------------------------

 The electronic state is 1-A.
 Alpha  occ. eigenvalues --  -19.20631 -19.12395 -14.37854 -14.32672 -14.32296
 Alpha  occ. eigenvalues --  -10.30046 -10.27293 -10.26321 -10.25553 -10.24045
 Alpha  occ. eigenvalues --  -10.23681 -10.23535 -10.21740 -10.21349 -10.21024
 Alpha  occ. eigenvalues --  -10.20958 -10.20800 -10.20718 -10.19641 -10.18525
 Alpha  occ. eigenvalues --  -10.18440  -1.09190  -1.04496  -0.94892  -0.94452
 Alpha  occ. eigenvalues --   -0.89302  -0.86639  -0.81049  -0.80048  -0.78475
 Alpha  occ. eigenvalues --   -0.77279  -0.72553  -0.72038  -0.70426  -0.66539
 Alpha  occ. eigenvalues --   -0.63264  -0.61427  -0.60967  -0.59176  -0.56602
 Alpha  occ. eigenvalues --   -0.55171  -0.52161  -0.50678  -0.49923  -0.49578
 Alpha  occ. eigenvalues --   -0.49153  -0.47332  -0.46160  -0.44960  -0.44247
 Alpha  occ. eigenvalues --   -0.43213  -0.42450  -0.41907  -0.41511  -0.41400
 Alpha  occ. eigenvalues --   -0.40747  -0.40032  -0.39147  -0.38442  -0.37562
 Alpha  occ. eigenvalues --   -0.36570  -0.36348  -0.35968  -0.35687  -0.34621
 Alpha  occ. eigenvalues --   -0.32518  -0.32027  -0.30341  -0.28490  -0.27010
 Alpha  occ. eigenvalues --   -0.25407  -0.25057  -0.24808  -0.23015
 Alpha virt. eigenvalues --   -0.05226  -0.03486  -0.02106  -0.00933   0.04232
 Alpha virt. eigenvalues --    0.04825   0.07251   0.07788   0.08989   0.09644
 Alpha virt. eigenvalues --    0.11015   0.11541   0.12934   0.13118   0.13498

 Mulliken charges:
               1
     1  C   -0.221061
     2  O   -0.531959
     3  C    0.355976
     4  C   -0.191517
     5  C   -0.140293
     6  C   -0.153607
     7  C    0.142738
     8  C    0.255707
     9  N   -0.486194
    10  C    0.284528
    11  N   -0.737296
    12  C    0.540832
    13  O   -0.485301
    14  C    0.013433
    15  C   -0.120131
    16  C   -0.175234
    17  C    0.318442
    18  C   -0.521792
    19  N   -0.518839
    20  C    0.263039
    21  C   -0.529675
    22  H    0.163339
    23  H    0.178575
    24  H    0.161181
    25  H    0.144876
    26  H    0.144478
    27  H    0.158948
    28  H    0.350524
    29  H    0.172635
    30  H    0.136147
    31  H    0.162140
    32  H    0.177949
    33  H    0.167448
    34  H    0.184157
    35  H    0.182662
    36  H    0.153148
 Sum of Mulliken charges =  -0.00000

 Dipole moment (field-independent basis, Debye):
    X=             -1.7575    Y=              7.1935    Z=             -0.7345  Tot=              7.4415
 Quadrupole moment (field-independent basis, Debye-Ang):
   XX=            -94.1259   YY=           -126.7269   ZZ=           -122.0304
   XY=            -10.5550   XZ=             -4.6715   YZ=              0.5245

 Normal termination of Gaussian 16 at Fri Nov  4 19:14:31 2022.
