 Gaussian 16, Revision B.01,
 Gaussian 16:  ES64L-G16RevB.01 20-Dec-2017

 -------------------------------------------------------------------
 #p b3lyp/6-31g(d) 6D 10F nosymm GFInput td=(50-50,nstate=2) SCF=XQC
 -------------------------------------------------------------------

 ------------------------------
 Gaussian input prepared by ASE
 ------------------------------
 Symbolic Z-matrix:
 Charge =  0 Multiplicity = 1

                          Input orientation:
 ---------------------------------------------------------------------
 Center     Atomic      Atomic             Coordinates (Angstroms)
 Number     Number       Type             X           Y           Z
 ---------------------------------------------------------------------
      1          6           0       -3.129294   -0.662445   -2.686175
      2          8           0       -2.298831   -0.280189   -1.597161
      3          6           0       -2.892553    0.197026   -0.461909
      4          6           0       -4.267480    0.329917   -0.276425
      5          6           0       -4.761950    0.835130    0.931095
      6          6           0       -3.892548    1.234986    1.934345
      7          6           0       -2.501445    1.123545    1.747132
      8          6           0       -1.633536    1.666511    2.749153
      9          7           0       -0.979379    2.181301    3.561365
     10          6           0       -1.989786    0.572385    0.558673
     11          7           0       -0.614871    0.419320    0.311613
     12          6           0        0.252439   -0.264873    1.161947
     13          8           0       -0.106301   -0.700078    2.244396
     14          6           0        1.646718   -0.477391    0.646384
     15          6           0        2.285833   -1.637443    1.111066
     16          6           0        3.569820   -1.937845    0.691816
     17          6           0        4.212460   -1.052361   -0.186047
     18          6           0        5.606061   -1.326659   -0.694490
     19          7           0        3.628796    0.079922   -0.597754
     20          6           0        2.379076    0.382206   -0.200128
     21          6           0        1.879322    1.719368   -0.703947
     22          1           0       -3.799995   -1.483796   -2.405182
     23          1           0       -2.452345   -1.000597   -3.472091
     24          1           0       -3.722159    0.184665   -3.053374
     25          1           0       -4.958116    0.032876   -1.057000
     26          1           0       -5.834382    0.925389    1.073244
     27          1           0       -4.265236    1.652740    2.862963
     28          1           0       -0.370356    0.413267   -0.670395
     29          1           0        1.749544   -2.279853    1.802104
     30          1           0        4.074183   -2.836243    1.036366
     31          1           0        5.655748   -2.290645   -1.215574
     32          1           0        5.911084   -0.535832   -1.382702
     33          1           0        6.326038   -1.369690    0.132308
     34          1           0        1.251643    2.234699    0.026951
     35          1           0        2.745768    2.338562   -0.946121
     36          1           0        1.296027    1.612126   -1.629689
 ---------------------------------------------------------------------

 SCF Done:  E(RB3LYP) =  -933.435378723     A.U. after   16 cycles

 Excitation energies and oscillator strengths:

 Excited state symmetry could not be determined.
 Excited State   1:      Triplet-?Sym    3.2621 eV  380.07 nm  f=0.0000  <S**2>=2.000
      71 -> 75         0.28036
      71 -> 76        -0.20257
      72 -> 75         0.20573
      72 -> 76        -0.15944
      74 -> 75         0.44015
      74 -> 78        -0.29264
 This state for optimization and/or second-order correction.
 Total Energy, E(TD-HF/TD-DFT) =  -933.315497937
 Copying the excited state density for this state as the 1-particle RhoCI density.

 Excited state symmetry could not be determined.
 Excited State   2:      Triplet-?Sym    3.5308 eV  351.15 nm  f=0.0000  <S**2>=2.000
      69 -> 77         0.18662
      70 -> 77         0.10738
      71 -> 75        -0.23441
      71 -> 76        -0.17481
      71 -> 77         0.10962
      72 -> 75         0.25738
      72 -> 76         0.19610
      72 -> 77        -0.11798
      72 -> 78         0.10020
      73 -> 75         0.33525
      73 -> 76         0.23884

 Excited state symmetry could not be determined.
 Excited State   3:      Singlet-?Sym    4.2208 eV  293.75 nm  f=0.1531  <S**2>=0.000
      73 -> 75        -0.25706
      73 -> 76        -0.15047
      74 -> 75         0.60300

 Excited state symmetry could not be determined.
 Excited State   4:      Singlet-?Sym    4.3097 eV  287.69 nm  f=0.0711  <S**2>=0.000
      70 -> 75         0.10399
      72 -> 75        -0.17948
      72 -> 76        -0.10213
      73 -> 75         0.51778
      73 -> 76         0.19283
      74 -> 75         0.31741
      74 -> 76        -0.11144

 Alpha  occ. eigenvalues --  -19.20631 -19.12395 -14.37854 -14.32672 -14.32295
 Alpha  occ. eigenvalues --  -10.30046 -10.27293 -10.26321 -10.25553 -10.24045
 Alpha  occ. eigenvalues --  -10.23681 -10.23535 -10.21740 -10.21349 -10.21024
 Alpha  occ. eigenvalues --  -10.20958 -10.20800 -10.20718 -10.19641 -10.18525
 Alpha  occ. eigenvalues --  -10.18440  -1.09190  -1.04496  -0.94892  -0.94452
 Alpha  occ. eigenvalues --   -0.89302  -0.86639  -0.81049  -0.80048  -0.78475
 Alpha  occ. eigenvalues --   -0.77279  -0.72553  -0.72038  -0.70426  -0.66539
 Alpha  occ. eigenvalues --   -0.63264  -0.61427  -0.60967  -0.59176  -0.56602
 Alpha  occ. eigenvalues --   -0.55171  -0.52161  -0.50678  -0.49923  -0.49578
 Alpha  occ. eigenvalues --   -0.49153  -0.47332  -0.46160  -0.44960  -0.44247
 Alpha  occ. eigenvalues --   -0.43214  -0.42450  -0.41907  -0.41511  -0.41400
 Alpha  occ. eigenvalues --   -0.40747  -0.40032  -0.39147  -0.38442  -0.37562
 Alpha  occ. eigenvalues --   -0.36570  -0.36348  -0.35968  -0.35687  -0.34621
 Alpha  occ. eigenvalues --   -0.32518  -0.32026  -0.30341  -0.28490  -0.27010
 Alpha  occ. eigenvalues --   -0.25407  -0.25057  -0.24808  -0.23015
 Alpha virt. eigenvalues --   -0.05226  -0.03486  -0.02106  -0.00933   0.04232
 Alpha virt. eigenvalues --    0.04825   0.07251   0.07788   0.08989   0.09644
 Alpha virt. eigenvalues --    0.11015   0.11541   0.12934   0.13118   0.13498

 Mulliken charges:
               1
     1  C   -0.221062
     2  O   -0.531961
     3  C    0.355988
     4  C   -0.191521
     5  C   -0.140294
     6  C   -0.153605
     7  C    0.142711
     8  C    0.255753
     9  N   -0.486218
    10  C    0.284539
    11  N   -0.737302
    12  C    0.540829
    13  O   -0.485305
    14  C    0.013446
    15  C   -0.120138
    16  C   -0.175230
    17  C    0.318428
    18  C   -0.521789
    19  N   -0.518832
    20  C    0.263033
    21  C   -0.529671
    22  H    0.163340
    23  H    0.178575
    24  H    0.161181
    25  H    0.144876
    26  H    0.144478
    27  H    0.158948
    28  H    0.350524
    29  H    0.172636
    30  H    0.136147
    31  H    0.162139
    32  H    0.177948
    33  H    0.167448
    34  H    0.184151
    35  H    0.182661
    36  H    0.153149
 Sum of Mulliken charges =  -0.00000

 Dipole moment (field-independent basis, Debye):
    X=             -2.8243    Y=             -2.5337    Z=             -6.4016  Tot=              7.4415
 Quadrupole moment (field-independent basis, Debye-Ang):
   XX=            -93.4224   YY=           -121.6311   ZZ=           -132.4147
   XY=             -6.8773   XZ=              8.2022   YZ=             -5.0808

 Normal termination of Gaussian 16 at Sat Nov  5 11:46:13 2022.
