 Gaussian 16, Revision B.01,
 Gaussian 16:  ES64L-G16RevB.01 20-Dec-2017

 -----------------------------
 #p b3lyp/6-31g(d) opt SCF=XQC
 -----------------------------

 ------------------------------
 Gaussian input prepared by ASE
 ------------------------------
 Symbolic Z-matrix:
 Charge =  0 Multiplicity = 1

 SCF Done:  E(RB3LYP) =  -813.474104231     A.U. after   14 cycles
 SCF Done:  E(RB3LYP) =  -813.479194775     A.U. after   12 cycles
 SCF Done:  E(RB3LYP) =  -813.479726924     A.U. after   11 cycles
 SCF Done:  E(RB3LYP) =  -813.479823875     A.U. after   10 cycles
 SCF Done:  E(RB3LYP) =  -813.479906485     A.U. after   10 cycles
 SCF Done:  E(RB3LYP) =  -813.479946046     A.U. after   10 cycles
 SCF Done:  E(RB3LYP) =  -813.479973227     A.U. after   10 cycles
 SCF Done:  E(RB3LYP) =  -813.480003006     A.U. after   10 cycles
 SCF Done:  E(RB3LYP) =  -813.480031507     A.U. after   10 cycles
 SCF Done:  E(RB3LYP) =  -813.480048138     A.U. after   10 cycles
 SCF Done:  E(RB3LYP) =  -813.480728179     A.U. after   11 cycles
 SCF Done:  E(RB3LYP) =  -813.480782843     A.U. after   11 cycles
 SCF Done:  E(RB3LYP) =  -813.480827087     A.U. after   10 cycles
 SCF Done:  E(RB3LYP) =  -813.480838286     A.U. after    9 cycles
 SCF Done:  E(RB3LYP) =  -813.480850403     A.U. after    9 cycles
 SCF Done:  E(RB3LYP) =  -813.480851391     A.U. after    9 cycles
 SCF Done:  E(RB3LYP) =  -813.480851181     A.U. after    9 cycles
 SCF Done:  E(RB3LYP) =  -813.480851856     A.U. after    8 cycles
 SCF Done:  E(RB3LYP) =  -813.480851867     A.U. after    6 cycles
 SCF Done:  E(RB3LYP) =  -813.480851869     A.U. after    6 cycles
 Optimization completed.
    -- Stationary point found.

                         Standard orientation:
 ---------------------------------------------------------------------
 Center     Atomic      Atomic             Coordinates (Angstroms)
 Number     Number       Type             X           Y           Z
 ---------------------------------------------------------------------
      1          6           0       -5.092254    0.017984    1.775512
      2          6           0       -5.102252   -0.962459    0.599949
      3          6           0       -4.327477   -0.497743   -0.658593
      4          7           0       -4.919394    0.756252   -1.152882
      5          6           0       -2.839354   -0.316409   -0.405272
      6          6           0       -2.276345    0.912020   -0.042417
      7          6           0       -0.913899    1.053498    0.206651
      8          6           0       -0.021603   -0.041790    0.123398
      9          7           0        1.344171    0.074476    0.411345
     10          6           0        1.924928    1.332747    0.871102
     11          6           0        2.677713    2.174935   -0.187761
     12          6           0        1.792358    2.597720   -1.366653
     13          6           0        3.317612    3.394515    0.492112
     14          6           0        2.196345   -1.114726    0.321174
     15          6           0        3.520742   -1.098579    1.109858
     16          6           0        4.217521   -2.381863    0.620471
     17          6           0        3.810783   -2.527215   -0.877254
     18          6           0        2.669112   -1.503978   -1.103681
     19          6           0       -0.595577   -1.275150   -0.271365
     20          6           0       -1.959344   -1.395927   -0.522718
     21          1           0       -5.690018   -0.372661    2.607330
     22          1           0       -5.504471    0.987665    1.480820
     23          1           0       -4.074077    0.185032    2.142169
     24          1           0       -6.142239   -1.164346    0.299623
     25          1           0       -4.684039   -1.927512    0.913867
     26          1           0       -4.427050   -1.320418   -1.391755
     27          1           0       -5.901291    0.599944   -1.377857
     28          1           0       -4.461167    1.028754   -2.021431
     29          1           0       -2.920362    1.782850    0.034036
     30          1           0       -0.553369    2.042721    0.457096
     31          1           0        1.138943    1.942066    1.325047
     32          1           0        2.620623    1.113480    1.688003
     33          1           0        3.489540    1.549619   -0.587580
     34          1           0        2.386990    3.113616   -2.130171
     35          1           0        1.310581    1.735312   -1.837502
     36          1           0        1.002313    3.286909   -1.043006
     37          1           0        3.991852    3.098204    1.305262
     38          1           0        3.898283    3.986331   -0.224556
     39          1           0        2.550465    4.053726    0.919504
     40          1           0        1.622711   -1.956919    0.731952
     41          1           0        3.374747   -1.079014    2.195255
     42          1           0        4.126612   -0.226141    0.837532
     43          1           0        5.302242   -2.340162    0.761207
     44          1           0        3.856243   -3.242125    1.196512
     45          1           0        4.655747   -2.325883   -1.543901
     46          1           0        3.482358   -3.549688   -1.092054
     47          1           0        1.858377   -1.895059   -1.725368
     48          1           0        3.045411   -0.603237   -1.602821
     49          1           0        0.019401   -2.155462   -0.404297
     50          1           0       -2.342850   -2.368180   -0.829226
 ---------------------------------------------------------------------

 The electronic state is 1-A.
 Alpha  occ. eigenvalues --  -14.34078 -14.30442 -10.21705 -10.21699 -10.20910
 Alpha  occ. eigenvalues --  -10.20473 -10.18768 -10.18459 -10.18317 -10.18116
 Alpha  occ. eigenvalues --  -10.17614 -10.17501 -10.17175 -10.17071 -10.16792
 Alpha  occ. eigenvalues --  -10.16786 -10.16707 -10.16640 -10.16518 -10.15504
 Alpha  occ. eigenvalues --   -0.93453  -0.87840  -0.83392  -0.82056  -0.79360
 Alpha  occ. eigenvalues --   -0.75391  -0.72911  -0.72679  -0.70961  -0.70303
 Alpha  occ. eigenvalues --   -0.68020  -0.66950  -0.64107  -0.59661  -0.58937
 Alpha  occ. eigenvalues --   -0.56849  -0.56292  -0.55940  -0.54108  -0.51901
 Alpha  occ. eigenvalues --   -0.49003  -0.48193  -0.47585  -0.45726  -0.45303
 Alpha  occ. eigenvalues --   -0.44283  -0.44097  -0.43217  -0.42335  -0.41598
 Alpha  occ. eigenvalues --   -0.41069  -0.40710  -0.40284  -0.39260  -0.38936
 Alpha  occ. eigenvalues --   -0.38110  -0.37299  -0.37014  -0.36499  -0.35123
 Alpha  occ. eigenvalues --   -0.34653  -0.34280  -0.33849  -0.33478  -0.33182
 Alpha  occ. eigenvalues --   -0.32635  -0.32607  -0.32521  -0.32039  -0.31715
 Alpha  occ. eigenvalues --   -0.31102  -0.30895  -0.26363  -0.23127  -0.22661
 Alpha  occ. eigenvalues --   -0.17382
 Alpha virt. eigenvalues --    0.01488   0.02950   0.06792   0.08454   0.08699
 Alpha virt. eigenvalues --    0.09963   0.10812   0.12119   0.12675   0.13421
 Alpha virt. eigenvalues --    0.14011   0.14253   0.14535   0.14768   0.14923

 Mulliken charges:
               1
     1  C   -0.441053
     2  C   -0.246661
     3  C   -0.030843
     4  N   -0.727393
     5  C    0.144910
     6  C   -0.191939
     7  C   -0.194436
     8  C    0.364526
     9  N   -0.528757
    10  C   -0.144477
    11  C   -0.072562
    12  C   -0.449078
    13  C   -0.448364
    14  C    0.049022
    15  C   -0.300597
    16  C   -0.274802
    17  C   -0.276179
    18  C   -0.277861
    19  C   -0.192485
    20  C   -0.204063
    21  H    0.131068
    22  H    0.158252
    23  H    0.153430
    24  H    0.117389
    25  H    0.132834
    26  H    0.102530
    27  H    0.292478
    28  H    0.297242
    29  H    0.144735
    30  H    0.121124
    31  H    0.148408
    32  H    0.145091
    33  H    0.125459
    34  H    0.137205
    35  H    0.163804
    36  H    0.140168
    37  H    0.139515
    38  H    0.145237
    39  H    0.141315
    40  H    0.138923
    41  H    0.144936
    42  H    0.143224
    43  H    0.138552
    44  H    0.140277
    45  H    0.140116
    46  H    0.139513
    47  H    0.145775
    48  H    0.142908
    49  H    0.119740
    50  H    0.111842
 Sum of Mulliken charges =  -0.00000

 Dipole moment (field-independent basis, Debye):
    X=              1.6949    Y=             -0.6487    Z=             -0.7432  Tot=              1.9611
 Quadrupole moment (field-independent basis, Debye-Ang):
   XX=           -115.9656   YY=           -122.0278   ZZ=           -124.3683
   XY=              2.5990   XZ=              7.0126   YZ=              0.3319

 1\1\GINC-NODE88\FOpt\RB3LYP\6-31G(d)\C18H30N2\WYKGROUP\04-Nov-2022\0\\
 #p b3lyp/6-31g(d) opt SCF=XQC\\Gaussian input prepared by ASE\\0,1\C,5
 .0526653277,1.254536017,-1.8004295271\C,5.2303128645,-0.1316284983,-1.
 1756852305\C,4.526190281,-0.3400890689,0.1884695077\N,5.060082525,0.62
 9346237,1.1592150893\C,3.0131605475,-0.2204810984,0.0990282994\C,2.332
 3516635,0.9790111519,0.3343972587\C,0.9475693264,1.0739665966,0.226353
 9402\C,0.1494780172,-0.0343242432,-0.1444846178\N,-1.2398351114,0.0545
 565374,-0.2983635762\C,-1.9482860249,1.3209286607,-0.1361956781\C,-2.6

 Normal termination of Gaussian 16 at Fri Nov  4 19:49:13 2022.
