 Gaussian 16, Revision B.01,
 Gaussian 16:  ES64L-G16RevB.01 20-Dec-2017

 -------------------------------------------------------------------
 #p b3lyp/6-31g(d) 6D 10F nosymm GFInput td=(50-50,nstate=2) SCF=XQC
 -------------------------------------------------------------------

 ------------------------------
 Gaussian input prepared by ASE
 ------------------------------
 Symbolic Z-matrix:
 Charge =  0 Multiplicity = 1

                          Input orientation:
 ---------------------------------------------------------------------
 Center     Atomic      Atomic             Coordinates (Angstroms)
 Number     Number       Type             X           Y           Z
 ---------------------------------------------------------------------
      1          6           0        5.052665    1.254536   -1.800430
      2          6           0        5.230313   -0.131628   -1.175685
      3          6           0        4.526190   -0.340089    0.188470
      4          7           0        5.060083    0.629346    1.159215
      5          6           0        3.013161   -0.220481    0.099028
      6          6           0        2.332352    0.979011    0.334397
      7          6           0        0.947569    1.073967    0.226354
      8          6           0        0.149478   -0.034324   -0.144485
      9          7           0       -1.239835    0.054557   -0.298364
     10          6           0       -1.948286    1.320929   -0.136196
     11          6           0       -2.674859    1.539231    1.213467
     12          6           0       -1.732116    1.497861    2.422562
     13          6           0       -3.456828    2.860250    1.163375
     14          6           0       -1.990449   -1.136715   -0.705774
     15          6           0       -3.371242   -0.916330   -1.354737
     16          6           0       -3.928361   -2.348861   -1.451139
     17          6           0       -3.393190   -3.086139   -0.186324
     18          6           0       -2.317017   -2.150961    0.421122
     19          6           0        0.844113   -1.250930   -0.353804
     20          6           0        2.228837   -1.328203   -0.234677
     21          1           0        5.609477    1.326329   -2.742052
     22          1           0        5.413275    2.037429   -1.126570
     23          1           0        3.998736    1.458609   -2.016330
     24          1           0        6.303220   -0.335929   -1.035477
     25          1           0        4.861855   -0.902663   -1.864539
     26          1           0        4.745597   -1.384155    0.481766
     27          1           0        6.065795    0.492548    1.254058
     28          1           0        4.653767    0.450150    2.076496
     29          1           0        2.901042    1.857919    0.622595
     30          1           0        0.494962    2.031315    0.449729
     31          1           0       -1.249114    2.143742   -0.307205
     32          1           0       -2.688779    1.407165   -0.938462
     33          1           0       -3.402854    0.722892    1.329880
     34          1           0       -2.300680    1.568133    3.357705
     35          1           0       -1.150848    0.571017    2.447936
     36          1           0       -1.024459    2.336166    2.403413
     37          1           0       -4.169916    2.878071    0.329828
     38          1           0       -4.020963    3.020231    2.089223
     39          1           0       -2.777994    3.714306    1.038834
     40          1           0       -1.390024   -1.654128   -1.466602
     41          1           0       -3.314550   -0.413662   -2.326280
     42          1           0       -4.017068   -0.315161   -0.703667
     43          1           0       -5.020933   -2.361717   -1.516611
     44          1           0       -3.550894   -2.832625   -2.359922
     45          1           0       -4.194744   -3.281235    0.533652
     46          1           0       -2.972857   -4.061110   -0.455030
     47          1           0       -1.432043   -2.687382    0.775809
     48          1           0       -2.718611   -1.599176    1.279219
     49          1           0        0.309522   -2.159820   -0.596599
     50          1           0        2.707501   -2.292288   -0.401178
 ---------------------------------------------------------------------

 SCF Done:  E(RB3LYP) =  -813.480859794     A.U. after   14 cycles

 Excitation energies and oscillator strengths:

 Excited state symmetry could not be determined.
 Excited State   1:      Triplet-?Sym    3.5065 eV  353.58 nm  f=0.0000  <S**2>=2.000
      73 -> 78        -0.12299
      74 -> 77        -0.29549
      76 -> 77        -0.25328
      76 -> 78         0.57276
 This state for optimization and/or second-order correction.
 Total Energy, E(TD-HF/TD-DFT) =  -813.351996713
 Copying the excited state density for this state as the 1-particle RhoCI density.

 Excited state symmetry could not be determined.
 Excited State   2:      Triplet-?Sym    3.6614 eV  338.62 nm  f=0.0000  <S**2>=2.000
      76 -> 77         0.65078
      76 -> 78         0.23556

 Excited state symmetry could not be determined.
 Excited State   3:      Singlet-?Sym    4.4657 eV  277.64 nm  f=0.0264  <S**2>=0.000
      74 -> 78         0.18176
      76 -> 77         0.68152

 Excited state symmetry could not be determined.
 Excited State   4:      Singlet-?Sym    5.1573 eV  240.40 nm  f=0.4479  <S**2>=0.000
      74 -> 77        -0.15431
      76 -> 78         0.67895

 Alpha  occ. eigenvalues --  -14.34078 -14.30442 -10.21705 -10.21699 -10.20910
 Alpha  occ. eigenvalues --  -10.20473 -10.18768 -10.18458 -10.18317 -10.18116
 Alpha  occ. eigenvalues --  -10.17614 -10.17501 -10.17175 -10.17071 -10.16792
 Alpha  occ. eigenvalues --  -10.16786 -10.16707 -10.16640 -10.16518 -10.15504
 Alpha  occ. eigenvalues --   -0.93453  -0.87840  -0.83392  -0.82056  -0.79360
 Alpha  occ. eigenvalues --   -0.75391  -0.72911  -0.72679  -0.70961  -0.70303
 Alpha  occ. eigenvalues --   -0.68020  -0.66950  -0.64107  -0.59661  -0.58937
 Alpha  occ. eigenvalues --   -0.56849  -0.56292  -0.55940  -0.54108  -0.51901
 Alpha  occ. eigenvalues --   -0.49003  -0.48193  -0.47585  -0.45726  -0.45303
 Alpha  occ. eigenvalues --   -0.44283  -0.44097  -0.43217  -0.42335  -0.41598
 Alpha  occ. eigenvalues --   -0.41069  -0.40710  -0.40284  -0.39260  -0.38936
 Alpha  occ. eigenvalues --   -0.38110  -0.37299  -0.37014  -0.36499  -0.35123
 Alpha  occ. eigenvalues --   -0.34653  -0.34280  -0.33849  -0.33478  -0.33182
 Alpha  occ. eigenvalues --   -0.32635  -0.32607  -0.32521  -0.32039  -0.31715
 Alpha  occ. eigenvalues --   -0.31102  -0.30895  -0.26363  -0.23127  -0.22662
 Alpha  occ. eigenvalues --   -0.17382
 Alpha virt. eigenvalues --    0.01487   0.02950   0.06792   0.08454   0.08699
 Alpha virt. eigenvalues --    0.09963   0.10812   0.12119   0.12675   0.13421
 Alpha virt. eigenvalues --    0.14011   0.14253   0.14535   0.14768   0.14923

 Mulliken charges:
               1
     1  C   -0.441046
     2  C   -0.246636
     3  C   -0.030877
     4  N   -0.727391
     5  C    0.144907
     6  C   -0.191930
     7  C   -0.194423
     8  C    0.364500
     9  N   -0.528744
    10  C   -0.144477
    11  C   -0.072570
    12  C   -0.449083
    13  C   -0.448361
    14  C    0.048996
    15  C   -0.300577
    16  C   -0.274799
    17  C   -0.276203
    18  C   -0.277835
    19  C   -0.192487
    20  C   -0.204058
    21  H    0.131065
    22  H    0.158250
    23  H    0.153428
    24  H    0.117386
    25  H    0.132831
    26  H    0.102534
    27  H    0.292481
    28  H    0.297245
    29  H    0.144735
    30  H    0.121124
    31  H    0.148410
    32  H    0.145093
    33  H    0.125461
    34  H    0.137207
    35  H    0.163806
    36  H    0.140170
    37  H    0.139514
    38  H    0.145236
    39  H    0.141315
    40  H    0.138923
    41  H    0.144934
    42  H    0.143222
    43  H    0.138552
    44  H    0.140278
    45  H    0.140119
    46  H    0.139517
    47  H    0.145771
    48  H    0.142907
    49  H    0.119742
    50  H    0.111841
 Sum of Mulliken charges =  -0.00000

 Dipole moment (field-independent basis, Debye):
    X=             -1.5764    Y=             -1.0765    Z=              0.4492  Tot=              1.9611
 Quadrupole moment (field-independent basis, Debye-Ang):
   XX=           -114.9702   YY=           -123.1324   ZZ=           -124.5839
   XY=             -4.6531   XZ=              4.7837   YZ=              1.4131

 Normal termination of Gaussian 16 at Sat Nov  5 11:47:11 2022.
