 Gaussian 16, Revision B.01,
 Gaussian 16:  ES64L-G16RevB.01 20-Dec-2017

 -------------------------------------------------------------------
 #p b3lyp/6-31g(d) 6D 10F nosymm GFInput td=(50-50,nstate=2) SCF=XQC
 -------------------------------------------------------------------

 ------------------------------
 Gaussian input prepared by ASE
 ------------------------------
 Symbolic Z-matrix:
 Charge =  0 Multiplicity = 1

                          Input orientation:
 ---------------------------------------------------------------------
 Center     Atomic      Atomic             Coordinates (Angstroms)
 Number     Number       Type             X           Y           Z
 ---------------------------------------------------------------------
      1          8           0       -0.614260    1.639472    2.335567
      2          6           0       -0.906940    0.777522    1.515720
      3          6           0       -2.324279    0.166213    1.519226
      4          6           0       -2.696086   -0.786361    0.406080
      5          6           0       -2.495987   -2.171060    0.534689
      6          6           0       -2.819477   -3.053930   -0.491524
      7          6           0       -3.358858   -2.561788   -1.685143
      8          8           0       -3.662262   -3.469086   -2.660138
      9          6           0       -3.566355   -1.186499   -1.836470
     10          6           0       -3.235918   -0.315710   -0.799073
     11          7           0       -0.052491    0.276848    0.570318
     12          6           0        1.297127    0.614684    0.326000
     13          6           0        1.937088   -0.074810   -0.735855
     14          6           0        3.259578    0.168122   -1.073570
     15          6           0        3.967780    1.124251   -0.334967
     16          7           0        5.282183    1.560084   -0.454360
     17          6           0        5.415369    2.458914    0.485853
     18          7           0        4.271600    2.654517    1.229706
     19          6           0        3.310354    1.799691    0.719916
     20          6           0        1.981439    1.573254    1.079026
     21          1           0       -2.429375   -0.323686    2.495016
     22          1           0       -3.006684    1.023074    1.542509
     23          1           0       -2.084874   -2.566374    1.460994
     24          1           0       -2.668492   -4.123350   -0.384077
     25          1           0       -4.031986   -3.001798   -3.425436
     26          1           0       -3.989471   -0.797406   -2.760945
     27          1           0       -3.406389    0.750503   -0.929513
     28          1           0       -0.442674   -0.427903   -0.042355
     29          1           0        1.369174   -0.814240   -1.296454
     30          1           0        3.739557   -0.365556   -1.887808
     31          1           0        6.320249    3.017160    0.691580
     32          1           0        4.157725    3.297113    1.999529
     33          1           0        1.483632    2.092336    1.885960
 ---------------------------------------------------------------------

 SCF Done:  E(RB3LYP) =  -894.150804470     A.U. after   15 cycles

 Excitation energies and oscillator strengths:

 Excited state symmetry could not be determined.
 Excited State   1:      Triplet-?Sym    3.2726 eV  378.86 nm  f=0.0000  <S**2>=2.000
      68 -> 71         0.10389
      68 -> 72        -0.16345
      68 -> 74        -0.15854
      70 -> 71        -0.43469
      70 -> 72         0.46978
 This state for optimization and/or second-order correction.
 Total Energy, E(TD-HF/TD-DFT) =  -894.030539316
 Copying the excited state density for this state as the 1-particle RhoCI density.

 Excited state symmetry could not be determined.
 Excited State   2:      Triplet-?Sym    3.6775 eV  337.14 nm  f=0.0000  <S**2>=2.000
      66 -> 71        -0.32114
      66 -> 72        -0.23222
      67 -> 73         0.17856
      69 -> 73        -0.53273

 Excited state symmetry could not be determined.
 Excited State   3:      Singlet-?Sym    4.5172 eV  274.47 nm  f=0.1387  <S**2>=0.000
      70 -> 71         0.68305
      70 -> 72         0.16566

 Excited state symmetry could not be determined.
 Excited State   4:      Singlet-?Sym    4.7015 eV  263.71 nm  f=0.1560  <S**2>=0.000
      68 -> 71        -0.22526
      68 -> 72         0.14684
      68 -> 74        -0.15292
      70 -> 71        -0.11374
      70 -> 72         0.58140
      70 -> 74         0.19579

 Alpha  occ. eigenvalues --  -19.19064 -19.11356 -14.38759 -14.37260 -14.31178
 Alpha  occ. eigenvalues --  -10.29112 -10.26255 -10.24852 -10.23261 -10.22080
 Alpha  occ. eigenvalues --  -10.20567 -10.20488 -10.20405 -10.20345 -10.20212
 Alpha  occ. eigenvalues --  -10.20010 -10.19762 -10.18697 -10.18634 -10.18327
 Alpha  occ. eigenvalues --   -1.07114  -1.03332  -1.01052  -0.93770  -0.87382
 Alpha  occ. eigenvalues --   -0.86642  -0.83475  -0.78551  -0.76056  -0.74224
 Alpha  occ. eigenvalues --   -0.73558  -0.70338  -0.64650  -0.63503  -0.62077
 Alpha  occ. eigenvalues --   -0.60767  -0.60148  -0.57405  -0.55626  -0.55255
 Alpha  occ. eigenvalues --   -0.51848  -0.50485  -0.48710  -0.48004  -0.46274
 Alpha  occ. eigenvalues --   -0.45185  -0.44222  -0.43743  -0.43534  -0.43233
 Alpha  occ. eigenvalues --   -0.42981  -0.42167  -0.41615  -0.40224  -0.39952
 Alpha  occ. eigenvalues --   -0.38749  -0.38100  -0.37066  -0.35845  -0.35030
 Alpha  occ. eigenvalues --   -0.34241  -0.33735  -0.30347  -0.28207  -0.26894
 Alpha  occ. eigenvalues --   -0.26559  -0.25487  -0.22589  -0.22529  -0.20225
 Alpha virt. eigenvalues --   -0.01960  -0.01188  -0.00374   0.01381   0.04480
 Alpha virt. eigenvalues --    0.05771   0.07189   0.07928   0.08351   0.09411
 Alpha virt. eigenvalues --    0.11748   0.12793   0.12923   0.13998   0.14920

 Mulliken charges:
               1
     1  O   -0.509903
     2  C    0.611094
     3  C   -0.455053
     4  C    0.115341
     5  C   -0.186946
     6  C   -0.155749
     7  C    0.350650
     8  O   -0.638039
     9  C   -0.192031
    10  C   -0.177184
    11  N   -0.727328
    12  C    0.341992
    13  C   -0.215828
    14  C   -0.177660
    15  C    0.229737
    16  N   -0.495897
    17  C    0.225884
    18  N   -0.680562
    19  C    0.338968
    20  C   -0.218967
    21  H    0.183115
    22  H    0.182551
    23  H    0.138586
    24  H    0.147552
    25  H    0.410114
    26  H    0.126137
    27  H    0.138925
    28  H    0.346660
    29  H    0.123820
    30  H    0.141033
    31  H    0.159142
    32  H    0.335398
    33  H    0.184449
 Sum of Mulliken charges =  -0.00000

 Dipole moment (field-independent basis, Debye):
    X=             -2.4909    Y=              0.2015    Z=             -0.8362  Tot=              2.6353
 Quadrupole moment (field-independent basis, Debye-Ang):
   XX=           -111.9474   YY=           -108.6888   ZZ=           -106.5207
   XY=              9.5873   XZ=             20.6059   YZ=              4.6780

 Normal termination of Gaussian 16 at Sat Nov  5 11:45:24 2022.
