 Gaussian 16, Revision B.01,
 Gaussian 16:  ES64L-G16RevB.01 20-Dec-2017

 -----------------------------
 #p b3lyp/6-31g(d) opt SCF=XQC
 -----------------------------

 ------------------------------
 Gaussian input prepared by ASE
 ------------------------------
 Symbolic Z-matrix:
 Charge =  0 Multiplicity = 1

 SCF Done:  E(RB3LYP) =  -894.145231205     A.U. after   15 cycles
 SCF Done:  E(RB3LYP) =  -894.149685114     A.U. after   12 cycles
 SCF Done:  E(RB3LYP) =  -894.150150469     A.U. after   13 cycles
 SCF Done:  E(RB3LYP) =  -894.150311847     A.U. after   12 cycles
 SCF Done:  E(RB3LYP) =  -894.150548401     A.U. after   11 cycles
 SCF Done:  E(RB3LYP) =  -894.150676830     A.U. after   12 cycles
 SCF Done:  E(RB3LYP) =  -894.150719468     A.U. after   11 cycles
 SCF Done:  E(RB3LYP) =  -894.150758013     A.U. after   11 cycles
 SCF Done:  E(RB3LYP) =  -894.150784147     A.U. after   11 cycles
 SCF Done:  E(RB3LYP) =  -894.150799652     A.U. after   11 cycles
 SCF Done:  E(RB3LYP) =  -894.150803839     A.U. after   10 cycles
 SCF Done:  E(RB3LYP) =  -894.150805714     A.U. after    9 cycles
 SCF Done:  E(RB3LYP) =  -894.150806110     A.U. after    8 cycles
 SCF Done:  E(RB3LYP) =  -894.150806223     A.U. after    8 cycles
 SCF Done:  E(RB3LYP) =  -894.150806266     A.U. after    7 cycles
 Optimization completed.
    -- Stationary point found.

                         Standard orientation:
 ---------------------------------------------------------------------
 Center     Atomic      Atomic             Coordinates (Angstroms)
 Number     Number       Type             X           Y           Z
 ---------------------------------------------------------------------
      1          8           0       -0.405408    2.889887    0.038747
      2          6           0        0.377129    1.950300   -0.035962
      3          6           0        1.895252    2.220863   -0.104229
      4          6           0        2.836422    1.039377   -0.049252
      5          6           0        3.269200    0.397301   -1.221605
      6          6           0        4.122117   -0.701791   -1.179787
      7          6           0        4.566855   -1.187595    0.054743
      8          8           0        5.404871   -2.266217    0.041950
      9          6           0        4.148561   -0.564898    1.235698
     10          6           0        3.293214    0.534416    1.176179
     11          7           0        0.011773    0.631615   -0.082101
     12          6           0       -1.283252    0.068123   -0.056075
     13          6           0       -1.355896   -1.347423   -0.114746
     14          6           0       -2.568709   -2.018835   -0.096484
     15          6           0       -3.744504   -1.262169   -0.017537
     16          7           0       -5.073740   -1.666892    0.016957
     17          6           0       -5.753158   -0.552226    0.091423
     18          7           0       -4.962777    0.576825    0.109486
     19          6           0       -3.649038    0.148088    0.039601
     20          6           0       -2.441608    0.846710    0.022682
     21          1           0        2.049553    2.792095   -1.027862
     22          1           0        2.099621    2.919788    0.714408
     23          1           0        2.936686    0.770848   -2.187641
     24          1           0        4.458134   -1.189906   -2.089092
     25          1           0        5.641999   -2.495510    0.954053
     26          1           0        4.494111   -0.935244    2.199293
     27          1           0        2.979491    1.010691    2.102259
     28          1           0        0.774229   -0.031747   -0.135919
     29          1           0       -0.430624   -1.916287   -0.176553
     30          1           0       -2.612746   -3.102414   -0.142226
     31          1           0       -6.832854   -0.481539    0.136481
     32          1           0       -5.281476    1.532952    0.162157
     33          1           0       -2.374131    1.924626    0.066783
 ---------------------------------------------------------------------

 The electronic state is 1-A.
 Alpha  occ. eigenvalues --  -19.19064 -19.11356 -14.38759 -14.37260 -14.31178
 Alpha  occ. eigenvalues --  -10.29112 -10.26255 -10.24852 -10.23261 -10.22080
 Alpha  occ. eigenvalues --  -10.20567 -10.20488 -10.20405 -10.20345 -10.20212
 Alpha  occ. eigenvalues --  -10.20010 -10.19762 -10.18697 -10.18634 -10.18327
 Alpha  occ. eigenvalues --   -1.07114  -1.03332  -1.01052  -0.93770  -0.87382
 Alpha  occ. eigenvalues --   -0.86642  -0.83475  -0.78551  -0.76056  -0.74224
 Alpha  occ. eigenvalues --   -0.73558  -0.70338  -0.64650  -0.63503  -0.62077
 Alpha  occ. eigenvalues --   -0.60767  -0.60148  -0.57405  -0.55626  -0.55255
 Alpha  occ. eigenvalues --   -0.51848  -0.50485  -0.48710  -0.48004  -0.46274
 Alpha  occ. eigenvalues --   -0.45185  -0.44222  -0.43743  -0.43534  -0.43233
 Alpha  occ. eigenvalues --   -0.42981  -0.42167  -0.41615  -0.40224  -0.39952
 Alpha  occ. eigenvalues --   -0.38749  -0.38100  -0.37066  -0.35845  -0.35030
 Alpha  occ. eigenvalues --   -0.34241  -0.33735  -0.30347  -0.28207  -0.26894
 Alpha  occ. eigenvalues --   -0.26559  -0.25487  -0.22589  -0.22529  -0.20225
 Alpha virt. eigenvalues --   -0.01960  -0.01188  -0.00374   0.01381   0.04480
 Alpha virt. eigenvalues --    0.05771   0.07189   0.07928   0.08351   0.09411
 Alpha virt. eigenvalues --    0.11748   0.12794   0.12923   0.13998   0.14920

 Mulliken charges:
               1
     1  O   -0.509894
     2  C    0.611067
     3  C   -0.455053
     4  C    0.115353
     5  C   -0.186948
     6  C   -0.155750
     7  C    0.350653
     8  O   -0.638040
     9  C   -0.192033
    10  C   -0.177189
    11  N   -0.727312
    12  C    0.341996
    13  C   -0.215816
    14  C   -0.177661
    15  C    0.229745
    16  N   -0.495903
    17  C    0.225886
    18  N   -0.680557
    19  C    0.338965
    20  C   -0.218975
    21  H    0.183114
    22  H    0.182551
    23  H    0.138585
    24  H    0.147552
    25  H    0.410114
    26  H    0.126138
    27  H    0.138924
    28  H    0.346660
    29  H    0.123806
    30  H    0.141033
    31  H    0.159142
    32  H    0.335399
    33  H    0.184450
 Sum of Mulliken charges =  -0.00000

 Dipole moment (field-independent basis, Debye):
    X=              2.2267    Y=              0.4271    Z=              1.3430  Tot=              2.6352
 Quadrupole moment (field-independent basis, Debye-Ang):
   XX=            -96.0502   YY=           -120.7395   ZZ=           -109.4151
   XY=            -18.3868   XZ=              7.1078   YZ=             -3.6193

 Normal termination of Gaussian 16 at Fri Nov  4 19:14:14 2022.
