 Gaussian 16, Revision B.01,
 Gaussian 16:  ES64L-G16RevB.01 20-Dec-2017

 -----------------------------
 #p b3lyp/6-31g(d) opt SCF=XQC
 -----------------------------

 ------------------------------
 Gaussian input prepared by ASE
 ------------------------------
 Symbolic Z-matrix:
 Charge =  0 Multiplicity = 1

 SCF Done:  E(RB3LYP) =  -1433.60983044     A.U. after   14 cycles
 SCF Done:  E(RB3LYP) =  -1433.61833608     A.U. after   13 cycles
 SCF Done:  E(RB3LYP) =  -1433.61950897     A.U. after   12 cycles
 SCF Done:  E(RB3LYP) =  -1433.62014911     A.U. after   13 cycles
 SCF Done:  E(RB3LYP) =  -1433.62054084     A.U. after   12 cycles
 SCF Done:  E(RB3LYP) =  -1433.62069914     A.U. after   11 cycles
 SCF Done:  E(RB3LYP) =  -1433.62080552     A.U. after   11 cycles
 SCF Done:  E(RB3LYP) =  -1433.62083826     A.U. after   10 cycles
 SCF Done:  E(RB3LYP) =  -1433.62086725     A.U. after   11 cycles
 SCF Done:  E(RB3LYP) =  -1433.62089543     A.U. after   11 cycles
 SCF Done:  E(RB3LYP) =  -1433.62095226     A.U. after   10 cycles
 SCF Done:  E(RB3LYP) =  -1433.62095471     A.U. after    9 cycles
 SCF Done:  E(RB3LYP) =  -1433.62095515     A.U. after   10 cycles
 SCF Done:  E(RB3LYP) =  -1433.62095587     A.U. after    9 cycles
 SCF Done:  E(RB3LYP) =  -1433.62095610     A.U. after    8 cycles
 SCF Done:  E(RB3LYP) =  -1433.62095616     A.U. after    7 cycles
 SCF Done:  E(RB3LYP) =  -1433.62095621     A.U. after    7 cycles
 SCF Done:  E(RB3LYP) =  -1433.62095622     A.U. after    7 cycles
 SCF Done:  E(RB3LYP) =  -1433.62095624     A.U. after    6 cycles
 SCF Done:  E(RB3LYP) =  -1433.62095625     A.U. after    6 cycles
 Optimization completed.
    -- Stationary point found.

                         Standard orientation:
 ---------------------------------------------------------------------
 Center     Atomic      Atomic             Coordinates (Angstroms)
 Number     Number       Type             X           Y           Z
 ---------------------------------------------------------------------
      1          6           0        2.467561   -0.576528    3.225723
      2          8           0        1.820957    0.047930    2.103092
      3          6           0        2.670154    0.518890    1.125640
      4          6           0        3.356377    1.722166    1.293129
      5          6           0        4.155000    2.221655    0.264447
      6          6           0        4.283155    1.545830   -0.956206
      7          6           0        5.167301    2.080877   -2.058557
      8          6           0        3.580026    0.346117   -1.120137
      9          6           0        2.792326   -0.168127   -0.090671
     10         16           0        1.948127   -1.746735   -0.331830
     11          8           0        2.389522   -2.647996    0.736287
     12          8           0        2.111514   -2.101381   -1.744174
     13          7           0        0.318618   -1.462850   -0.079358
     14          6           0       -0.402758   -0.603075   -1.050590
     15          6           0       -1.845361   -0.498107   -0.660555
     16          6           0       -2.786335   -1.571828   -0.654867
     17          6           0       -3.998708   -1.080544   -0.237452
     18          6           0       -5.287310   -1.808818   -0.017190
     19          7           0       -3.837928    0.284661   -0.003379
     20          6           0       -4.833031    1.144844    0.574528
     21          6           0       -6.174775    1.309511   -0.099753
     22          6           0       -5.193310    2.448396   -0.098757
     23          6           0       -2.510605    0.637494   -0.232844
     24          6           0       -1.996658    2.024667    0.001165
     25          1           0        3.176676    0.112831    3.699657
     26          1           0        1.671777   -0.821853    3.931719
     27          1           0        2.977864   -1.489888    2.907257
     28          1           0        3.242594    2.268361    2.225089
     29          1           0        4.679003    3.163375    0.410641
     30          1           0        5.257685    3.170919   -2.005800
     31          1           0        6.181209    1.665005   -1.990793
     32          1           0        4.775822    1.820024   -3.047158
     33          1           0        3.637316   -0.209394   -2.051303
     34          1           0        0.178025   -1.176503    0.889163
     35          1           0        0.052664    0.395384   -1.120275
     36          1           0       -0.289565   -1.080503   -2.027656
     37          1           0       -2.581157   -2.600098   -0.922803
     38          1           0       -5.692594   -1.647545    0.989868
     39          1           0       -5.112509   -2.882092   -0.135540
     40          1           0       -6.072706   -1.522981   -0.728504
     41          1           0       -4.841348    1.150214    1.664825
     42          1           0       -6.328981    0.792232   -1.040813
     43          1           0       -7.054018    1.364940    0.535507
     44          1           0       -5.378628    3.309338    0.537045
     45          1           0       -4.703172    2.678124   -1.039034
     46          1           0       -2.292709    2.411519    0.983784
     47          1           0       -0.903845    2.027562   -0.033460
     48          1           0       -2.348503    2.747164   -0.746927
 ---------------------------------------------------------------------

 The electronic state is 1-A.
 Alpha  occ. eigenvalues --  -89.09815 -19.17762 -19.12787 -19.12667 -14.37245
 Alpha  occ. eigenvalues --  -14.34847 -10.26061 -10.23899 -10.23632 -10.21891
 Alpha  occ. eigenvalues --  -10.21766 -10.20977 -10.20514 -10.20493 -10.20378
 Alpha  occ. eigenvalues --  -10.20358 -10.20299 -10.20266 -10.20102 -10.19163
 Alpha  occ. eigenvalues --  -10.18820 -10.18461 -10.16724 -10.15526  -8.12277
 Alpha  occ. eigenvalues --   -6.08742  -6.08702  -6.08626  -1.09562  -1.06062
 Alpha  occ. eigenvalues --   -0.98544  -0.97628  -0.90901  -0.87008  -0.86914
 Alpha  occ. eigenvalues --   -0.78721  -0.77880  -0.77010  -0.76737  -0.72123
 Alpha  occ. eigenvalues --   -0.71734  -0.70223  -0.67353  -0.65030  -0.63350
 Alpha  occ. eigenvalues --   -0.61844  -0.61222  -0.60811  -0.58178  -0.55388
 Alpha  occ. eigenvalues --   -0.54099  -0.53548  -0.51338  -0.50678  -0.49977
 Alpha  occ. eigenvalues --   -0.49000  -0.47390  -0.46874  -0.46212  -0.45776
 Alpha  occ. eigenvalues --   -0.44665  -0.44558  -0.44025  -0.43414  -0.43045
 Alpha  occ. eigenvalues --   -0.42650  -0.41997  -0.41514  -0.41432  -0.39891
 Alpha  occ. eigenvalues --   -0.39658  -0.38834  -0.38335  -0.37943  -0.37772
 Alpha  occ. eigenvalues --   -0.37324  -0.36763  -0.36355  -0.35983  -0.34776
 Alpha  occ. eigenvalues --   -0.34301  -0.32448  -0.31315  -0.30627  -0.30349
 Alpha  occ. eigenvalues --   -0.29499  -0.29019  -0.28653  -0.26773  -0.25719
 Alpha  occ. eigenvalues --   -0.24172  -0.22354  -0.19195
 Alpha virt. eigenvalues --   -0.02813  -0.01226   0.03479   0.06841   0.07253
 Alpha virt. eigenvalues --    0.08406   0.08781   0.09173   0.09632   0.10582
 Alpha virt. eigenvalues --    0.10788   0.11050   0.11418   0.11781   0.11986

 Mulliken charges:
               1
     1  C   -0.220470
     2  O   -0.540144
     3  C    0.339158
     4  C   -0.147337
     5  C   -0.186444
     6  C    0.189211
     7  C   -0.529963
     8  C   -0.226325
     9  C   -0.200797
    10  S    1.256550
    11  O   -0.535823
    12  O   -0.556939
    13  N   -0.666731
    14  C   -0.231012
    15  C    0.021130
    16  C   -0.247670
    17  C    0.321715
    18  C   -0.519635
    19  N   -0.502959
    20  C    0.008377
    21  C   -0.314572
    22  C   -0.314344
    23  C    0.284572
    24  C   -0.524442
    25  H    0.142381
    26  H    0.164300
    27  H    0.193121
    28  H    0.141277
    29  H    0.133910
    30  H    0.157714
    31  H    0.173007
    32  H    0.166598
    33  H    0.178116
    34  H    0.358204
    35  H    0.141317
    36  H    0.190660
    37  H    0.128438
    38  H    0.154547
    39  H    0.166264
    40  H    0.154411
    41  H    0.159242
    42  H    0.171476
    43  H    0.160189
    44  H    0.159484
    45  H    0.170261
    46  H    0.157700
    47  H    0.165857
    48  H    0.156420
 Sum of Mulliken charges =  -0.00000

 Dipole moment (field-independent basis, Debye):
    X=             -2.3045    Y=              6.4276    Z=              2.2504  Tot=              7.1895
 Quadrupole moment (field-independent basis, Debye-Ang):
   XX=           -123.4617   YY=           -155.3053   ZZ=           -142.0989
   XY=             12.2827   XZ=             -0.4569   YZ=             -2.2393

 Normal termination of Gaussian 16 at Fri Nov  4 19:33:00 2022.
