 Gaussian 16, Revision B.01,
 Gaussian 16:  ES64L-G16RevB.01 20-Dec-2017

 -------------------------------------------------------------------
 #p b3lyp/6-31g(d) 6D 10F nosymm GFInput td=(50-50,nstate=2) SCF=XQC
 -------------------------------------------------------------------

 ------------------------------
 Gaussian input prepared by ASE
 ------------------------------
 Symbolic Z-matrix:
 Charge =  0 Multiplicity = 1

                          Input orientation:
 ---------------------------------------------------------------------
 Center     Atomic      Atomic             Coordinates (Angstroms)
 Number     Number       Type             X           Y           Z
 ---------------------------------------------------------------------
      1          6           0        3.328984   -2.159348    1.893519
      2          8           0        2.510270   -1.114379    1.340264
      3          6           0        3.196548   -0.125881    0.669262
      4          6           0        3.864379    0.881192    1.366853
      5          6           0        4.492456    1.915305    0.672874
      6          6           0        4.463964    1.980324   -0.726453
      7          6           0        5.165052    3.091134   -1.473275
      8          6           0        3.779816    0.972772   -1.417361
      9          6           0        3.163086   -0.073225   -0.731609
     10         16           0        2.339343   -1.377824   -1.670917
     11          8           0        2.955297   -2.650954   -1.286582
     12          8           0        2.308886   -0.937127   -3.068073
     13          7           0        0.755274   -1.428157   -1.134426
     14          6           0       -0.122560   -0.268079   -1.428564
     15          6           0       -1.496811   -0.522955   -0.889378
     16          6           0       -2.395606   -1.534128   -1.345491
     17          6           0       -3.549421   -1.451116   -0.605720
     18          6           0       -4.771409   -2.313044   -0.662466
     19          7           0       -3.396555   -0.392692    0.289152
     20          6           0       -4.323171   -0.056388    1.334334
     21          6           0       -5.751916    0.297103    0.994074
     22          6           0       -4.814004    1.364374    1.485591
     23          6           0       -2.126655    0.158043    0.137566
     24          6           0       -1.625067    1.270379    1.006052
     25          1           0        4.078335   -1.745359    2.578910
     26          1           0        2.650074   -2.810706    2.447325
     27          1           0        3.814741   -2.722675    1.091797
     28          1           0        3.869487    0.855693    2.452738
     29          1           0        5.004371    2.694397    1.233006
     30          1           0        5.230301    4.001445   -0.868112
     31          1           0        6.189873    2.803020   -1.742125
     32          1           0        4.643692    3.338498   -2.403667
     33          1           0        3.719208    0.984302   -2.501399
     34          1           0        0.746662   -1.696459   -0.150692
     35          1           0        0.288922    0.663557   -1.013930
     36          1           0       -0.136717   -0.160864   -2.516549
     37          1           0       -2.201108   -2.251706   -2.131926
     38          1           0       -5.032703   -2.734059    0.316769
     39          1           0       -4.584213   -3.148925   -1.342717
     40          1           0       -5.658621   -1.781895   -1.030233
     41          1           0       -4.175300   -0.613483    2.259875
     42          1           0       -6.024278    0.325227   -0.055679
     43          1           0       -6.532278   -0.070011    1.654345
     44          1           0       -4.931266    1.752179    2.493393
     45          1           0       -4.470576    2.092523    0.758277
     46          1           0       -1.788370    1.064950    2.070933
     47          1           0       -0.549049    1.399475    0.861253
     48          1           0       -2.101368    2.235544    0.789188
 ---------------------------------------------------------------------

 SCF Done:  E(RB3LYP) =  -1433.62095680     A.U. after   15 cycles

 Excitation energies and oscillator strengths:

 Excited state symmetry could not be determined.
 Excited State   1:      Triplet-?Sym    3.6175 eV  342.73 nm  f=0.0000  <S**2>=2.000
      86 -> 94        -0.11723
      89 -> 94         0.27191
      90 -> 94        -0.22484
      90 -> 95        -0.22270
      91 -> 94        -0.33874
      91 -> 95         0.42479
 This state for optimization and/or second-order correction.
 Total Energy, E(TD-HF/TD-DFT) =  -1433.48801524
 Copying the excited state density for this state as the 1-particle RhoCI density.

 Excited state symmetry could not be determined.
 Excited State   2:      Triplet-?Sym    3.8503 eV  322.01 nm  f=0.0000  <S**2>=2.000
      93 -> 94         0.22270
      93 -> 96         0.64494

 Excited state symmetry could not be determined.
 Excited State   3:      Singlet-?Sym    4.0023 eV  309.78 nm  f=0.0002  <S**2>=0.000
      93 -> 94         0.70634

 Excited state symmetry could not be determined.
 Excited State   4:      Singlet-?Sym    4.4547 eV  278.33 nm  f=0.0001  <S**2>=0.000
      93 -> 95         0.70655

 Alpha  occ. eigenvalues --  -89.09815 -19.17762 -19.12787 -19.12667 -14.37245
 Alpha  occ. eigenvalues --  -14.34847 -10.26061 -10.23899 -10.23632 -10.21891
 Alpha  occ. eigenvalues --  -10.21766 -10.20977 -10.20514 -10.20493 -10.20378
 Alpha  occ. eigenvalues --  -10.20358 -10.20299 -10.20266 -10.20102 -10.19163
 Alpha  occ. eigenvalues --  -10.18820 -10.18461 -10.16724 -10.15525  -8.12277
 Alpha  occ. eigenvalues --   -6.08742  -6.08702  -6.08626  -1.09562  -1.06062
 Alpha  occ. eigenvalues --   -0.98544  -0.97628  -0.90901  -0.87008  -0.86914
 Alpha  occ. eigenvalues --   -0.78721  -0.77880  -0.77010  -0.76737  -0.72123
 Alpha  occ. eigenvalues --   -0.71734  -0.70223  -0.67353  -0.65030  -0.63350
 Alpha  occ. eigenvalues --   -0.61844  -0.61222  -0.60811  -0.58178  -0.55388
 Alpha  occ. eigenvalues --   -0.54099  -0.53548  -0.51338  -0.50678  -0.49977
 Alpha  occ. eigenvalues --   -0.49000  -0.47390  -0.46874  -0.46211  -0.45776
 Alpha  occ. eigenvalues --   -0.44664  -0.44558  -0.44025  -0.43414  -0.43045
 Alpha  occ. eigenvalues --   -0.42650  -0.41997  -0.41514  -0.41432  -0.39891
 Alpha  occ. eigenvalues --   -0.39658  -0.38834  -0.38335  -0.37943  -0.37772
 Alpha  occ. eigenvalues --   -0.37324  -0.36763  -0.36355  -0.35983  -0.34776
 Alpha  occ. eigenvalues --   -0.34301  -0.32448  -0.31315  -0.30627  -0.30349
 Alpha  occ. eigenvalues --   -0.29499  -0.29019  -0.28653  -0.26773  -0.25719
 Alpha  occ. eigenvalues --   -0.24172  -0.22354  -0.19195
 Alpha virt. eigenvalues --   -0.02813  -0.01226   0.03479   0.06841   0.07253
 Alpha virt. eigenvalues --    0.08406   0.08781   0.09174   0.09632   0.10582
 Alpha virt. eigenvalues --    0.10788   0.11050   0.11418   0.11781   0.11986

 Mulliken charges:
               1
     1  C   -0.220461
     2  O   -0.540146
     3  C    0.339146
     4  C   -0.147345
     5  C   -0.186448
     6  C    0.189226
     7  C   -0.529964
     8  C   -0.226324
     9  C   -0.200785
    10  S    1.256542
    11  O   -0.535836
    12  O   -0.556927
    13  N   -0.666725
    14  C   -0.231017
    15  C    0.021125
    16  C   -0.247670
    17  C    0.321716
    18  C   -0.519619
    19  N   -0.502958
    20  C    0.008350
    21  C   -0.314558
    22  C   -0.314343
    23  C    0.284574
    24  C   -0.524439
    25  H    0.142380
    26  H    0.164297
    27  H    0.193118
    28  H    0.141277
    29  H    0.133909
    30  H    0.157714
    31  H    0.173007
    32  H    0.166597
    33  H    0.178115
    34  H    0.358203
    35  H    0.141318
    36  H    0.190663
    37  H    0.128437
    38  H    0.154545
    39  H    0.166262
    40  H    0.154409
    41  H    0.159240
    42  H    0.171476
    43  H    0.160189
    44  H    0.159484
    45  H    0.170263
    46  H    0.157700
    47  H    0.165859
    48  H    0.156420
 Sum of Mulliken charges =  -0.00000

 Dipole moment (field-independent basis, Debye):
    X=             -2.1443    Y=              4.0877    Z=              5.5120  Tot=              7.1895
 Quadrupole moment (field-independent basis, Debye-Ang):
   XX=           -126.4430   YY=           -149.4849   ZZ=           -151.7277
   XY=             14.6136   XZ=              6.9614   YZ=            -10.1368

 Normal termination of Gaussian 16 at Sat Nov  5 11:49:02 2022.
