 Gaussian 16, Revision B.01,
 Gaussian 16:  ES64L-G16RevB.01 20-Dec-2017

 -------------------------------------------------------------------
 #p b3lyp/6-31g(d) 6D 10F nosymm GFInput td=(50-50,nstate=2) SCF=XQC
 -------------------------------------------------------------------

 ------------------------------
 Gaussian input prepared by ASE
 ------------------------------
 Symbolic Z-matrix:
 Charge =  0 Multiplicity = 1

                          Input orientation:
 ---------------------------------------------------------------------
 Center     Atomic      Atomic             Coordinates (Angstroms)
 Number     Number       Type             X           Y           Z
 ---------------------------------------------------------------------
      1          6           0        3.723778    0.021640    1.735024
      2          6           0        4.045146   -0.109993    0.243242
      3          6           0        3.287215   -1.238381   -0.449125
      4          8           0        1.853943   -1.060898   -0.356338
      5          6           0        1.291283   -0.284316   -1.312291
      6          8           0        1.922813    0.228835   -2.222618
      7          7           0       -0.074518   -0.134083   -1.147381
      8          6           0       -0.723157    0.885612   -1.981455
      9          6           0       -1.190922    2.038387   -1.093865
     10          6           0       -2.237964    1.546033   -0.077510
     11          6           0       -3.650695    1.545929   -0.700282
     12          6           0       -1.883366    0.166915    0.475383
     13          6           0       -2.632089   -0.343230    1.545918
     14          6           0       -2.405124   -1.611065    2.069692
     15          6           0       -1.413244   -2.412165    1.500710
     16          6           0       -0.650790   -1.933097    0.442244
     17          6           0       -0.851627   -0.635551   -0.058956
     18          1           0        2.655673    0.202833    1.892904
     19          1           0        3.990101   -0.892187    2.280765
     20          1           0        4.278704    0.852426    2.184387
     21          1           0        3.828113    0.826525   -0.283249
     22          1           0        5.117829   -0.304386    0.104370
     23          1           0        3.565970   -1.311469   -1.502454
     24          1           0        3.467510   -2.197286    0.046383
     25          1           0        0.003176    1.209743   -2.724264
     26          1           0       -1.569491    0.422900   -2.504335
     27          1           0       -0.315159    2.450406   -0.577311
     28          1           0       -1.611461    2.843467   -1.708733
     29          1           0       -2.257013    2.248854    0.766919
     30          1           0       -3.697409    0.896287   -1.581999
     31          1           0       -3.930868    2.560120   -1.009571
     32          1           0       -4.403533    1.188094    0.009056
     33          1           0       -3.410999    0.281869    1.977484
     34          1           0       -2.999577   -1.973798    2.903567
     35          1           0       -1.234474   -3.416412    1.875431
     36          1           0        0.112225   -2.558559   -0.000924
 ---------------------------------------------------------------------

 SCF Done:  E(RB3LYP) =  -750.167861608     A.U. after   15 cycles

 Excitation energies and oscillator strengths:

 Excited state symmetry could not be determined.
 Excited State   1:      Triplet-?Sym    3.5695 eV  347.34 nm  f=0.0000  <S**2>=2.000
      60 -> 64        -0.11496
      60 -> 65        -0.10474
      62 -> 64        -0.33466
      62 -> 65         0.25444
      63 -> 64         0.33605
      63 -> 65         0.42170
 This state for optimization and/or second-order correction.
 Total Energy, E(TD-HF/TD-DFT) =  -750.036684431
 Copying the excited state density for this state as the 1-particle RhoCI density.

 Excited state symmetry could not be determined.
 Excited State   2:      Triplet-?Sym    4.2653 eV  290.68 nm  f=0.0000  <S**2>=2.000
      62 -> 64        -0.10128
      62 -> 65        -0.15332
      63 -> 64         0.52638
      63 -> 65        -0.41633

 Excited state symmetry could not be determined.
 Excited State   3:      Singlet-?Sym    4.9380 eV  251.08 nm  f=0.0134  <S**2>=0.000
      62 -> 64         0.19978
      62 -> 65         0.26156
      63 -> 64         0.49231
      63 -> 65        -0.38287

 Excited state symmetry could not be determined.
 Excited State   4:      Singlet-?Sym    5.3103 eV  233.48 nm  f=0.2338  <S**2>=0.000
      62 -> 64        -0.14515
      62 -> 65         0.10341
      63 -> 64         0.41487
      63 -> 65         0.53057

 Alpha  occ. eigenvalues --  -19.18307 -19.11621 -14.36958 -10.33037 -10.23701
 Alpha  occ. eigenvalues --  -10.22941 -10.21571 -10.19938 -10.19457 -10.18678
 Alpha  occ. eigenvalues --  -10.18582 -10.18553 -10.18395 -10.18375 -10.18340
 Alpha  occ. eigenvalues --  -10.17978 -10.17305  -1.09916  -1.00537  -0.94867
 Alpha  occ. eigenvalues --   -0.84736  -0.81285  -0.78411  -0.74976  -0.73675
 Alpha  occ. eigenvalues --   -0.72106  -0.69104  -0.64757  -0.62745  -0.61947
 Alpha  occ. eigenvalues --   -0.60229  -0.56719  -0.53582  -0.53205  -0.49838
 Alpha  occ. eigenvalues --   -0.48377  -0.47677  -0.46989  -0.46664  -0.44869
 Alpha  occ. eigenvalues --   -0.44120  -0.43055  -0.41914  -0.41677  -0.40988
 Alpha  occ. eigenvalues --   -0.40055  -0.39430  -0.39034  -0.38355  -0.37601
 Alpha  occ. eigenvalues --   -0.36530  -0.35481  -0.35246  -0.33998  -0.33420
 Alpha  occ. eigenvalues --   -0.33135  -0.32712  -0.32183  -0.28921  -0.28367
 Alpha  occ. eigenvalues --   -0.26917  -0.23969  -0.21297
 Alpha virt. eigenvalues --    0.00006   0.00028   0.05892   0.08734   0.10085
 Alpha virt. eigenvalues --    0.10464   0.11449   0.12468   0.13570   0.13641
 Alpha virt. eigenvalues --    0.14306   0.14601   0.14785   0.16033   0.16761

 Mulliken charges:
               1
     1  C   -0.444377
     2  C   -0.275154
     3  C   -0.039110
     4  O   -0.485346
     5  C    0.793734
     6  O   -0.525891
     7  N   -0.566818
     8  C   -0.174607
     9  C   -0.273775
    10  C   -0.157355
    11  C   -0.444952
    12  C    0.136985
    13  C   -0.202634
    14  C   -0.123876
    15  C   -0.147523
    16  C   -0.138054
    17  C    0.258030
    18  H    0.162061
    19  H    0.139874
    20  H    0.145053
    21  H    0.164029
    22  H    0.137539
    23  H    0.171515
    24  H    0.144437
    25  H    0.197147
    26  H    0.154241
    27  H    0.149213
    28  H    0.139029
    29  H    0.141737
    30  H    0.149364
    31  H    0.142774
    32  H    0.150630
    33  H    0.123520
    34  H    0.125888
    35  H    0.128021
    36  H    0.144653
 Sum of Mulliken charges =  -0.00000

 Dipole moment (field-independent basis, Debye):
    X=             -0.7926    Y=              0.0731    Z=              1.3379  Tot=              1.5567
 Quadrupole moment (field-independent basis, Debye-Ang):
   XX=            -94.9694   YY=            -95.9828   ZZ=           -105.1234
   XY=             -5.8508   XZ=              3.2945   YZ=             -0.8701

 Normal termination of Gaussian 16 at Sat Nov  5 11:41:42 2022.
