 Gaussian 16, Revision B.01,
 Gaussian 16:  ES64L-G16RevB.01 20-Dec-2017

 -----------------------------
 #p b3lyp/6-31g(d) opt SCF=XQC
 -----------------------------

 ------------------------------
 Gaussian input prepared by ASE
 ------------------------------
 Symbolic Z-matrix:
 Charge =  0 Multiplicity = 1

 SCF Done:  E(RB3LYP) =  -750.163812749     A.U. after   15 cycles
 SCF Done:  E(RB3LYP) =  -750.167372534     A.U. after   12 cycles
 SCF Done:  E(RB3LYP) =  -750.167442404     A.U. after   12 cycles
 SCF Done:  E(RB3LYP) =  -750.167805528     A.U. after   11 cycles
 SCF Done:  E(RB3LYP) =  -750.167837805     A.U. after   10 cycles
 SCF Done:  E(RB3LYP) =  -750.167857410     A.U. after   10 cycles
 SCF Done:  E(RB3LYP) =  -750.167859373     A.U. after    8 cycles
 SCF Done:  E(RB3LYP) =  -750.167859909     A.U. after    8 cycles
 SCF Done:  E(RB3LYP) =  -750.167860055     A.U. after    7 cycles
 SCF Done:  E(RB3LYP) =  -750.167860119     A.U. after    7 cycles
 Optimization completed.
    -- Stationary point found.

                         Standard orientation:
 ---------------------------------------------------------------------
 Center     Atomic      Atomic             Coordinates (Angstroms)
 Number     Number       Type             X           Y           Z
 ---------------------------------------------------------------------
      1          6           0       -3.573545    0.999956    1.875144
      2          6           0       -3.977998   -0.042070    0.827950
      3          6           0       -3.429871    0.246208   -0.566161
      4          8           0       -1.983482    0.293227   -0.577242
      5          6           0       -1.354442   -0.896350   -0.728003
      6          8           0       -1.942304   -1.956812   -0.871838
      7          7           0        0.024477   -0.782139   -0.701273
      8          6           0        0.780392   -2.037347   -0.605161
      9          6           0        1.455304   -2.114486    0.763799
     10          6           0        2.461454   -0.961194    0.934880
     11          6           0        3.828639   -1.328788    0.318979
     12          6           0        1.929367    0.344327    0.346754
     13          6           0        2.640655    1.529668    0.583224
     14          6           0        2.250000    2.748009    0.038899
     15          6           0        1.124553    2.792333   -0.786165
     16          6           0        0.395587    1.635737   -1.035336
     17          6           0        0.765911    0.412616   -0.450528
     18          1           0       -2.484323    1.068315    1.961906
     19          1           0       -3.948994    1.996158    1.609703
     20          1           0       -3.976764    0.743053    2.860786
     21          1           0       -3.646960   -1.042401    1.129800
     22          1           0       -5.072864   -0.087825    0.744888
     23          1           0       -3.763675   -0.506265   -1.283731
     24          1           0       -3.729380    1.240906   -0.910259
     25          1           0        0.078110   -2.853836   -0.761789
     26          1           0        1.523303   -2.060651   -1.412210
     27          1           0        0.675440   -2.064091    1.533748
     28          1           0        1.963640   -3.079235    0.881800
     29          1           0        2.623764   -0.800825    2.009737
     30          1           0        3.737572   -1.547858   -0.751235
     31          1           0        4.243487   -2.215274    0.813733
     32          1           0        4.550535   -0.512929    0.424875
     33          1           0        3.523167    1.486195    1.218032
     34          1           0        2.820350    3.648994    0.246807
     35          1           0        0.814300    3.727615   -1.244290
     36          1           0       -0.471804    1.671902   -1.680407
 ---------------------------------------------------------------------

 The electronic state is 1-A.
 Alpha  occ. eigenvalues --  -19.18307 -19.11621 -14.36958 -10.33037 -10.23701
 Alpha  occ. eigenvalues --  -10.22941 -10.21571 -10.19938 -10.19457 -10.18678
 Alpha  occ. eigenvalues --  -10.18582 -10.18553 -10.18395 -10.18375 -10.18340
 Alpha  occ. eigenvalues --  -10.17978 -10.17305  -1.09916  -1.00537  -0.94867
 Alpha  occ. eigenvalues --   -0.84736  -0.81285  -0.78411  -0.74976  -0.73676
 Alpha  occ. eigenvalues --   -0.72106  -0.69104  -0.64757  -0.62745  -0.61947
 Alpha  occ. eigenvalues --   -0.60229  -0.56719  -0.53582  -0.53205  -0.49838
 Alpha  occ. eigenvalues --   -0.48377  -0.47677  -0.46989  -0.46664  -0.44869
 Alpha  occ. eigenvalues --   -0.44120  -0.43055  -0.41914  -0.41677  -0.40988
 Alpha  occ. eigenvalues --   -0.40055  -0.39430  -0.39034  -0.38355  -0.37601
 Alpha  occ. eigenvalues --   -0.36530  -0.35481  -0.35246  -0.33998  -0.33420
 Alpha  occ. eigenvalues --   -0.33135  -0.32712  -0.32183  -0.28921  -0.28367
 Alpha  occ. eigenvalues --   -0.26917  -0.23969  -0.21297
 Alpha virt. eigenvalues --    0.00006   0.00028   0.05891   0.08734   0.10085
 Alpha virt. eigenvalues --    0.10464   0.11449   0.12468   0.13570   0.13641
 Alpha virt. eigenvalues --    0.14306   0.14601   0.14785   0.16033   0.16761

 Mulliken charges:
               1
     1  C   -0.444377
     2  C   -0.275154
     3  C   -0.039098
     4  O   -0.485342
     5  C    0.793719
     6  O   -0.525892
     7  N   -0.566828
     8  C   -0.174577
     9  C   -0.273763
    10  C   -0.157369
    11  C   -0.444961
    12  C    0.137006
    13  C   -0.202635
    14  C   -0.123891
    15  C   -0.147504
    16  C   -0.138063
    17  C    0.258030
    18  H    0.162063
    19  H    0.139873
    20  H    0.145053
    21  H    0.164027
    22  H    0.137538
    23  H    0.171512
    24  H    0.144435
    25  H    0.197142
    26  H    0.154234
    27  H    0.149207
    28  H    0.139025
    29  H    0.141738
    30  H    0.149366
    31  H    0.142776
    32  H    0.150632
    33  H    0.123519
    34  H    0.125889
    35  H    0.128019
    36  H    0.144652
 Sum of Mulliken charges =  -0.00000

 Dipole moment (field-independent basis, Debye):
    X=              0.8542    Y=              0.9984    Z=              0.8349  Tot=              1.5568
 Quadrupole moment (field-independent basis, Debye-Ang):
   XX=            -93.5462   YY=           -101.0618   ZZ=           -101.1871
   XY=             -6.5251   XZ=              1.5798   YZ=             -3.4400

 Normal termination of Gaussian 16 at Fri Nov  4 19:00:35 2022.
