 Gaussian 16, Revision B.01,
 Gaussian 16:  ES64L-G16RevB.01 20-Dec-2017

 -------------------------------------------------------------------
 #p b3lyp/6-31g(d) 6D 10F nosymm GFInput td=(50-50,nstate=2) SCF=XQC
 -------------------------------------------------------------------

 ------------------------------
 Gaussian input prepared by ASE
 ------------------------------
 Symbolic Z-matrix:
 Charge =  0 Multiplicity = 1

                          Input orientation:
 ---------------------------------------------------------------------
 Center     Atomic      Atomic             Coordinates (Angstroms)
 Number     Number       Type             X           Y           Z
 ---------------------------------------------------------------------
      1          6           0       -5.546034    4.590596    0.638411
      2          8           0       -4.704113    3.444622    0.434435
      3          6           0       -4.641827    2.992884   -0.837517
      4          8           0       -5.248515    3.505218   -1.757777
      5          6           0       -3.750270    1.805240   -0.976280
      6          6           0       -3.609721    1.239592   -2.249737
      7          6           0       -2.795103    0.127568   -2.436786
      8          6           0       -2.095682   -0.419681   -1.353699
      9          7           0       -1.264402   -1.577259   -1.533908
     10          6           0       -1.738934   -2.848558   -0.944360
     11          6           0       -0.718109   -3.608086   -0.070328
     12          6           0        0.044642   -2.680852    0.869989
     13          8           0       -0.474994   -2.205352    1.873941
     14          7           0        1.335333   -2.425677    0.463130
     15          6           0        2.304195   -1.600382    1.057587
     16          6           0        2.134105   -0.979794    2.308922
     17          6           0        3.155166   -0.190461    2.821332
     18          6           0        4.358547    0.007927    2.125871
     19          6           0        5.408740    0.871932    2.743797
     20          6           0        6.718742    1.081733    1.998070
     21          8           0        5.224780    1.403751    3.829664
     22          6           0        4.515608   -0.618362    0.879464
     23          6           0        3.505264   -1.411069    0.351560
     24          6           0       -0.123368   -1.575437   -2.302625
     25          6           0        0.346448   -0.252784   -2.885640
     26          8           0        0.519651   -2.612290   -2.482832
     27          6           0       -2.240000    0.137213   -0.075799
     28          6           0       -3.065629    1.243052    0.110080
     29          1           0       -5.193668    5.435915    0.041548
     30          1           0       -5.478024    4.816231    1.702860
     31          1           0       -6.577612    4.362888    0.357367
     32          1           0       -4.156905    1.677342   -3.077962
     33          1           0       -2.706089   -0.328399   -3.418313
     34          1           0       -2.070852   -3.515119   -1.749275
     35          1           0       -2.609675   -2.591119   -0.340119
     36          1           0       -1.278917   -4.309644    0.556172
     37          1           0       -0.040196   -4.176638   -0.706518
     38          1           0        1.565815   -2.773790   -0.462372
     39          1           0        1.210777   -1.122487    2.852148
     40          1           0        3.038546    0.294694    3.785079
     41          1           0        7.232857    0.128560    1.825336
     42          1           0        7.358874    1.733201    2.595318
     43          1           0        6.547254    1.542907    1.017929
     44          1           0        5.431173   -0.491427    0.310074
     45          1           0        3.640618   -1.890737   -0.615321
     46          1           0        0.239603    0.576771   -2.181559
     47          1           0        1.394543   -0.373473   -3.164085
     48          1           0       -0.220817    0.001975   -3.787033
     49          1           0       -1.706525   -0.301462    0.762776
     50          1           0       -3.175298    1.677804    1.096982
 ---------------------------------------------------------------------

 SCF Done:  E(RB3LYP) =  -1299.16596684     A.U. after   15 cycles

 Excitation energies and oscillator strengths:

 Excited state symmetry could not be determined.
 Excited State   1:      Triplet-?Sym    3.0621 eV  404.90 nm  f=0.0000  <S**2>=2.000
      91 ->103        -0.11363
      98 ->105        -0.16438
     101 ->102         0.13037
     101 ->103         0.64972
 This state for optimization and/or second-order correction.
 Total Energy, E(TD-HF/TD-DFT) =  -1299.05343688
 Copying the excited state density for this state as the 1-particle RhoCI density.

 Excited state symmetry could not be determined.
 Excited State   2:      Triplet-?Sym    3.2238 eV  384.59 nm  f=0.0000  <S**2>=2.000
     100 ->102         0.11535
     100 ->103         0.65169
     100 ->107        -0.19746
     100 ->109        -0.11381

 Excited state symmetry could not be determined.
 Excited State   3:      Singlet-?Sym    3.7373 eV  331.74 nm  f=0.0000  <S**2>=0.000
     100 ->102         0.12612
     100 ->103         0.66870
     100 ->107        -0.15533

 Excited state symmetry could not be determined.
 Excited State   4:      Singlet-?Sym    4.1822 eV  296.46 nm  f=0.0115  <S**2>=0.000
     101 ->102         0.70450

 Alpha  occ. eigenvalues --  -19.20012 -19.14107 -19.13039 -19.12988 -19.12775
 Alpha  occ. eigenvalues --  -14.38671 -14.38409 -10.32273 -10.30610 -10.30370
 Alpha  occ. eigenvalues --  -10.27007 -10.25271 -10.24879 -10.24617 -10.24483
 Alpha  occ. eigenvalues --  -10.21805 -10.21375 -10.21298 -10.21253 -10.20848
 Alpha  occ. eigenvalues --  -10.20501 -10.20498 -10.20155 -10.20047 -10.19497
 Alpha  occ. eigenvalues --  -10.19441 -10.19017 -10.18599  -1.10844  -1.05147
 Alpha  occ. eigenvalues --   -1.04610  -1.02711  -1.01896  -0.95805  -0.95085
 Alpha  occ. eigenvalues --   -0.87211  -0.85729  -0.80197  -0.77903  -0.77026
 Alpha  occ. eigenvalues --   -0.76708  -0.75604  -0.74517  -0.73015  -0.72493
 Alpha  occ. eigenvalues --   -0.67869  -0.65334  -0.64074  -0.62971  -0.62375
 Alpha  occ. eigenvalues --   -0.58387  -0.57767  -0.56719  -0.55252  -0.54671
 Alpha  occ. eigenvalues --   -0.53736  -0.51900  -0.50947  -0.49361  -0.48738
 Alpha  occ. eigenvalues --   -0.47754  -0.47658  -0.47256  -0.46494  -0.45753
 Alpha  occ. eigenvalues --   -0.45590  -0.45089  -0.44606  -0.44205  -0.43903
 Alpha  occ. eigenvalues --   -0.43805  -0.43533  -0.42638  -0.42284  -0.41449
 Alpha  occ. eigenvalues --   -0.41327  -0.40875  -0.40728  -0.40542  -0.40036
 Alpha  occ. eigenvalues --   -0.38818  -0.38150  -0.37996  -0.37187  -0.37056
 Alpha  occ. eigenvalues --   -0.36745  -0.36398  -0.35755  -0.34974  -0.34781
 Alpha  occ. eigenvalues --   -0.30895  -0.30881  -0.28857  -0.28148  -0.27297
 Alpha  occ. eigenvalues --   -0.26792  -0.26148  -0.25945  -0.25213  -0.24179
 Alpha  occ. eigenvalues --   -0.22865
 Alpha virt. eigenvalues --   -0.05945  -0.05268  -0.02298  -0.00785   0.00242
 Alpha virt. eigenvalues --    0.00641   0.04486   0.06062   0.07667   0.08581
 Alpha virt. eigenvalues --    0.09703   0.10657   0.11011   0.11336   0.12079

 Mulliken charges:
               1
     1  C   -0.218125
     2  O   -0.465325
     3  C    0.592839
     4  O   -0.488251
     5  C    0.064507
     6  C   -0.170117
     7  C   -0.147991
     8  C    0.236052
     9  N   -0.503654
    10  C   -0.129680
    11  C   -0.372055
    12  C    0.606717
    13  O   -0.511232
    14  N   -0.718089
    15  C    0.362324
    16  C   -0.162590
    17  C   -0.181387
    18  C    0.084825
    19  C    0.404544
    20  C   -0.542909
    21  O   -0.458305
    22  C   -0.190063
    23  C   -0.205032
    24  C    0.574172
    25  C   -0.538394
    26  O   -0.533591
    27  C   -0.161800
    28  C   -0.178374
    29  H    0.173707
    30  H    0.167913
    31  H    0.173531
    32  H    0.170655
    33  H    0.144966
    34  H    0.173280
    35  H    0.176918
    36  H    0.175747
    37  H    0.181385
    38  H    0.364129
    39  H    0.186959
    40  H    0.166698
    41  H    0.168749
    42  H    0.180493
    43  H    0.167478
    44  H    0.135727
    45  H    0.139833
    46  H    0.183493
    47  H    0.182584
    48  H    0.180218
    49  H    0.187298
    50  H    0.169221
 Sum of Mulliken charges =  -0.00000

 Dipole moment (field-independent basis, Debye):
    X=             -1.2778    Y=             -0.7444    Z=             -3.2103  Tot=              3.5346
 Quadrupole moment (field-independent basis, Debye-Ang):
   XX=           -155.8793   YY=           -156.8459   ZZ=           -178.4425
   XY=             -3.9967   XZ=            -20.8333   YZ=              2.6675

 Normal termination of Gaussian 16 at Sat Nov  5 11:42:46 2022.
