 Gaussian 16, Revision B.01,
 Gaussian 16:  ES64L-G16RevB.01 20-Dec-2017

 -----------------------------
 #p b3lyp/6-31g(d) opt SCF=XQC
 -----------------------------

 ------------------------------
 Gaussian input prepared by ASE
 ------------------------------
 Symbolic Z-matrix:
 Charge =  0 Multiplicity = 1

 SCF Done:  E(RB3LYP) =  -1299.14650703     A.U. after   15 cycles
 SCF Done:  E(RB3LYP) =  -1299.15449473     A.U. after   15 cycles
 SCF Done:  E(RB3LYP) =  -1299.14949248     A.U. after   16 cycles
 SCF Done:  E(RB3LYP) =  -1299.15853989     A.U. after   13 cycles
 SCF Done:  E(RB3LYP) =  -1299.15939217     A.U. after   12 cycles
 SCF Done:  E(RB3LYP) =  -1299.16026714     A.U. after   13 cycles
 SCF Done:  E(RB3LYP) =  -1299.16087207     A.U. after   14 cycles
 SCF Done:  E(RB3LYP) =  -1299.16139471     A.U. after   15 cycles
 SCF Done:  E(RB3LYP) =  -1299.16192287     A.U. after   12 cycles
 SCF Done:  E(RB3LYP) =  -1299.16216464     A.U. after   12 cycles
 SCF Done:  E(RB3LYP) =  -1299.16592211     A.U. after   12 cycles
 SCF Done:  E(RB3LYP) =  -1299.16594800     A.U. after   10 cycles
 SCF Done:  E(RB3LYP) =  -1299.16595987     A.U. after   10 cycles
 SCF Done:  E(RB3LYP) =  -1299.16596664     A.U. after    9 cycles
 SCF Done:  E(RB3LYP) =  -1299.16596915     A.U. after    9 cycles
 SCF Done:  E(RB3LYP) =  -1299.16597020     A.U. after    8 cycles
 SCF Done:  E(RB3LYP) =  -1299.16597053     A.U. after    7 cycles
 SCF Done:  E(RB3LYP) =  -1299.16597065     A.U. after    7 cycles
 SCF Done:  E(RB3LYP) =  -1299.16597068     A.U. after    7 cycles
 SCF Done:  E(RB3LYP) =  -1299.16597068     A.U. after    6 cycles
 Optimization completed.
    -- Stationary point found.

                         Standard orientation:
 ---------------------------------------------------------------------
 Center     Atomic      Atomic             Coordinates (Angstroms)
 Number     Number       Type             X           Y           Z
 ---------------------------------------------------------------------
      1          6           0        6.027313    3.845153   -0.637025
      2          8           0        5.018546    2.822483   -0.621929
      3          6           0        5.230907    1.814744    0.252812
      4          8           0        6.201031    1.758602    0.982977
      5          6           0        4.145905    0.791962    0.216516
      6          6           0        4.257241   -0.308737    1.075276
      7          6           0        3.277204   -1.296001    1.080096
      8          6           0        2.163398   -1.182769    0.238454
      9          7           0        1.154096   -2.204835    0.225051
     10          6           0        1.076263   -3.062152   -0.978235
     11          6           0       -0.323722   -3.207733   -1.612069
     12          6           0       -1.066110   -1.877973   -1.691738
     13          8           0       -0.771752   -1.019639   -2.516758
     14          7           0       -2.057305   -1.744059   -0.745096
     15          6           0       -2.909720   -0.653927   -0.503884
     16          6           0       -2.972884    0.481163   -1.333029
     17          6           0       -3.857509    1.504501   -1.019354
     18          6           0       -4.695659    1.440759    0.105186
     19          6           0       -5.619576    2.582950    0.375406
     20          6           0       -6.537060    2.513746    1.587703
     21          8           0       -5.642843    3.558997   -0.361190
     22          6           0       -4.623559    0.302004    0.922789
     23          6           0       -3.744909   -0.730907    0.624573
     24          6           0        0.343921   -2.480418    1.302343
     25          6           0        0.437521   -1.575711    2.520041
     26          8           0       -0.461383   -3.413782    1.265851
     27          6           0        2.051868   -0.087829   -0.629104
     28          6           0        3.040727    0.892547   -0.639889
     29          1           0        6.107761    4.318400    0.345084
     30          1           0        5.699693    4.566423   -1.386040
     31          1           0        6.998049    3.421653   -0.907778
     32          1           0        5.125306   -0.379642    1.722136
     33          1           0        3.375475   -2.163396    1.726002
     34          1           0        1.451069   -4.062424   -0.730571
     35          1           0        1.756892   -2.618427   -1.705850
     36          1           0       -0.184693   -3.559538   -2.639734
     37          1           0       -0.899454   -3.953841   -1.064885
     38          1           0       -2.077432   -2.478284   -0.044121
     39          1           0       -2.330226    0.543037   -2.199720
     40          1           0       -3.917441    2.386203   -1.649272
     41          1           0       -7.204694    1.645649    1.529720
     42          1           0       -7.134781    3.426030    1.624495
     43          1           0       -5.960618    2.421308    2.516108
     44          1           0       -5.255258    0.213008    1.801204
     45          1           0       -3.699741   -1.607762    1.266714
     46          1           0        0.537909   -0.520734    2.251242
     47          1           0       -0.469019   -1.726441    3.108314
     48          1           0        1.298381   -1.842995    3.141878
     49          1           0        1.192961   -0.013854   -1.290198
     50          1           0        2.954181    1.742362   -1.307223
 ---------------------------------------------------------------------

 The electronic state is 1-A.
 Alpha  occ. eigenvalues --  -19.20012 -19.14107 -19.13039 -19.12988 -19.12775
 Alpha  occ. eigenvalues --  -14.38671 -14.38409 -10.32273 -10.30610 -10.30370
 Alpha  occ. eigenvalues --  -10.27007 -10.25271 -10.24879 -10.24617 -10.24483
 Alpha  occ. eigenvalues --  -10.21805 -10.21375 -10.21297 -10.21253 -10.20848
 Alpha  occ. eigenvalues --  -10.20501 -10.20498 -10.20155 -10.20047 -10.19497
 Alpha  occ. eigenvalues --  -10.19441 -10.19017 -10.18599  -1.10844  -1.05147
 Alpha  occ. eigenvalues --   -1.04610  -1.02711  -1.01896  -0.95805  -0.95085
 Alpha  occ. eigenvalues --   -0.87211  -0.85729  -0.80197  -0.77903  -0.77026
 Alpha  occ. eigenvalues --   -0.76708  -0.75604  -0.74517  -0.73015  -0.72493
 Alpha  occ. eigenvalues --   -0.67869  -0.65334  -0.64074  -0.62971  -0.62375
 Alpha  occ. eigenvalues --   -0.58387  -0.57767  -0.56719  -0.55252  -0.54671
 Alpha  occ. eigenvalues --   -0.53736  -0.51900  -0.50947  -0.49361  -0.48738
 Alpha  occ. eigenvalues --   -0.47754  -0.47658  -0.47256  -0.46494  -0.45753
 Alpha  occ. eigenvalues --   -0.45590  -0.45089  -0.44606  -0.44205  -0.43903
 Alpha  occ. eigenvalues --   -0.43805  -0.43533  -0.42638  -0.42284  -0.41449
 Alpha  occ. eigenvalues --   -0.41327  -0.40875  -0.40728  -0.40542  -0.40036
 Alpha  occ. eigenvalues --   -0.38818  -0.38150  -0.37996  -0.37187  -0.37056
 Alpha  occ. eigenvalues --   -0.36745  -0.36398  -0.35755  -0.34974  -0.34781
 Alpha  occ. eigenvalues --   -0.30895  -0.30881  -0.28857  -0.28148  -0.27297
 Alpha  occ. eigenvalues --   -0.26792  -0.26148  -0.25945  -0.25213  -0.24179
 Alpha  occ. eigenvalues --   -0.22865
 Alpha virt. eigenvalues --   -0.05945  -0.05268  -0.02298  -0.00785   0.00242
 Alpha virt. eigenvalues --    0.00641   0.04486   0.06062   0.07667   0.08581
 Alpha virt. eigenvalues --    0.09703   0.10657   0.11011   0.11336   0.12079

 Mulliken charges:
               1
     1  C   -0.218122
     2  O   -0.465328
     3  C    0.592839
     4  O   -0.488249
     5  C    0.064511
     6  C   -0.170118
     7  C   -0.147977
     8  C    0.236028
     9  N   -0.503651
    10  C   -0.129694
    11  C   -0.372031
    12  C    0.606666
    13  O   -0.511219
    14  N   -0.718057
    15  C    0.362327
    16  C   -0.162607
    17  C   -0.181378
    18  C    0.084823
    19  C    0.404550
    20  C   -0.542909
    21  O   -0.458307
    22  C   -0.190069
    23  C   -0.205027
    24  C    0.574187
    25  C   -0.538392
    26  O   -0.533596
    27  C   -0.161801
    28  C   -0.178373
    29  H    0.173706
    30  H    0.167913
    31  H    0.173531
    32  H    0.170656
    33  H    0.144965
    34  H    0.173282
    35  H    0.176921
    36  H    0.175744
    37  H    0.181382
    38  H    0.364120
    39  H    0.186959
    40  H    0.166698
    41  H    0.168748
    42  H    0.180492
    43  H    0.167478
    44  H    0.135728
    45  H    0.139840
    46  H    0.183492
    47  H    0.182583
    48  H    0.180219
    49  H    0.187299
    50  H    0.169220
 Sum of Mulliken charges =  -0.00000

 Dipole moment (field-independent basis, Debye):
    X=              1.9537    Y=             -2.3229    Z=              1.8112  Tot=              3.5346
 Quadrupole moment (field-independent basis, Debye-Ang):
   XX=           -168.4076   YY=           -162.1656   ZZ=           -160.4548
   XY=             15.8941   XZ=            -18.4788   YZ=              3.0094

 Normal termination of Gaussian 16 at Fri Nov  4 19:52:56 2022.
