 Gaussian 16, Revision B.01,
 Gaussian 16:  ES64L-G16RevB.01 20-Dec-2017

 -------------------------------------------------------------------
 #p b3lyp/6-31g(d) 6D 10F nosymm GFInput td=(50-50,nstate=2) SCF=XQC
 -------------------------------------------------------------------

 ------------------------------
 Gaussian input prepared by ASE
 ------------------------------
 Symbolic Z-matrix:
 Charge =  0 Multiplicity = 1

                          Input orientation:
 ---------------------------------------------------------------------
 Center     Atomic      Atomic             Coordinates (Angstroms)
 Number     Number       Type             X           Y           Z
 ---------------------------------------------------------------------
      1          6           0        4.673246   -0.321139   -2.465055
      2          6           0        3.629742   -0.585224   -1.422221
      3          7           0        2.746589    0.286242   -1.029856
      4          6           0        1.903259   -0.229887   -0.063173
      5          6           0        0.867808    0.687392    0.536508
      6          6           0        1.337607    1.394412    1.865086
      7          7           0        0.320211    1.122233    2.879408
      8          6           0       -0.573694    0.391400    2.320128
      9          7           0       -1.746967   -0.009163    2.933872
     10          7           0       -0.350562   -0.012305    0.996437
     11          6           0       -1.411350   -0.316594    0.077990
     12          6           0       -1.454891   -1.601405   -0.475228
     13          6           0       -2.447726   -1.956039   -1.388291
     14          6           0       -3.412453   -1.016876   -1.747907
     15          6           0       -3.372239    0.264621   -1.197184
     16          6           0       -2.380892    0.645815   -0.284664
     17          6           0       -2.378660    2.040166    0.294624
     18          6           0        2.149998   -1.526188    0.290873
     19         16           0        3.491411   -2.148889   -0.616435
     20          1           0        4.567815   -0.996763   -3.321815
     21          1           0        4.561006    0.707861   -2.814437
     22          1           0        5.685591   -0.448279   -2.064388
     23          1           0        0.614065    1.430105   -0.229989
     24          1           0        1.463429    2.474097    1.715595
     25          1           0        2.308765    0.998739    2.187145
     26          1           0       -2.096117   -0.915641    2.646907
     27          1           0       -1.708223    0.106757    3.939095
     28          1           0       -0.692389   -2.315868   -0.182550
     29          1           0       -2.465735   -2.956857   -1.810788
     30          1           0       -4.194568   -1.276698   -2.456349
     31          1           0       -4.126390    0.994258   -1.483073
     32          1           0       -2.626070    2.023095    1.362060
     33          1           0       -1.400371    2.524186    0.199675
     34          1           0       -3.113450    2.669898   -0.216088
     35          1           0        1.632204   -2.127459    1.024087
 ---------------------------------------------------------------------

 SCF Done:  E(RB3LYP) =  -1160.31682724     A.U. after   15 cycles

 Excitation energies and oscillator strengths:

 Excited state symmetry could not be determined.
 Excited State   1:      Triplet-?Sym    3.3249 eV  372.90 nm  f=0.0000  <S**2>=2.000
      68 -> 73        -0.21227
      70 -> 73         0.21836
      71 -> 73         0.60132
 This state for optimization and/or second-order correction.
 Total Energy, E(TD-HF/TD-DFT) =  -1160.19463924
 Copying the excited state density for this state as the 1-particle RhoCI density.

 Excited state symmetry could not be determined.
 Excited State   2:      Triplet-?Sym    3.6847 eV  336.48 nm  f=0.0000  <S**2>=2.000
      67 -> 74        -0.20979
      69 -> 75         0.40130
      70 -> 74        -0.42680
      70 -> 75        -0.16683
      71 -> 74         0.18375
      72 -> 74         0.13700

 Excited state symmetry could not be determined.
 Excited State   3:      Singlet-?Sym    4.1986 eV  295.30 nm  f=0.0010  <S**2>=0.000
      72 -> 73         0.69835

 Excited state symmetry could not be determined.
 Excited State   4:      Singlet-?Sym    4.4394 eV  279.28 nm  f=0.0074  <S**2>=0.000
      72 -> 74         0.69458

 Alpha  occ. eigenvalues --  -88.90939 -14.34986 -14.34560 -14.33018 -14.28110
 Alpha  occ. eigenvalues --  -10.26970 -10.25557 -10.22577 -10.22427 -10.21825
 Alpha  occ. eigenvalues --  -10.21279 -10.20140 -10.20022 -10.19860 -10.19240
 Alpha  occ. eigenvalues --  -10.19128 -10.19072 -10.18949 -10.17943  -7.97123
 Alpha  occ. eigenvalues --   -5.93505  -5.93157  -5.92837  -0.99290  -0.95943
 Alpha  occ. eigenvalues --   -0.90045  -0.87334  -0.83810  -0.79246  -0.78597
 Alpha  occ. eigenvalues --   -0.77063  -0.74344  -0.72721  -0.68471  -0.68032
 Alpha  occ. eigenvalues --   -0.62487  -0.60941  -0.59622  -0.58408  -0.55484
 Alpha  occ. eigenvalues --   -0.53753  -0.53278  -0.50787  -0.48878  -0.48266
 Alpha  occ. eigenvalues --   -0.46718  -0.45300  -0.44622  -0.43913  -0.43057
 Alpha  occ. eigenvalues --   -0.42074  -0.41879  -0.41106  -0.39730  -0.39524
 Alpha  occ. eigenvalues --   -0.39264  -0.38673  -0.37980  -0.37268  -0.36420
 Alpha  occ. eigenvalues --   -0.35422  -0.35307  -0.34629  -0.33943  -0.28020
 Alpha  occ. eigenvalues --   -0.27104  -0.26656  -0.25803  -0.24694  -0.24123
 Alpha  occ. eigenvalues --   -0.22506  -0.20214
 Alpha virt. eigenvalues --   -0.02258  -0.00854  -0.00105   0.02014   0.05078
 Alpha virt. eigenvalues --    0.06130   0.08593   0.08982   0.09823   0.10295
 Alpha virt. eigenvalues --    0.11663   0.12609   0.13732   0.14084   0.14553

 Mulliken charges:
               1
     1  C   -0.509589
     2  C    0.109435
     3  N   -0.441337
     4  C    0.322908
     5  C   -0.047174
     6  C   -0.155195
     7  N   -0.501371
     8  C    0.637790
     9  N   -0.766356
    10  N   -0.560611
    11  C    0.162518
    12  C   -0.139164
    13  C   -0.147099
    14  C   -0.113593
    15  C   -0.207228
    16  C    0.201593
    17  C   -0.546862
    18  C   -0.391284
    19  S    0.218225
    20  H    0.175267
    21  H    0.190480
    22  H    0.175186
    23  H    0.154359
    24  H    0.145515
    25  H    0.150151
    26  H    0.329388
    27  H    0.339449
    28  H    0.133202
    29  H    0.131570
    30  H    0.130651
    31  H    0.126795
    32  H    0.194952
    33  H    0.166758
    34  H    0.152410
    35  H    0.178259
 Sum of Mulliken charges =  -0.00000

 Dipole moment (field-independent basis, Debye):
    X=             -0.9445    Y=             -2.1253    Z=             -1.3359  Tot=              2.6821
 Quadrupole moment (field-independent basis, Debye-Ang):
   XX=           -106.5107   YY=           -114.4428   ZZ=           -117.7077
   XY=             -0.4942   XZ=             -6.1980   YZ=             -5.4000

 Normal termination of Gaussian 16 at Sat Nov  5 11:41:58 2022.
