 Gaussian 16, Revision B.01,
 Gaussian 16:  ES64L-G16RevB.01 20-Dec-2017

 -----------------------------
 #p b3lyp/6-31g(d) opt SCF=XQC
 -----------------------------

 ------------------------------
 Gaussian input prepared by ASE
 ------------------------------
 Symbolic Z-matrix:
 Charge =  0 Multiplicity = 1

 SCF Done:  E(RB3LYP) =  -1160.30822983     A.U. after   15 cycles
 SCF Done:  E(RB3LYP) =  -1160.31345244     A.U. after   13 cycles
 SCF Done:  E(RB3LYP) =  -1160.31466488     A.U. after   12 cycles
 SCF Done:  E(RB3LYP) =  -1160.31533959     A.U. after   12 cycles
 SCF Done:  E(RB3LYP) =  -1160.31559008     A.U. after   12 cycles
 SCF Done:  E(RB3LYP) =  -1160.31568388     A.U. after   11 cycles
 SCF Done:  E(RB3LYP) =  -1160.31582013     A.U. after   12 cycles
 SCF Done:  E(RB3LYP) =  -1160.31590597     A.U. after   12 cycles
 SCF Done:  E(RB3LYP) =  -1160.31603935     A.U. after   12 cycles
 SCF Done:  E(RB3LYP) =  -1160.31616214     A.U. after   12 cycles
 SCF Done:  E(RB3LYP) =  -1160.31671808     A.U. after   12 cycles
 SCF Done:  E(RB3LYP) =  -1160.31683019     A.U. after   12 cycles
 SCF Done:  E(RB3LYP) =  -1160.31683083     A.U. after   10 cycles
 SCF Done:  E(RB3LYP) =  -1160.31683234     A.U. after    9 cycles
 SCF Done:  E(RB3LYP) =  -1160.31683244     A.U. after    7 cycles
 SCF Done:  E(RB3LYP) =  -1160.31683252     A.U. after    7 cycles
 SCF Done:  E(RB3LYP) =  -1160.31683252     A.U. after    7 cycles
 SCF Done:  E(RB3LYP) =  -1160.31683241     A.U. after    8 cycles
 SCF Done:  E(RB3LYP) =  -1160.31683236     A.U. after    7 cycles
 SCF Done:  E(RB3LYP) =  -1160.31683230     A.U. after    7 cycles
 Optimization completed.
    -- Stationary point found.

                         Standard orientation:
 ---------------------------------------------------------------------
 Center     Atomic      Atomic             Coordinates (Angstroms)
 Number     Number       Type             X           Y           Z
 ---------------------------------------------------------------------
      1          6           0       -4.738007    0.990653   -1.409463
      2          6           0       -3.565102    0.514236   -0.607301
      3          7           0       -2.480110    0.011341   -1.120383
      4          6           0       -1.560126   -0.336333   -0.148364
      5          6           0       -0.277654   -0.994682   -0.589973
      6          6           0       -0.330354   -2.570221   -0.565371
      7          7           0        0.810107   -3.025796    0.228245
      8          6           0        1.425624   -1.974001    0.629296
      9          7           0        2.610657   -1.990438    1.342829
     10          7           0        0.866126   -0.729465    0.308340
     11          6           0        1.643462    0.469715    0.170056
     12          6           0        1.343963    1.548880    1.009334
     13          6           0        2.048118    2.748965    0.913769
     14          6           0        3.068260    2.869602   -0.027934
     15          6           0        3.369861    1.794978   -0.865412
     16          6           0        2.671720    0.583312   -0.793033
     17          6           0        3.035722   -0.558076   -1.712016
     18          6           0       -1.953611   -0.093507    1.137260
     19         16           0       -3.541982    0.604435    1.154745
     20          1           0       -4.932948    2.056822   -1.245444
     21          1           0       -4.520246    0.833157   -2.468369
     22          1           0       -5.651941    0.442556   -1.152838
     23          1           0       -0.060484   -0.629015   -1.601235
     24          1           0       -0.291441   -2.983350   -1.581102
     25          1           0       -1.268361   -2.915388   -0.113232
     26          1           0        2.727133   -1.231150    2.003036
     27          1           0        2.801490   -2.901836    1.740760
     28          1           0        0.544326    1.433386    1.733744
     29          1           0        1.801254    3.578240    1.570903
     30          1           0        3.628658    3.796705   -0.114747
     31          1           0        4.165545    1.895421   -1.600015
     32          1           0        3.491270   -1.383270   -1.153038
     33          1           0        2.160238   -0.965717   -2.229409
     34          1           0        3.748677   -0.226638   -2.473033
     35          1           0       -1.410174   -0.291504    2.049791
 ---------------------------------------------------------------------

 The electronic state is 1-A.
 Alpha  occ. eigenvalues --  -88.90939 -14.34986 -14.34560 -14.33019 -14.28110
 Alpha  occ. eigenvalues --  -10.26970 -10.25557 -10.22577 -10.22427 -10.21825
 Alpha  occ. eigenvalues --  -10.21279 -10.20140 -10.20022 -10.19860 -10.19240
 Alpha  occ. eigenvalues --  -10.19128 -10.19072 -10.18949 -10.17943  -7.97123
 Alpha  occ. eigenvalues --   -5.93505  -5.93157  -5.92837  -0.99290  -0.95943
 Alpha  occ. eigenvalues --   -0.90045  -0.87334  -0.83810  -0.79246  -0.78597
 Alpha  occ. eigenvalues --   -0.77063  -0.74344  -0.72721  -0.68471  -0.68032
 Alpha  occ. eigenvalues --   -0.62487  -0.60941  -0.59622  -0.58408  -0.55484
 Alpha  occ. eigenvalues --   -0.53753  -0.53278  -0.50787  -0.48878  -0.48266
 Alpha  occ. eigenvalues --   -0.46718  -0.45300  -0.44622  -0.43913  -0.43057
 Alpha  occ. eigenvalues --   -0.42074  -0.41879  -0.41106  -0.39730  -0.39524
 Alpha  occ. eigenvalues --   -0.39264  -0.38673  -0.37980  -0.37268  -0.36420
 Alpha  occ. eigenvalues --   -0.35422  -0.35307  -0.34629  -0.33943  -0.28020
 Alpha  occ. eigenvalues --   -0.27104  -0.26656  -0.25803  -0.24694  -0.24123
 Alpha  occ. eigenvalues --   -0.22506  -0.20214
 Alpha virt. eigenvalues --   -0.02259  -0.00854  -0.00105   0.02014   0.05078
 Alpha virt. eigenvalues --    0.06130   0.08593   0.08982   0.09824   0.10295
 Alpha virt. eigenvalues --    0.11663   0.12608   0.13732   0.14084   0.14553

 Mulliken charges:
               1
     1  C   -0.509590
     2  C    0.109442
     3  N   -0.441343
     4  C    0.322900
     5  C   -0.047148
     6  C   -0.155203
     7  N   -0.501374
     8  C    0.637763
     9  N   -0.766353
    10  N   -0.560582
    11  C    0.162478
    12  C   -0.139161
    13  C   -0.147093
    14  C   -0.113597
    15  C   -0.207223
    16  C    0.201618
    17  C   -0.546864
    18  C   -0.391292
    19  S    0.218232
    20  H    0.175267
    21  H    0.190480
    22  H    0.175185
    23  H    0.154356
    24  H    0.145517
    25  H    0.150151
    26  H    0.329389
    27  H    0.339450
    28  H    0.133200
    29  H    0.131570
    30  H    0.130651
    31  H    0.126795
    32  H    0.194952
    33  H    0.166758
    34  H    0.152409
    35  H    0.178260
 Sum of Mulliken charges =  -0.00000

 Dipole moment (field-independent basis, Debye):
    X=              0.2572    Y=              2.3724    Z=              1.2245  Tot=              2.6821
 Quadrupole moment (field-independent basis, Debye-Ang):
   XX=           -104.8313   YY=           -123.3135   ZZ=           -110.8290
   XY=             -0.1770   XZ=              3.5243   YZ=             -1.2772

 Normal termination of Gaussian 16 at Fri Nov  4 19:16:04 2022.
