 Gaussian 16, Revision B.01,
 Gaussian 16:  ES64L-G16RevB.01 20-Dec-2017

 -----------------------------
 #p b3lyp/6-31g(d) opt SCF=XQC
 -----------------------------

 ------------------------------
 Gaussian input prepared by ASE
 ------------------------------
 Symbolic Z-matrix:
 Charge =  0 Multiplicity = 1

 SCF Done:  E(RB3LYP) =  -814.172007649     A.U. after   15 cycles
 SCF Done:  E(RB3LYP) =  -814.175772332     A.U. after   12 cycles
 SCF Done:  E(RB3LYP) =  -814.176298474     A.U. after   12 cycles
 SCF Done:  E(RB3LYP) =  -814.176561576     A.U. after   12 cycles
 SCF Done:  E(RB3LYP) =  -814.176596198     A.U. after   11 cycles
 SCF Done:  E(RB3LYP) =  -814.176602286     A.U. after   10 cycles
 SCF Done:  E(RB3LYP) =  -814.176605757     A.U. after    9 cycles
 SCF Done:  E(RB3LYP) =  -814.176607822     A.U. after   10 cycles
 SCF Done:  E(RB3LYP) =  -814.176608660     A.U. after    8 cycles
 SCF Done:  E(RB3LYP) =  -814.176609739     A.U. after    9 cycles
 SCF Done:  E(RB3LYP) =  -814.176610022     A.U. after    8 cycles
 SCF Done:  E(RB3LYP) =  -814.176611015     A.U. after    9 cycles
 SCF Done:  E(RB3LYP) =  -814.176611991     A.U. after   10 cycles
 SCF Done:  E(RB3LYP) =  -814.176613141     A.U. after   10 cycles
 SCF Done:  E(RB3LYP) =  -814.176614086     A.U. after   10 cycles
 SCF Done:  E(RB3LYP) =  -814.176614086     A.U. after    8 cycles
 Optimization completed.
    -- Stationary point found.

                         Standard orientation:
 ---------------------------------------------------------------------
 Center     Atomic      Atomic             Coordinates (Angstroms)
 Number     Number       Type             X           Y           Z
 ---------------------------------------------------------------------
      1          6           0       -1.846625    2.146950   -0.553378
      2          6           0       -1.747110    0.910817    0.360715
      3          6           0       -2.998051    0.829284    1.256786
      4          6           0       -1.543406   -0.380917   -0.470978
      5          6           0       -2.633757   -0.755603   -1.504857
      6          6           0       -3.866719   -1.314269   -0.939122
      7          7           0       -4.838720   -1.774956   -0.501813
      8          6           0       -0.527811    1.076741    1.320861
      9          7           0        0.778965    1.258537    0.704889
     10          6           0        1.699756    0.299094    0.330178
     11          6           0        2.756980    0.677554   -0.524052
     12          9           0        2.742215    1.970232   -0.954213
     13          6           0        3.769759   -0.166076   -0.938308
     14          6           0        3.767078   -1.492165   -0.496796
     15          6           0        2.745503   -1.926520    0.345957
     16          6           0        1.751522   -1.043147    0.745876
     17          9           0        0.773874   -1.518593    1.567301
     18          1           0       -2.747829    2.122582   -1.175899
     19          1           0       -0.982278    2.226784   -1.224019
     20          1           0       -1.898434    3.066360    0.043282
     21          1           0       -3.920299    0.780559    0.670984
     22          1           0       -3.065502    1.713873    1.902357
     23          1           0       -2.971833   -0.056347    1.902468
     24          1           0       -0.612738   -0.275338   -1.040039
     25          1           0       -1.396007   -1.229387    0.206540
     26          1           0       -2.223952   -1.511608   -2.186236
     27          1           0       -2.898539    0.105258   -2.129699
     28          1           0       -0.711478    1.965575    1.938416
     29          1           0       -0.478921    0.225226    1.998752
     30          1           0        0.929049    2.145317    0.246112
     31          1           0        4.538971    0.222438   -1.597176
     32          1           0        4.550029   -2.175597   -0.807080
     33          1           0        2.700529   -2.945968    0.714632
 ---------------------------------------------------------------------

 The electronic state is 1-A.
 Alpha  occ. eigenvalues --  -24.71620 -24.71423 -14.36007 -14.32817 -10.27536
 Alpha  occ. eigenvalues --  -10.27456 -10.24981 -10.23653 -10.22534 -10.22424
 Alpha  occ. eigenvalues --  -10.21149 -10.20374 -10.20022 -10.19948 -10.19781
 Alpha  occ. eigenvalues --  -10.18831 -10.17948  -1.22419  -1.22170  -0.94712
 Alpha  occ. eigenvalues --   -0.89882  -0.86278  -0.83545  -0.78434  -0.75390
 Alpha  occ. eigenvalues --   -0.75276  -0.69946  -0.68628  -0.67281  -0.63264
 Alpha  occ. eigenvalues --   -0.61894  -0.56214  -0.55900  -0.54232  -0.51620
 Alpha  occ. eigenvalues --   -0.51423  -0.49076  -0.48706  -0.48050  -0.47285
 Alpha  occ. eigenvalues --   -0.46305  -0.46135  -0.45804  -0.44174  -0.43722
 Alpha  occ. eigenvalues --   -0.41788  -0.41513  -0.39386  -0.39119  -0.39047
 Alpha  occ. eigenvalues --   -0.37931  -0.37667  -0.37260  -0.36032  -0.35392
 Alpha  occ. eigenvalues --   -0.35255  -0.33676  -0.33350  -0.31845  -0.31660
 Alpha  occ. eigenvalues --   -0.30215  -0.24862  -0.20305
 Alpha virt. eigenvalues --   -0.00035   0.00328   0.03233   0.04123   0.06049
 Alpha virt. eigenvalues --    0.07555   0.09380   0.10411   0.11447   0.12502
 Alpha virt. eigenvalues --    0.13163   0.13995   0.15024   0.15253   0.15904

 Mulliken charges:
               1
     1  C   -0.471519
     2  C    0.097345
     3  C   -0.459987
     4  C   -0.276755
     5  C   -0.359503
     6  C    0.358385
     7  N   -0.477271
     8  C   -0.145542
     9  N   -0.682266
    10  C    0.251800
    11  C    0.309795
    12  F   -0.310407
    13  C   -0.197505
    14  C   -0.146109
    15  C   -0.199569
    16  C    0.324800
    17  F   -0.301901
    18  H    0.150084
    19  H    0.142202
    20  H    0.145216
    21  H    0.165282
    22  H    0.140250
    23  H    0.154647
    24  H    0.154736
    25  H    0.162048
    26  H    0.196538
    27  H    0.192165
    28  H    0.142646
    29  H    0.174569
    30  H    0.332221
    31  H    0.146987
    32  H    0.139243
    33  H    0.147372
 Sum of Mulliken charges =  -0.00000

 Dipole moment (field-independent basis, Debye):
    X=              3.0199    Y=              1.8906    Z=             -1.3246  Tot=              3.8011
 Quadrupole moment (field-independent basis, Debye-Ang):
   XX=           -120.6664   YY=            -99.0462   ZZ=            -97.1580
   XY=            -15.4247   XZ=             -0.7915   YZ=              2.0384

 Normal termination of Gaussian 16 at Fri Nov  4 19:05:29 2022.
