 Gaussian 16, Revision B.01,
 Gaussian 16:  ES64L-G16RevB.01 20-Dec-2017

 -------------------------------------------------------------------
 #p b3lyp/6-31g(d) 6D 10F nosymm GFInput td=(50-50,nstate=2) SCF=XQC
 -------------------------------------------------------------------

 ------------------------------
 Gaussian input prepared by ASE
 ------------------------------
 Symbolic Z-matrix:
 Charge =  0 Multiplicity = 1

                          Input orientation:
 ---------------------------------------------------------------------
 Center     Atomic      Atomic             Coordinates (Angstroms)
 Number     Number       Type             X           Y           Z
 ---------------------------------------------------------------------
      1          6           0        1.712810   -1.889945   -0.282964
      2          6           0        1.497671   -0.557875    0.460541
      3          6           0        2.736689   -0.240288    1.319855
      4          6           0        1.170582    0.586504   -0.532029
      5          6           0        2.218589    0.920909   -1.621989
      6          6           0        3.393753    1.663503   -1.153050
      7          7           0        4.318246    2.267760   -0.794660
      8          6           0        0.301313   -0.708277    1.451604
      9          7           0       -0.983273   -1.092694    0.883981
     10          6           0       -1.991808   -0.282689    0.398650
     11          6           0       -3.009664   -0.869421   -0.382617
     12          9           0       -2.872694   -2.200734   -0.637799
     13          6           0       -4.098816   -0.187604   -0.890468
     14          6           0       -4.221580    1.179827   -0.628716
     15          6           0       -3.244548    1.816821    0.134278
     16          6           0       -2.170351    1.092113    0.633459
     17          9           0       -1.240992    1.762672    1.370500
     18          1           0        2.606555   -1.864115   -0.916088
     19          1           0        0.858851   -2.139432   -0.924632
     20          1           0        1.852872   -2.712613    0.429498
     21          1           0        3.649127   -0.183553    0.719590
     22          1           0        2.889090   -1.020611    2.075950
     23          1           0        2.627412    0.717089    1.842753
     24          1           0        0.253224    0.318920   -1.068660
     25          1           0        0.944263    1.500061    0.029087
     26          1           0        1.737562    1.537389   -2.391616
     27          1           0        2.563026    0.013192   -2.130940
     28          1           0        0.569760   -1.485590    2.178830
     29          1           0        0.172767    0.217601    2.011273
     30          1           0       -1.049074   -2.042872    0.549000
     31          1           0       -4.828681   -0.731115   -1.480917
     32          1           0       -5.066528    1.739076   -1.015588
     33          1           0       -3.296156    2.875989    0.363884
 ---------------------------------------------------------------------

 SCF Done:  E(RB3LYP) =  -814.176609401     A.U. after   15 cycles

 Excitation energies and oscillator strengths:

 Excited state symmetry could not be determined.
 Excited State   1:      Triplet-?Sym    3.4811 eV  356.16 nm  f=0.0000  <S**2>=2.000
      61 -> 65        -0.11239
      62 -> 64         0.28524
      63 -> 64        -0.17670
      63 -> 65         0.60889
 This state for optimization and/or second-order correction.
 Total Energy, E(TD-HF/TD-DFT) =  -814.048681106
 Copying the excited state density for this state as the 1-particle RhoCI density.

 Excited state symmetry could not be determined.
 Excited State   2:      Triplet-?Sym    3.9344 eV  315.13 nm  f=0.0000  <S**2>=2.000
      63 -> 64         0.67099
      63 -> 65         0.19386

 Excited state symmetry could not be determined.
 Excited State   3:      Singlet-?Sym    4.8026 eV  258.16 nm  f=0.0230  <S**2>=0.000
      62 -> 65        -0.25793
      63 -> 64         0.64575
      63 -> 65         0.11156

 Excited state symmetry could not be determined.
 Excited State   4:      Singlet-?Sym    5.3883 eV  230.10 nm  f=0.3058  <S**2>=0.000
      62 -> 64         0.19235
      63 -> 64        -0.12349
      63 -> 65         0.66260

 Alpha  occ. eigenvalues --  -24.71620 -24.71423 -14.36007 -14.32817 -10.27536
 Alpha  occ. eigenvalues --  -10.27456 -10.24981 -10.23653 -10.22534 -10.22424
 Alpha  occ. eigenvalues --  -10.21149 -10.20374 -10.20022 -10.19948 -10.19781
 Alpha  occ. eigenvalues --  -10.18831 -10.17948  -1.22419  -1.22170  -0.94712
 Alpha  occ. eigenvalues --   -0.89882  -0.86277  -0.83545  -0.78434  -0.75390
 Alpha  occ. eigenvalues --   -0.75276  -0.69946  -0.68628  -0.67281  -0.63263
 Alpha  occ. eigenvalues --   -0.61894  -0.56214  -0.55900  -0.54232  -0.51620
 Alpha  occ. eigenvalues --   -0.51423  -0.49076  -0.48706  -0.48050  -0.47285
 Alpha  occ. eigenvalues --   -0.46305  -0.46135  -0.45804  -0.44174  -0.43722
 Alpha  occ. eigenvalues --   -0.41788  -0.41513  -0.39386  -0.39119  -0.39047
 Alpha  occ. eigenvalues --   -0.37931  -0.37667  -0.37260  -0.36032  -0.35392
 Alpha  occ. eigenvalues --   -0.35255  -0.33676  -0.33350  -0.31845  -0.31660
 Alpha  occ. eigenvalues --   -0.30215  -0.24862  -0.20305
 Alpha virt. eigenvalues --   -0.00035   0.00328   0.03233   0.04123   0.06049
 Alpha virt. eigenvalues --    0.07555   0.09380   0.10411   0.11447   0.12502
 Alpha virt. eigenvalues --    0.13163   0.13995   0.15024   0.15253   0.15904

 Mulliken charges:
               1
     1  C   -0.471519
     2  C    0.097362
     3  C   -0.459984
     4  C   -0.276764
     5  C   -0.359503
     6  C    0.358385
     7  N   -0.477271
     8  C   -0.145567
     9  N   -0.682273
    10  C    0.251812
    11  C    0.309802
    12  F   -0.310407
    13  C   -0.197507
    14  C   -0.146109
    15  C   -0.199565
    16  C    0.324803
    17  F   -0.301906
    18  H    0.150084
    19  H    0.142202
    20  H    0.145215
    21  H    0.165281
    22  H    0.140249
    23  H    0.154646
    24  H    0.154735
    25  H    0.162049
    26  H    0.196538
    27  H    0.192165
    28  H    0.142649
    29  H    0.174576
    30  H    0.332222
    31  H    0.146987
    32  H    0.139242
    33  H    0.147372
 Sum of Mulliken charges =  -0.00000

 Dipole moment (field-independent basis, Debye):
    X=             -2.8285    Y=             -2.3259    Z=             -1.0188  Tot=              3.8011
 Quadrupole moment (field-independent basis, Debye-Ang):
   XX=           -115.6856   YY=           -103.1805   ZZ=            -96.7567
   XY=            -16.5057   XZ=              3.6138   YZ=             -1.3433

 Normal termination of Gaussian 16 at Sat Nov  5 11:44:55 2022.
