 Gaussian 16, Revision B.01,
 Gaussian 16:  ES64L-G16RevB.01 20-Dec-2017

 -------------------------------------------------------------------
 #p b3lyp/6-31g(d) 6D 10F nosymm GFInput td=(50-50,nstate=2) SCF=XQC
 -------------------------------------------------------------------

 ------------------------------
 Gaussian input prepared by ASE
 ------------------------------
 Symbolic Z-matrix:
 Charge =  0 Multiplicity = 1

                          Input orientation:
 ---------------------------------------------------------------------
 Center     Atomic      Atomic             Coordinates (Angstroms)
 Number     Number       Type             X           Y           Z
 ---------------------------------------------------------------------
      1          6           0       -3.354358   -1.685335   -0.909616
      2          7           0       -2.194269   -0.869168   -0.594493
      3          6           0       -2.113893    0.166537    0.345546
      4          6           0       -3.264131    0.705817    1.071852
      5          6           0       -3.163607    1.165547    2.432706
      6          6           0       -4.329167    1.681419    2.916511
      7         16           0       -5.594834    1.623276    1.730631
      8          6           0       -4.534094    0.896571    0.571122
      9          6           0       -0.799770    0.575084    0.445497
     10          6           0       -0.033192   -0.214783   -0.464038
     11          6           0        1.327728   -0.289553   -0.845443
     12          7           0        2.219108    0.643069   -0.288795
     13          6           0        3.584235    0.551419   -0.099806
     14          6           0        4.320943    1.723068    0.176543
     15          6           0        5.677366    1.566833    0.399829
     16          7           0        6.297994    0.374861    0.355321
     17          6           0        5.495278   -0.658866    0.086648
     18          7           0        4.179779   -0.647945   -0.134713
     19          7           0        1.769657   -1.165482   -1.735403
     20          6           0        0.887944   -2.026916   -2.284260
     21          6           0       -0.475201   -2.051956   -2.023423
     22          6           0       -0.932886   -1.109042   -1.092824
     23          1           0       -4.070612   -1.635119   -0.088775
     24          1           0       -3.846776   -1.355134   -1.832835
     25          1           0       -3.040246   -2.725366   -1.034590
     26          1           0       -2.254751    1.081556    3.017763
     27          1           0       -4.528013    2.072611    3.905069
     28          1           0       -4.892328    0.699432   -0.429516
     29          1           0       -0.451218    1.370376    1.090053
     30          1           0        1.805975    1.529453   -0.034867
     31          1           0        3.850829    2.702321    0.202731
     32          1           0        6.303745    2.430779    0.617694
     33          1           0        5.969474   -1.638607    0.050574
     34          1           0        1.312817   -2.729496   -2.998231
     35          1           0       -1.129531   -2.757263   -2.524464
 ---------------------------------------------------------------------

 SCF Done:  E(RB3LYP) =  -1289.47213325     A.U. after   15 cycles

 Excitation energies and oscillator strengths:

 Excited state symmetry could not be determined.
 Excited State   1:      Triplet-?Sym    2.6945 eV  460.14 nm  f=0.0000  <S**2>=2.000
      79 -> 81         0.10466
      80 -> 81         0.63887
      80 -> 84        -0.12622
 This state for optimization and/or second-order correction.
 Total Energy, E(TD-HF/TD-DFT) =  -1289.37311362
 Copying the excited state density for this state as the 1-particle RhoCI density.

 Excited state symmetry could not be determined.
 Excited State   2:      Triplet-?Sym    3.3377 eV  371.47 nm  f=0.0000  <S**2>=2.000
      74 -> 81        -0.10998
      75 -> 81        -0.22471
      75 -> 82        -0.17787
      76 -> 81        -0.12675
      78 -> 81        -0.26827
      79 -> 81         0.25520
      80 -> 82         0.40008
      80 -> 83        -0.12690
      80 -> 87         0.11002

 Excited state symmetry could not be determined.
 Excited State   3:      Singlet-?Sym    3.7632 eV  329.47 nm  f=0.5201  <S**2>=0.000
      80 -> 81         0.69757

 Excited state symmetry could not be determined.
 Excited State   4:      Singlet-?Sym    4.2206 eV  293.76 nm  f=0.0851  <S**2>=0.000
      78 -> 81         0.13302
      80 -> 82         0.66941

 Alpha  occ. eigenvalues --  -88.92237 -14.39529 -14.37096 -14.31855 -14.31663
 Alpha  occ. eigenvalues --  -14.31161 -10.27168 -10.26015 -10.24023 -10.23997
 Alpha  occ. eigenvalues --  -10.23868 -10.22975 -10.22865 -10.22800 -10.22666
 Alpha  occ. eigenvalues --  -10.21997 -10.21184 -10.20668 -10.19546 -10.19256
 Alpha  occ. eigenvalues --  -10.18992 -10.18958  -7.98356  -5.94758  -5.94382
 Alpha  occ. eigenvalues --   -5.94072  -0.99989  -0.98877  -0.95455  -0.91070
 Alpha  occ. eigenvalues --   -0.89333  -0.86385  -0.82112  -0.79401  -0.78188
 Alpha  occ. eigenvalues --   -0.75459  -0.74070  -0.72610  -0.70298  -0.65907
 Alpha  occ. eigenvalues --   -0.65158  -0.62709  -0.61388  -0.58556  -0.58116
 Alpha  occ. eigenvalues --   -0.56033  -0.55032  -0.53844  -0.53000  -0.49889
 Alpha  occ. eigenvalues --   -0.47952  -0.47792  -0.46922  -0.46382  -0.46295
 Alpha  occ. eigenvalues --   -0.44568  -0.43890  -0.43280  -0.42633  -0.41605
 Alpha  occ. eigenvalues --   -0.41562  -0.40802  -0.39940  -0.39588  -0.39185
 Alpha  occ. eigenvalues --   -0.39047  -0.36854  -0.36510  -0.35655  -0.33773
 Alpha  occ. eigenvalues --   -0.29404  -0.28477  -0.28234  -0.27299  -0.25504
 Alpha  occ. eigenvalues --   -0.25450  -0.24377  -0.23442  -0.22792  -0.19442
 Alpha virt. eigenvalues --   -0.04152  -0.01997  -0.01194   0.00046   0.01657
 Alpha virt. eigenvalues --    0.02156   0.04066   0.07194   0.07587   0.08744
 Alpha virt. eigenvalues --    0.09779   0.10633   0.11735   0.12484   0.12788

 Mulliken charges:
               1
     1  C   -0.337867
     2  N   -0.582280
     3  C    0.278540
     4  C    0.098716
     5  C   -0.096742
     6  C   -0.357037
     7  S    0.270188
     8  C   -0.398251
     9  C   -0.276796
    10  C    0.037103
    11  C    0.460295
    12  N   -0.748364
    13  C    0.558666
    14  C   -0.201654
    15  C    0.050700
    16  N   -0.405331
    17  C    0.168601
    18  N   -0.432999
    19  N   -0.473244
    20  C    0.015607
    21  C   -0.192780
    22  C    0.366890
    23  H    0.187624
    24  H    0.169237
    25  H    0.178197
    26  H    0.151903
    27  H    0.181946
    28  H    0.178702
    29  H    0.129013
    30  H    0.333118
    31  H    0.130167
    32  H    0.143980
    33  H    0.148619
    34  H    0.136609
    35  H    0.128926
 Sum of Mulliken charges =  -0.00000

 Dipole moment (field-independent basis, Debye):
    X=             -6.4343    Y=              1.7031    Z=              0.9149  Tot=              6.7184
 Quadrupole moment (field-independent basis, Debye-Ang):
   XX=           -147.0880   YY=           -122.7999   ZZ=           -127.1741
   XY=             11.8892   XZ=              3.5488   YZ=              7.2797

 Normal termination of Gaussian 16 at Sat Nov  5 11:42:05 2022.
