 Gaussian 16, Revision B.01,
 Gaussian 16:  ES64L-G16RevB.01 20-Dec-2017

 -----------------------------
 #p b3lyp/6-31g(d) opt SCF=XQC
 -----------------------------

 ------------------------------
 Gaussian input prepared by ASE
 ------------------------------
 Symbolic Z-matrix:
 Charge =  0 Multiplicity = 1

 SCF Done:  E(RB3LYP) =  -1289.46458626     A.U. after   15 cycles
 SCF Done:  E(RB3LYP) =  -1289.46984919     A.U. after   13 cycles
 SCF Done:  E(RB3LYP) =  -1289.47122160     A.U. after   12 cycles
 SCF Done:  E(RB3LYP) =  -1289.47126364     A.U. after   11 cycles
 SCF Done:  E(RB3LYP) =  -1289.47128021     A.U. after   10 cycles
 SCF Done:  E(RB3LYP) =  -1289.47128540     A.U. after    9 cycles
 SCF Done:  E(RB3LYP) =  -1289.47128907     A.U. after    9 cycles
 SCF Done:  E(RB3LYP) =  -1289.47129252     A.U. after   10 cycles
 SCF Done:  E(RB3LYP) =  -1289.47129621     A.U. after   10 cycles
 SCF Done:  E(RB3LYP) =  -1289.47129800     A.U. after   10 cycles
 SCF Done:  E(RB3LYP) =  -1289.47208301     A.U. after   11 cycles
 SCF Done:  E(RB3LYP) =  -1289.47210512     A.U. after   10 cycles
 SCF Done:  E(RB3LYP) =  -1289.47212338     A.U. after   10 cycles
 SCF Done:  E(RB3LYP) =  -1289.47213283     A.U. after   10 cycles
 SCF Done:  E(RB3LYP) =  -1289.47213477     A.U. after    9 cycles
 SCF Done:  E(RB3LYP) =  -1289.47213534     A.U. after    8 cycles
 SCF Done:  E(RB3LYP) =  -1289.47213557     A.U. after    7 cycles
 SCF Done:  E(RB3LYP) =  -1289.47213564     A.U. after    6 cycles
 SCF Done:  E(RB3LYP) =  -1289.47213566     A.U. after    7 cycles
 SCF Done:  E(RB3LYP) =  -1289.47213567     A.U. after    7 cycles
 Optimization completed.
    -- Stationary point found.

                         Standard orientation:
 ---------------------------------------------------------------------
 Center     Atomic      Atomic             Coordinates (Angstroms)
 Number     Number       Type             X           Y           Z
 ---------------------------------------------------------------------
      1          6           0        2.908356    2.485868    0.331623
      2          7           0        1.870305    1.505330    0.062859
      3          6           0        2.009246    0.112049    0.015072
      4          6           0        3.293332   -0.586697    0.080416
      5          6           0        3.439683   -1.860294    0.736093
      6          6           0        4.699098   -2.374199    0.643911
      7         16           0        5.755389   -1.322057   -0.244263
      8          6           0        4.478582   -0.179515   -0.493438
      9          6           0        0.757966   -0.455306   -0.112300
     10          6           0       -0.193952    0.607943   -0.158580
     11          6           0       -1.599848    0.706603   -0.288518
     12          7           0       -2.327254   -0.479487   -0.484146
     13          6           0       -3.648631   -0.759293   -0.195431
     14          6           0       -4.251602   -1.899692   -0.767959
     15          6           0       -5.563377   -2.155535   -0.410273
     16          7           0       -6.262533   -1.373830    0.431199
     17          6           0       -5.583985   -0.326527    0.908544
     18          7           0       -4.322063    0.025085    0.656393
     19          7           0       -2.234664    1.869165   -0.282159
     20          6           0       -1.510737    2.997669   -0.130045
     21          6           0       -0.128388    3.052892   -0.016506
     22          6           0        0.532885    1.817311   -0.041707
     23          1           0        3.746650    2.002393    0.834450
     24          1           0        3.270486    2.959414   -0.589495
     25          1           0        2.508798    3.262775    0.989437
     26          1           0        2.630704   -2.344068    1.271704
     27          1           0        5.077133   -3.297150    1.062323
     28          1           0        4.660621    0.701528   -1.092687
     29          1           0        0.569899   -1.517733   -0.185166
     30          1           0       -1.820240   -1.219364   -0.949286
     31          1           0       -3.718020   -2.541091   -1.464038
     32          1           0       -6.087693   -3.019222   -0.816915
     33          1           0       -6.123177    0.321331    1.598187
     34          1           0       -2.089303    3.919111   -0.120400
     35          1           0        0.389620    4.001479    0.075670
 ---------------------------------------------------------------------

 The electronic state is 1-A.
 Alpha  occ. eigenvalues --  -88.92237 -14.39529 -14.37096 -14.31855 -14.31663
 Alpha  occ. eigenvalues --  -14.31160 -10.27168 -10.26015 -10.24023 -10.23997
 Alpha  occ. eigenvalues --  -10.23868 -10.22975 -10.22865 -10.22800 -10.22666
 Alpha  occ. eigenvalues --  -10.21997 -10.21184 -10.20668 -10.19546 -10.19256
 Alpha  occ. eigenvalues --  -10.18992 -10.18958  -7.98357  -5.94758  -5.94382
 Alpha  occ. eigenvalues --   -5.94073  -0.99989  -0.98877  -0.95455  -0.91070
 Alpha  occ. eigenvalues --   -0.89333  -0.86385  -0.82112  -0.79401  -0.78188
 Alpha  occ. eigenvalues --   -0.75459  -0.74070  -0.72610  -0.70298  -0.65907
 Alpha  occ. eigenvalues --   -0.65158  -0.62709  -0.61388  -0.58556  -0.58116
 Alpha  occ. eigenvalues --   -0.56033  -0.55032  -0.53844  -0.53000  -0.49889
 Alpha  occ. eigenvalues --   -0.47952  -0.47792  -0.46922  -0.46382  -0.46295
 Alpha  occ. eigenvalues --   -0.44568  -0.43891  -0.43280  -0.42633  -0.41605
 Alpha  occ. eigenvalues --   -0.41562  -0.40802  -0.39940  -0.39589  -0.39185
 Alpha  occ. eigenvalues --   -0.39047  -0.36854  -0.36510  -0.35655  -0.33773
 Alpha  occ. eigenvalues --   -0.29404  -0.28477  -0.28234  -0.27299  -0.25504
 Alpha  occ. eigenvalues --   -0.25450  -0.24378  -0.23442  -0.22792  -0.19442
 Alpha virt. eigenvalues --   -0.04152  -0.01997  -0.01194   0.00046   0.01657
 Alpha virt. eigenvalues --    0.02156   0.04066   0.07194   0.07587   0.08744
 Alpha virt. eigenvalues --    0.09779   0.10633   0.11735   0.12484   0.12788

 Mulliken charges:
               1
     1  C   -0.337872
     2  N   -0.582276
     3  C    0.278536
     4  C    0.098718
     5  C   -0.096750
     6  C   -0.357027
     7  S    0.270175
     8  C   -0.398248
     9  C   -0.276785
    10  C    0.037089
    11  C    0.460299
    12  N   -0.748357
    13  C    0.558680
    14  C   -0.201669
    15  C    0.050707
    16  N   -0.405337
    17  C    0.168609
    18  N   -0.433016
    19  N   -0.473239
    20  C    0.015604
    21  C   -0.192779
    22  C    0.366896
    23  H    0.187624
    24  H    0.169238
    25  H    0.178197
    26  H    0.151903
    27  H    0.181946
    28  H    0.178702
    29  H    0.129013
    30  H    0.333117
    31  H    0.130167
    32  H    0.143979
    33  H    0.148619
    34  H    0.136609
    35  H    0.128927
 Sum of Mulliken charges =  -0.00000

 Dipole moment (field-independent basis, Debye):
    X=              6.5984    Y=             -0.8212    Z=             -0.9613  Tot=              6.7184
 Quadrupole moment (field-independent basis, Debye-Ang):
   XX=           -150.8500   YY=           -115.1290   ZZ=           -133.1826
   XY=              7.0411   XZ=              6.7086   YZ=              2.2073

 Normal termination of Gaussian 16 at Fri Nov  4 19:23:13 2022.
