 Gaussian 16, Revision B.01,
 Gaussian 16:  ES64L-G16RevB.01 20-Dec-2017

 -------------------------------------------------------------------
 #p b3lyp/6-31g(d) 6D 10F nosymm GFInput td=(50-50,nstate=2) SCF=XQC
 -------------------------------------------------------------------

 ------------------------------
 Gaussian input prepared by ASE
 ------------------------------
 Symbolic Z-matrix:
 Charge =  0 Multiplicity = 1

                          Input orientation:
 ---------------------------------------------------------------------
 Center     Atomic      Atomic             Coordinates (Angstroms)
 Number     Number       Type             X           Y           Z
 ---------------------------------------------------------------------
      1          6           0        7.095171    2.056943    0.317002
      2          6           0        6.449868    1.234299    1.437004
      3          6           0        6.970092   -0.215794    1.523351
      4          7           0        6.729488   -1.121532    0.399364
      5          6           0        5.348347   -1.479180    0.101549
      6          6           0        4.627107   -0.582473   -0.929456
      7          7           0        3.219838   -0.930787   -1.083267
      8          6           0        2.270758   -0.407530   -0.247692
      9          8           0        2.564202    0.378496    0.653079
     10          6           0        0.850935   -0.827757   -0.491812
     11          6           0        0.482673   -1.984169   -1.191910
     12          6           0       -0.857720   -2.315745   -1.364575
     13          6           0       -1.863695   -1.483247   -0.855549
     14          7           0       -3.218952   -1.800881   -1.114975
     15         16           0       -4.437769   -1.796138    0.096456
     16          8           0       -5.397559   -2.787008   -0.402456
     17          8           0       -3.828426   -1.931806    1.419442
     18          6           0       -5.152646   -0.148014   -0.012516
     19          6           0       -5.078444    0.624281    1.150346
     20          6           0       -5.640883    1.902932    1.199724
     21          6           0       -5.542896    2.751396    2.445545
     22          6           0       -6.284519    2.370188    0.048494
     23          6           0       -6.361070    1.590033   -1.103439
     24          6           0       -5.805292    0.306157   -1.175203
     25          6           0       -5.926937   -0.496318   -2.447441
     26          6           0       -1.504111   -0.325027   -0.151343
     27          6           0       -0.163242   -0.018831    0.038951
     28          1           0        6.905658    1.618495   -0.670757
     29          1           0        6.705226    3.080660    0.297906
     30          1           0        8.183578    2.117155    0.447234
     31          1           0        5.357525    1.231380    1.329889
     32          1           0        6.657469    1.718082    2.402227
     33          1           0        8.057293   -0.192511    1.684114
     34          1           0        6.539005   -0.691503    2.413987
     35          1           0        7.230637   -0.826488   -0.434486
     36          1           0        4.778916   -1.452674    1.036556
     37          1           0        5.309258   -2.516745   -0.263387
     38          1           0        5.108273   -0.676076   -1.910605
     39          1           0        4.681606    0.464358   -0.623913
     40          1           0        2.930607   -1.466590   -1.886833
     41          1           0        1.236589   -2.669456   -1.570391
     42          1           0       -1.126842   -3.230999   -1.886473
     43          1           0       -3.357128   -2.645521   -1.664577
     44          1           0       -4.577203    0.211221    2.019421
     45          1           0       -4.773982    3.527497    2.338053
     46          1           0       -6.489548    3.261100    2.656561
     47          1           0       -5.281058    2.148195    3.320035
     48          1           0       -6.738494    3.358652    0.051690
     49          1           0       -6.873535    1.982106   -1.978300
     50          1           0       -6.432744   -1.449777   -2.269775
     51          1           0       -4.939977   -0.726450   -2.863871
     52          1           0       -6.491510    0.065734   -3.196705
     53          1           0       -2.271066    0.332977    0.241381
     54          1           0        0.127127    0.864691    0.597395
 ---------------------------------------------------------------------

 SCF Done:  E(RB3LYP) =  -1566.45744896     A.U. after   15 cycles

 Excitation energies and oscillator strengths:

 Excited state symmetry could not be determined.
 Excited State   1:      Triplet-?Sym    3.3815 eV  366.65 nm  f=0.0000  <S**2>=2.000
      99 ->108        -0.24354
     103 ->106         0.60636
     104 ->106        -0.14966
 This state for optimization and/or second-order correction.
 Total Energy, E(TD-HF/TD-DFT) =  -1566.33318002
 Copying the excited state density for this state as the 1-particle RhoCI density.

 Excited state symmetry could not be determined.
 Excited State   2:      Triplet-?Sym    3.5792 eV  346.40 nm  f=0.0000  <S**2>=2.000
      98 ->105        -0.38891
      98 ->107         0.14269
     101 ->105         0.38486
     101 ->107         0.34632
     101 ->108         0.10463
     102 ->105         0.10052
     103 ->105        -0.14779

 Excited state symmetry could not be determined.
 Excited State   3:      Singlet-?Sym    4.0932 eV  302.90 nm  f=0.0618  <S**2>=0.000
     104 ->105         0.12235
     104 ->106         0.69463

 Excited state symmetry could not be determined.
 Excited State   4:      Singlet-?Sym    4.1534 eV  298.51 nm  f=0.0005  <S**2>=0.000
     104 ->105         0.69336
     104 ->106        -0.12289

 Alpha  occ. eigenvalues --  -89.12051 -19.15175 -19.15005 -19.10903 -14.38386
 Alpha  occ. eigenvalues --  -14.36076 -14.31017 -10.28596 -10.25098 -10.23267
 Alpha  occ. eigenvalues --  -10.22509 -10.21777 -10.21501 -10.21039 -10.21013
 Alpha  occ. eigenvalues --  -10.20784 -10.20643 -10.20624 -10.20290 -10.20254
 Alpha  occ. eigenvalues --  -10.19964 -10.19874 -10.19725 -10.19547 -10.19070
 Alpha  occ. eigenvalues --  -10.16977 -10.16835  -8.14572  -6.11102  -6.10981
 Alpha  occ. eigenvalues --   -6.10847  -1.11812  -1.02786  -1.00934  -0.94699
 Alpha  occ. eigenvalues --   -0.92077  -0.88993  -0.88178  -0.85835  -0.80556
 Alpha  occ. eigenvalues --   -0.77967  -0.76886  -0.76049  -0.75931  -0.73316
 Alpha  occ. eigenvalues --   -0.72683  -0.68967  -0.66887  -0.66346  -0.63822
 Alpha  occ. eigenvalues --   -0.62897  -0.61551  -0.61068  -0.58907  -0.58052
 Alpha  occ. eigenvalues --   -0.56986  -0.55179  -0.53301  -0.52702  -0.50862
 Alpha  occ. eigenvalues --   -0.49256  -0.49137  -0.48424  -0.47448  -0.46370
 Alpha  occ. eigenvalues --   -0.45588  -0.45036  -0.44809  -0.44671  -0.43737
 Alpha  occ. eigenvalues --   -0.43421  -0.42948  -0.42591  -0.42113  -0.41818
 Alpha  occ. eigenvalues --   -0.41358  -0.41223  -0.41197  -0.40097  -0.39659
 Alpha  occ. eigenvalues --   -0.38707  -0.38547  -0.37919  -0.37317  -0.36766
 Alpha  occ. eigenvalues --   -0.36453  -0.35874  -0.35646  -0.34773  -0.34470
 Alpha  occ. eigenvalues --   -0.34188  -0.32858  -0.32739  -0.31990  -0.31739
 Alpha  occ. eigenvalues --   -0.31222  -0.30855  -0.27174  -0.26487  -0.25582
 Alpha  occ. eigenvalues --   -0.25345  -0.25226  -0.23241  -0.20359
 Alpha virt. eigenvalues --   -0.04185  -0.03564  -0.01596  -0.01348   0.04679
 Alpha virt. eigenvalues --    0.06017   0.06383   0.07615   0.07944   0.08354
 Alpha virt. eigenvalues --    0.09360   0.10011   0.10686   0.10769   0.11246

 Mulliken charges:
               1
     1  C   -0.447591
     2  C   -0.268961
     3  C   -0.133096
     4  N   -0.550311
     5  C   -0.118042
     6  C   -0.150562
     7  N   -0.616355
     8  C    0.562044
     9  O   -0.531151
    10  C    0.080970
    11  C   -0.193927
    12  C   -0.182553
    13  C    0.341596
    14  N   -0.824977
    15  S    1.274789
    16  O   -0.553891
    17  O   -0.516206
    18  C   -0.222707
    19  C   -0.217751
    20  C    0.180843
    21  C   -0.531173
    22  C   -0.162035
    23  C   -0.175178
    24  C    0.179573
    25  C   -0.548426
    26  C   -0.147808
    27  C   -0.176024
    28  H    0.129506
    29  H    0.147663
    30  H    0.137812
    31  H    0.168215
    32  H    0.127482
    33  H    0.130112
    34  H    0.141961
    35  H    0.289684
    36  H    0.165093
    37  H    0.128131
    38  H    0.130112
    39  H    0.186520
    40  H    0.326149
    41  H    0.130269
    42  H    0.133030
    43  H    0.359254
    44  H    0.184390
    45  H    0.171710
    46  H    0.164876
    47  H    0.168090
    48  H    0.135879
    49  H    0.136897
    50  H    0.202340
    51  H    0.178595
    52  H    0.154283
    53  H    0.153149
    54  H    0.167707
 Sum of Mulliken charges =  -0.00000

 Dipole moment (field-independent basis, Debye):
    X=             -0.7739    Y=              2.4298    Z=             -4.6418  Tot=              5.2961
 Quadrupole moment (field-independent basis, Debye-Ang):
   XX=           -163.0146   YY=           -166.3635   ZZ=           -159.3013
   XY=            -22.5076   XZ=             -3.0906   YZ=             13.6539

 Normal termination of Gaussian 16 at Sat Nov  5 11:57:32 2022.
