 Gaussian 16, Revision B.01,
 Gaussian 16:  ES64L-G16RevB.01 20-Dec-2017

 -----------------------------
 #p b3lyp/6-31g(d) opt SCF=XQC
 -----------------------------

 ------------------------------
 Gaussian input prepared by ASE
 ------------------------------
 Symbolic Z-matrix:
 Charge =  0 Multiplicity = 1

 SCF Done:  E(RB3LYP) =  -1566.44512431     A.U. after   15 cycles
 SCF Done:  E(RB3LYP) =  -1566.45465366     A.U. after   13 cycles
 SCF Done:  E(RB3LYP) =  -1566.45616051     A.U. after   12 cycles
 SCF Done:  E(RB3LYP) =  -1566.45651869     A.U. after   12 cycles
 SCF Done:  E(RB3LYP) =  -1566.45670813     A.U. after   12 cycles
 SCF Done:  E(RB3LYP) =  -1566.45681403     A.U. after   11 cycles
 SCF Done:  E(RB3LYP) =  -1566.45699888     A.U. after   12 cycles
 SCF Done:  E(RB3LYP) =  -1566.45715607     A.U. after   12 cycles
 SCF Done:  E(RB3LYP) =  -1566.45728261     A.U. after   12 cycles
 SCF Done:  E(RB3LYP) =  -1566.45734007     A.U. after   11 cycles
 SCF Done:  E(RB3LYP) =  -1566.45745010     A.U. after    8 cycles
 SCF Done:  E(RB3LYP) =  -1566.45745035     A.U. after    9 cycles
 SCF Done:  E(RB3LYP) =  -1566.45745071     A.U. after    8 cycles
 SCF Done:  E(RB3LYP) =  -1566.45745116     A.U. after    8 cycles
 SCF Done:  E(RB3LYP) =  -1566.45745134     A.U. after    8 cycles
 SCF Done:  E(RB3LYP) =  -1566.45745150     A.U. after    9 cycles
 SCF Done:  E(RB3LYP) =  -1566.45745160     A.U. after    9 cycles
 SCF Done:  E(RB3LYP) =  -1566.45745162     A.U. after    7 cycles
 SCF Done:  E(RB3LYP) =  -1566.45745164     A.U. after    7 cycles
 SCF Done:  E(RB3LYP) =  -1566.45745164     A.U. after    6 cycles
 Optimization completed.
    -- Stationary point found.

                         Standard orientation:
 ---------------------------------------------------------------------
 Center     Atomic      Atomic             Coordinates (Angstroms)
 Number     Number       Type             X           Y           Z
 ---------------------------------------------------------------------
      1          6           0       -7.820939    2.186432    1.093079
      2          6           0       -7.226083    1.988181   -0.304921
      3          6           0       -7.760646    0.739932   -1.037709
      4          7           0       -7.483718   -0.582660   -0.475876
      5          6           0       -6.094910   -1.022478   -0.431943
      6          6           0       -5.327169   -0.701969    0.870012
      7          7           0       -3.917770   -1.066094    0.790035
      8          6           0       -2.997758   -0.203037    0.259519
      9          8           0       -3.319761    0.908992   -0.158860
     10          6           0       -1.572875   -0.672742    0.225342
     11          6           0       -1.186814   -2.017999    0.290797
     12          6           0        0.156625   -2.376855    0.237831
     13          6           0        1.148593   -1.391882    0.137964
     14          7           0        2.510362   -1.778694    0.167613
     15         16           0        3.681234   -1.196036   -0.947137
     16          8           0        4.651851   -2.294451   -1.004767
     17          8           0        3.019947   -0.705962   -2.156486
     18          6           0        4.412732    0.219006   -0.109400
     19          6           0        4.299517    1.443543   -0.774145
     20          6           0        4.869647    2.603896   -0.242865
     21          6           0        4.730043    3.934225   -0.944502
     22          6           0        5.561138    2.487603    0.968020
     23          6           0        5.676213    1.261235    1.619351
     24          6           0        5.113568    0.085897    1.105166
     25          6           0        5.278196   -1.215806    1.850698
     26          6           0        0.771057   -0.043014    0.069392
     27          6           0       -0.573740    0.301606    0.094961
     28          1           0       -7.596678    1.340140    1.754376
     29          1           0       -7.422514    3.087426    1.572544
     30          1           0       -8.913075    2.288275    1.047422
     31          1           0       -6.130463    1.947841   -0.253127
     32          1           0       -7.467188    2.863866   -0.924473
     33          1           0       -8.853052    0.823358   -1.127616
     34          1           0       -7.368209    0.739230   -2.063067
     35          1           0       -7.949787   -0.716071    0.417706
     36          1           0       -5.562013   -0.556705   -1.267568
     37          1           0       -6.049839   -2.110001   -0.594768
     38          1           0       -5.770606   -1.247624    1.711770
     39          1           0       -5.385259    0.365884    1.090234
     40          1           0       -3.601784   -1.911505    1.239355
     41          1           0       -1.930831   -2.809071    0.334363
     42          1           0        0.438602   -3.426806    0.262025
     43          1           0        2.663126   -2.780562    0.254198
     44          1           0        3.761688    1.477802   -1.715802
     45          1           0        3.972005    4.562040   -0.458352
     46          1           0        5.671767    4.494048   -0.929271
     47          1           0        4.429725    3.805488   -1.988715
     48          1           0        6.022400    3.368522    1.408910
     49          1           0        6.225318    1.205840    2.555909
     50          1           0        5.769218   -1.970720    1.229817
     51          1           0        4.306368   -1.624558    2.148918
     52          1           0        5.875829   -1.061699    2.753544
     53          1           0        1.527337    0.730711    0.000021
     54          1           0       -0.878616    1.340292    0.024477
 ---------------------------------------------------------------------

 The electronic state is 1-A.
 Alpha  occ. eigenvalues --  -89.12051 -19.15175 -19.15005 -19.10903 -14.38386
 Alpha  occ. eigenvalues --  -14.36076 -14.31017 -10.28596 -10.25098 -10.23267
 Alpha  occ. eigenvalues --  -10.22509 -10.21777 -10.21501 -10.21039 -10.21013
 Alpha  occ. eigenvalues --  -10.20784 -10.20643 -10.20624 -10.20290 -10.20254
 Alpha  occ. eigenvalues --  -10.19964 -10.19874 -10.19725 -10.19547 -10.19070
 Alpha  occ. eigenvalues --  -10.16977 -10.16835  -8.14572  -6.11102  -6.10981
 Alpha  occ. eigenvalues --   -6.10847  -1.11812  -1.02786  -1.00934  -0.94699
 Alpha  occ. eigenvalues --   -0.92077  -0.88993  -0.88178  -0.85835  -0.80556
 Alpha  occ. eigenvalues --   -0.77967  -0.76886  -0.76049  -0.75931  -0.73316
 Alpha  occ. eigenvalues --   -0.72683  -0.68967  -0.66887  -0.66346  -0.63822
 Alpha  occ. eigenvalues --   -0.62897  -0.61551  -0.61068  -0.58907  -0.58052
 Alpha  occ. eigenvalues --   -0.56986  -0.55180  -0.53301  -0.52702  -0.50862
 Alpha  occ. eigenvalues --   -0.49256  -0.49137  -0.48424  -0.47448  -0.46370
 Alpha  occ. eigenvalues --   -0.45588  -0.45036  -0.44809  -0.44671  -0.43737
 Alpha  occ. eigenvalues --   -0.43421  -0.42948  -0.42591  -0.42113  -0.41818
 Alpha  occ. eigenvalues --   -0.41358  -0.41223  -0.41197  -0.40097  -0.39659
 Alpha  occ. eigenvalues --   -0.38707  -0.38547  -0.37919  -0.37317  -0.36766
 Alpha  occ. eigenvalues --   -0.36453  -0.35874  -0.35647  -0.34773  -0.34470
 Alpha  occ. eigenvalues --   -0.34188  -0.32858  -0.32739  -0.31990  -0.31739
 Alpha  occ. eigenvalues --   -0.31222  -0.30855  -0.27174  -0.26487  -0.25582
 Alpha  occ. eigenvalues --   -0.25345  -0.25226  -0.23241  -0.20359
 Alpha virt. eigenvalues --   -0.04185  -0.03564  -0.01596  -0.01348   0.04679
 Alpha virt. eigenvalues --    0.06017   0.06383   0.07615   0.07944   0.08354
 Alpha virt. eigenvalues --    0.09360   0.10011   0.10686   0.10768   0.11246

 Mulliken charges:
               1
     1  C   -0.447591
     2  C   -0.268970
     3  C   -0.133086
     4  N   -0.550323
     5  C   -0.118027
     6  C   -0.150559
     7  N   -0.616360
     8  C    0.562049
     9  O   -0.531155
    10  C    0.080971
    11  C   -0.193944
    12  C   -0.182541
    13  C    0.341598
    14  N   -0.824991
    15  S    1.274821
    16  O   -0.553898
    17  O   -0.516201
    18  C   -0.222709
    19  C   -0.217752
    20  C    0.180841
    21  C   -0.531174
    22  C   -0.162034
    23  C   -0.175178
    24  C    0.179562
    25  C   -0.548434
    26  C   -0.147815
    27  C   -0.176017
    28  H    0.129508
    29  H    0.147663
    30  H    0.137812
    31  H    0.168216
    32  H    0.127483
    33  H    0.130112
    34  H    0.141961
    35  H    0.289685
    36  H    0.165090
    37  H    0.128129
    38  H    0.130112
    39  H    0.186518
    40  H    0.326150
    41  H    0.130271
    42  H    0.133031
    43  H    0.359254
    44  H    0.184390
    45  H    0.171710
    46  H    0.164877
    47  H    0.168091
    48  H    0.135879
    49  H    0.136898
    50  H    0.202338
    51  H    0.178595
    52  H    0.154283
    53  H    0.153155
    54  H    0.167707
 Sum of Mulliken charges =  -0.00000

 Dipole moment (field-independent basis, Debye):
    X=              0.9726    Y=             -0.0064    Z=              5.2061  Tot=              5.2961
 Quadrupole moment (field-independent basis, Debye-Ang):
   XX=           -164.3340   YY=           -153.0918   ZZ=           -171.1844
   XY=             21.1199   XZ=              3.8428   YZ=             -9.7897

 Normal termination of Gaussian 16 at Fri Nov  4 19:49:14 2022.
