 Gaussian 16, Revision B.01,
 Gaussian 16:  ES64L-G16RevB.01 20-Dec-2017

 -------------------------------------------------------------------
 #p b3lyp/6-31g(d) 6D 10F nosymm GFInput td=(50-50,nstate=2) SCF=XQC
 -------------------------------------------------------------------

 ------------------------------
 Gaussian input prepared by ASE
 ------------------------------
 Symbolic Z-matrix:
 Charge =  0 Multiplicity = 1

                          Input orientation:
 ---------------------------------------------------------------------
 Center     Atomic      Atomic             Coordinates (Angstroms)
 Number     Number       Type             X           Y           Z
 ---------------------------------------------------------------------
      1          6           0       -4.714407   -2.383749    3.464754
      2          8           0       -4.494076   -2.070537    2.082549
      3          6           0       -3.454219   -1.234188    1.837092
      4          8           0       -2.746256   -0.794837    2.733621
      5          6           0       -3.391172   -0.919900    0.408998
      6          6           0       -2.480549   -0.167077   -0.272828
      7          6           0       -2.952428    0.186073   -1.681550
      8          8           0       -4.112851    0.188797   -2.035258
      9          8           0       -1.926930    0.469998   -2.508208
     10          6           0       -2.297211    0.836581   -3.848175
     11          7           0       -1.206349    0.274982    0.075769
     12          6           0       -1.059212    1.747097   -0.006614
     13          6           0       -0.046365    2.381943   -0.991812
     14          6           0       -0.454324    3.656377   -1.425612
     15          6           0        0.250896    4.437085   -2.335805
     16          6           0        1.418409    3.921770   -2.883714
     17          6           0        1.843622    2.649009   -2.515925
     18          6           0        1.134808    1.863697   -1.585519
     19          8           0        1.568986    0.603941   -1.259215
     20          6           0        2.834592    0.196850   -1.790748
     21          6           0        3.269150   -1.162106   -1.275956
     22          8           0        3.725088   -1.049857    0.066293
     23          6           0        4.030838   -2.272870    0.718353
     24          6           0        3.288331   -2.404751    2.055651
     25          8           0        1.871835   -2.189474    2.017051
     26          6           0        1.184087   -2.625992    0.906976
     27          6           0        1.423771   -3.909629    0.399570
     28          6           0        0.840867   -4.330709   -0.793068
     29          6           0        0.023107   -3.443657   -1.487260
     30          6           0       -0.265104   -2.193308   -0.937814
     31          6           0        0.257058   -1.756923    0.289319
     32          6           0       -0.364790   -0.531495    1.002851
     33          6           0        0.471888    0.334553    1.998860
     34          6           0        1.834772    0.966626    1.633962
     35          6           0       -0.340230    1.513674    2.496786
     36          8           0       -0.295478    1.879643    3.656478
     37          6           0       -1.157523    2.299882    1.465878
     38          6           0       -0.976464    3.809847    1.670597
     39          1           0       -3.839085   -2.880351    3.892483
     40          1           0       -4.919376   -1.475898    4.039021
     41          1           0       -5.578066   -3.049513    3.478366
     42          1           0       -4.255827   -1.240116   -0.158774
     43          1           0       -2.800149    0.003045   -4.345387
     44          1           0       -1.360637    1.081114   -4.348621
     45          1           0       -2.966450    1.700390   -3.836600
     46          1           0       -2.006297    2.079697   -0.436732
     47          1           0       -1.385280    4.051630   -1.030189
     48          1           0       -0.119537    5.418237   -2.617376
     49          1           0        1.998266    4.491346   -3.604959
     50          1           0        2.744466    2.263764   -2.973011
     51          1           0        3.604931    0.934544   -1.532327
     52          1           0        2.768090    0.132461   -2.885855
     53          1           0        4.094803   -1.496309   -1.926403
     54          1           0        2.451424   -1.883584   -1.364742
     55          1           0        3.808256   -3.120137    0.062774
     56          1           0        5.107637   -2.307039    0.945040
     57          1           0        3.651409   -1.648164    2.756527
     58          1           0        3.521947   -3.393118    2.480378
     59          1           0        2.087405   -4.572020    0.947787
     60          1           0        1.040748   -5.327792   -1.176042
     61          1           0       -0.411525   -3.722751   -2.443168
     62          1           0       -0.897092   -1.521162   -1.498905
     63          1           0       -1.062265   -0.997938    1.699444
     64          1           0        0.649859   -0.310516    2.859310
     65          1           0        1.740861    1.831486    0.972180
     66          1           0        2.286247    1.320139    2.567859
     67          1           0        2.499661    0.247656    1.165741
     68          1           0       -2.191103    2.054195    1.752656
     69          1           0       -0.003989    4.157308    1.308852
     70          1           0       -1.756357    4.386317    1.162511
     71          1           0       -1.039142    4.015711    2.741837
 ---------------------------------------------------------------------

 SCF Done:  E(RB3LYP) =  -1781.39608486     A.U. after   15 cycles

 Excitation energies and oscillator strengths:

 Excited state symmetry could not be determined.
 Excited State   1:      Triplet-?Sym    2.3419 eV  529.41 nm  f=0.0000  <S**2>=2.000
     131 ->140         0.10243
     136 ->140        -0.23286
     137 ->140        -0.21680
     139 ->140         0.60300
 This state for optimization and/or second-order correction.
 Total Energy, E(TD-HF/TD-DFT) =  -1781.31002069
 Copying the excited state density for this state as the 1-particle RhoCI density.

 Excited state symmetry could not be determined.
 Excited State   2:      Triplet-?Sym    3.4356 eV  360.88 nm  f=0.0000  <S**2>=2.000
     135 ->140         0.10130
     138 ->140         0.65147
     139 ->140        -0.15131

 Excited state symmetry could not be determined.
 Excited State   3:      Singlet-?Sym    3.4482 eV  359.56 nm  f=0.0701  <S**2>=0.000
     135 ->140        -0.10823
     137 ->140         0.14798
     139 ->140         0.67244

 Excited state symmetry could not be determined.
 Excited State   4:      Singlet-?Sym    3.4771 eV  356.58 nm  f=0.0005  <S**2>=0.000
     138 ->140         0.70212

 Alpha  occ. eigenvalues --  -19.20241 -19.18505 -19.18006 -19.16799 -19.16001
 Alpha  occ. eigenvalues --  -19.14330 -19.13035 -19.11663 -14.36075 -10.32235
 Alpha  occ. eigenvalues --  -10.31043 -10.25611 -10.25326 -10.25324 -10.25002
 Alpha  occ. eigenvalues --  -10.24729 -10.24563 -10.24560 -10.24324 -10.24299
 Alpha  occ. eigenvalues --  -10.24198 -10.23342 -10.22372 -10.20380 -10.19669
 Alpha  occ. eigenvalues --  -10.19444 -10.19349 -10.19327 -10.19136 -10.18995
 Alpha  occ. eigenvalues --  -10.18967 -10.18746 -10.18609 -10.18334 -10.18139
 Alpha  occ. eigenvalues --  -10.18123 -10.17032 -10.15402  -1.11181  -1.09376
 Alpha  occ. eigenvalues --   -1.06612  -1.05708  -1.03707  -1.02136  -1.01866
 Alpha  occ. eigenvalues --   -1.00488  -0.95324  -0.85683  -0.84953  -0.81246
 Alpha  occ. eigenvalues --   -0.79631  -0.79130  -0.77234  -0.76216  -0.74991
 Alpha  occ. eigenvalues --   -0.74596  -0.74457  -0.73494  -0.72136  -0.71693
 Alpha  occ. eigenvalues --   -0.69357  -0.66850  -0.65446  -0.64153  -0.63304
 Alpha  occ. eigenvalues --   -0.62794  -0.60633  -0.59660  -0.58967  -0.58280
 Alpha  occ. eigenvalues --   -0.57545  -0.57156  -0.54537  -0.54228  -0.54007
 Alpha  occ. eigenvalues --   -0.52814  -0.51074  -0.50681  -0.50336  -0.49062
 Alpha  occ. eigenvalues --   -0.48965  -0.48629  -0.47942  -0.47653  -0.47450
 Alpha  occ. eigenvalues --   -0.47208  -0.47144  -0.46901  -0.46332  -0.45594
 Alpha  occ. eigenvalues --   -0.45409  -0.44887  -0.44368  -0.43861  -0.43035
 Alpha  occ. eigenvalues --   -0.42943  -0.42707  -0.42500  -0.42040  -0.41764
 Alpha  occ. eigenvalues --   -0.40984  -0.40848  -0.40598  -0.40276  -0.39531
 Alpha  occ. eigenvalues --   -0.39184  -0.39030  -0.38564  -0.37808  -0.37536
 Alpha  occ. eigenvalues --   -0.37034  -0.36734  -0.36464  -0.36227  -0.35868
 Alpha  occ. eigenvalues --   -0.35284  -0.35130  -0.34822  -0.34742  -0.33919
 Alpha  occ. eigenvalues --   -0.33691  -0.33033  -0.32554  -0.31513  -0.31325
 Alpha  occ. eigenvalues --   -0.31004  -0.30809  -0.30157  -0.29275  -0.29138
 Alpha  occ. eigenvalues --   -0.27559  -0.26918  -0.26567  -0.24904  -0.23896
 Alpha  occ. eigenvalues --   -0.22546  -0.22112  -0.21679  -0.21454
 Alpha virt. eigenvalues --   -0.06625  -0.00895   0.00018   0.00434   0.00525
 Alpha virt. eigenvalues --    0.00843   0.03146   0.07641   0.08102   0.08651
 Alpha virt. eigenvalues --    0.08932   0.09495   0.09954   0.10848   0.11256

 Mulliken charges:
               1
     1  C   -0.214202
     2  O   -0.460634
     3  C    0.630429
     4  O   -0.509220
     5  C   -0.264884
     6  C    0.250507
     7  C    0.582473
     8  O   -0.478601
     9  O   -0.436146
    10  C   -0.220310
    11  N   -0.467039
    12  C   -0.102305
    13  C    0.157456
    14  C   -0.204328
    15  C   -0.130666
    16  C   -0.140876
    17  C   -0.199249
    18  C    0.328488
    19  O   -0.520743
    20  C   -0.054415
    21  C   -0.043922
    22  O   -0.468822
    23  C   -0.058150
    24  C   -0.037306
    25  O   -0.532126
    26  C    0.293912
    27  C   -0.187873
    28  C   -0.139452
    29  C   -0.140486
    30  C   -0.198407
    31  C    0.148859
    32  C   -0.070270
    33  C   -0.185655
    34  C   -0.501851
    35  C    0.485457
    36  O   -0.476063
    37  C   -0.166709
    38  C   -0.465298
    39  H    0.169988
    40  H    0.171102
    41  H    0.163290
    42  H    0.184806
    43  H    0.171498
    44  H    0.174034
    45  H    0.173405
    46  H    0.162384
    47  H    0.131594
    48  H    0.128612
    49  H    0.130662
    50  H    0.135885
    51  H    0.159303
    52  H    0.142474
    53  H    0.125441
    54  H    0.177093
    55  H    0.150791
    56  H    0.142279
    57  H    0.169563
    58  H    0.137301
    59  H    0.130261
    60  H    0.127891
    61  H    0.123829
    62  H    0.153579
    63  H    0.215387
    64  H    0.180205
    65  H    0.140724
    66  H    0.146854
    67  H    0.217536
    68  H    0.180403
    69  H    0.161219
    70  H    0.136008
    71  H    0.183024
 Sum of Mulliken charges =  -0.00000

 Dipole moment (field-independent basis, Debye):
    X=              3.4153    Y=             -2.0693    Z=             -4.8620  Tot=              6.2917
 Quadrupole moment (field-independent basis, Debye-Ang):
   XX=           -209.7253   YY=           -204.7188   ZZ=           -219.0461
   XY=             -8.9388   XZ=             -7.7374   YZ=            -14.4391

 Normal termination of Gaussian 16 at Sat Nov  5 12:05:27 2022.
