 Gaussian 16, Revision B.01,
 Gaussian 16:  ES64L-G16RevB.01 20-Dec-2017

 -----------------------------
 #p b3lyp/6-31g(d) opt SCF=XQC
 -----------------------------

 ------------------------------
 Gaussian input prepared by ASE
 ------------------------------
 Symbolic Z-matrix:
 Charge =  0 Multiplicity = 1

 SCF Done:  E(RB3LYP) =  -1781.37753818     A.U. after   16 cycles
 SCF Done:  E(RB3LYP) =  -1781.38568191     A.U. after   14 cycles
 SCF Done:  E(RB3LYP) =  -1781.38915807     A.U. after   14 cycles
 SCF Done:  E(RB3LYP) =  -1781.39015900     A.U. after   13 cycles
 SCF Done:  E(RB3LYP) =  -1781.38666895     A.U. after   13 cycles
 SCF Done:  E(RB3LYP) =  -1781.39146497     A.U. after   13 cycles
 SCF Done:  E(RB3LYP) =  -1781.39352866     A.U. after   13 cycles
 SCF Done:  E(RB3LYP) =  -1781.39351191     A.U. after   12 cycles
 SCF Done:  E(RB3LYP) =  -1781.39413063     A.U. after   13 cycles
 SCF Done:  E(RB3LYP) =  -1781.39459351     A.U. after   13 cycles
 SCF Done:  E(RB3LYP) =  -1781.39607025     A.U. after   10 cycles
 SCF Done:  E(RB3LYP) =  -1781.39605618     A.U. after   12 cycles
 SCF Done:  E(RB3LYP) =  -1781.39609934     A.U. after   11 cycles
 SCF Done:  E(RB3LYP) =  -1781.39608803     A.U. after   10 cycles
 SCF Done:  E(RB3LYP) =  -1781.39609197     A.U. after   10 cycles
 SCF Done:  E(RB3LYP) =  -1781.39609953     A.U. after   10 cycles
 SCF Done:  E(RB3LYP) =  -1781.39609229     A.U. after   10 cycles
 SCF Done:  E(RB3LYP) =  -1781.39608982     A.U. after    8 cycles
 SCF Done:  E(RB3LYP) =  -1781.39609942     A.U. after   10 cycles
 SCF Done:  E(RB3LYP) =  -1781.39608945     A.U. after   10 cycles
 Optimization completed.
    -- Stationary point found.

                         Standard orientation:
 ---------------------------------------------------------------------
 Center     Atomic      Atomic             Coordinates (Angstroms)
 Number     Number       Type             X           Y           Z
 ---------------------------------------------------------------------
      1          6           0       -6.041002   -0.871291    0.590828
      2          8           0       -5.157014   -0.248971   -0.351732
      3          6           0       -3.906561    0.006579    0.108801
      4          8           0       -3.557033   -0.290906    1.243411
      5          6           0       -3.134925    0.721555   -0.908838
      6          6           0       -1.831360    1.122776   -0.884257
      7          6           0       -1.506458    2.120715   -1.993509
      8          8           0       -2.330499    2.805353   -2.562652
      9          8           0       -0.193646    2.138998   -2.296512
     10          6           0        0.191437    3.074968   -3.317627
     11          7           0       -0.766730    0.742936   -0.070128
     12          6           0       -0.135479    1.885129    0.631637
     13          6           0        1.347682    2.246638    0.368866
     14          6           0        1.599832    3.619016    0.547180
     15          6           0        2.838024    4.220638    0.346627
     16          6           0        3.893878    3.430926   -0.089682
     17          6           0        3.685364    2.074326   -0.318048
     18          6           0        2.433923    1.463762   -0.103812
     19          8           0        2.255076    0.127605   -0.358108
     20          6           0        3.421185   -0.628027   -0.703392
     21          6           0        3.129335   -2.109209   -0.850140
     22          8           0        2.968853   -2.701944    0.432445
     23          6           0        2.552618   -4.058834    0.437337
     24          6           0        1.306092   -4.267516    1.308943
     25          8           0        0.198021   -3.396783    1.047602
     26          6           0       -0.041179   -3.033142   -0.258676
     27          6           0       -0.030908   -4.007082   -1.265635
     28          6           0       -0.141088   -3.653184   -2.608054
     29          6           0       -0.245747   -2.304872   -2.937591
     30          6           0       -0.325766   -1.348782   -1.923777
     31          6           0       -0.276795   -1.672921   -0.559418
     32          6           0       -0.716954   -0.632331    0.499322
     33          6           0       -0.165291   -0.682856    1.960561
     34          6           0        1.343620   -0.706549    2.296339
     35          6           0       -0.687358    0.486713    2.771332
     36          8           0       -1.034102    0.359740    3.930844
     37          6           0       -0.678262    1.869749    2.111035
     38          6           0       -0.130501    2.927018    3.078935
     39          1           0       -5.647471   -1.841259    0.907135
     40          1           0       -6.171333   -0.239630    1.474008
     41          1           0       -6.988018   -0.994696    0.064267
     42          1           0       -3.720563    1.077237   -1.747319
     43          1           0       -0.284342    2.818461   -4.267778
     44          1           0        1.275566    2.992004   -3.389706
     45          1           0       -0.100831    4.089460   -3.035549
     46          1           0       -0.640995    2.758582    0.214351
     47          1           0        0.770837    4.250423    0.852722
     48          1           0        2.961984    5.286344    0.514160
     49          1           0        4.877042    3.858009   -0.268112
     50          1           0        4.518865    1.486781   -0.677115
     51          1           0        4.194914   -0.495465    0.063529
     52          1           0        3.818274   -0.270090   -1.663616
     53          1           0        3.999473   -2.552676   -1.362657
     54          1           0        2.247479   -2.264328   -1.478915
     55          1           0        2.377221   -4.407190   -0.584950
     56          1           0        3.351064   -4.684590    0.865080
     57          1           0        1.551245   -4.075623    2.357062
     58          1           0        1.002588   -5.322313    1.224534
     59          1           0        0.078988   -5.049794   -0.982105
     60          1           0       -0.126389   -4.420173   -3.377669
     61          1           0       -0.287899   -1.989942   -3.976631
     62          1           0       -0.400298   -0.309065   -2.205636
     63          1           0       -1.755533   -0.911095    0.680777
     64          1           0       -0.594210   -1.584727    2.397390
     65          1           0        1.827846    0.263113    2.154788
     66          1           0        1.433329   -0.962127    3.358223
     67          1           0        1.876176   -1.444893    1.705189
     68          1           0       -1.752073    2.072320    1.981488
     69          1           0        0.956853    2.861726    3.182349
     70          1           0       -0.383261    3.942888    2.758273
     71          1           0       -0.580807    2.753572    4.059243
 ---------------------------------------------------------------------

 The electronic state is 1-A.
 Alpha  occ. eigenvalues --  -19.20242 -19.18505 -19.18006 -19.16799 -19.16002
 Alpha  occ. eigenvalues --  -19.14330 -19.13035 -19.11663 -14.36075 -10.32235
 Alpha  occ. eigenvalues --  -10.31043 -10.25611 -10.25326 -10.25324 -10.25002
 Alpha  occ. eigenvalues --  -10.24730 -10.24563 -10.24560 -10.24324 -10.24299
 Alpha  occ. eigenvalues --  -10.24198 -10.23342 -10.22372 -10.20380 -10.19670
 Alpha  occ. eigenvalues --  -10.19444 -10.19349 -10.19328 -10.19136 -10.18995
 Alpha  occ. eigenvalues --  -10.18967 -10.18746 -10.18609 -10.18334 -10.18139
 Alpha  occ. eigenvalues --  -10.18123 -10.17032 -10.15402  -1.11181  -1.09376
 Alpha  occ. eigenvalues --   -1.06612  -1.05709  -1.03707  -1.02136  -1.01866
 Alpha  occ. eigenvalues --   -1.00488  -0.95324  -0.85683  -0.84953  -0.81246
 Alpha  occ. eigenvalues --   -0.79631  -0.79130  -0.77234  -0.76216  -0.74991
 Alpha  occ. eigenvalues --   -0.74596  -0.74457  -0.73494  -0.72136  -0.71693
 Alpha  occ. eigenvalues --   -0.69357  -0.66850  -0.65446  -0.64153  -0.63304
 Alpha  occ. eigenvalues --   -0.62794  -0.60633  -0.59660  -0.58967  -0.58280
 Alpha  occ. eigenvalues --   -0.57545  -0.57156  -0.54537  -0.54228  -0.54007
 Alpha  occ. eigenvalues --   -0.52814  -0.51074  -0.50681  -0.50336  -0.49062
 Alpha  occ. eigenvalues --   -0.48965  -0.48629  -0.47942  -0.47653  -0.47450
 Alpha  occ. eigenvalues --   -0.47208  -0.47144  -0.46901  -0.46332  -0.45594
 Alpha  occ. eigenvalues --   -0.45409  -0.44888  -0.44368  -0.43861  -0.43035
 Alpha  occ. eigenvalues --   -0.42943  -0.42707  -0.42500  -0.42040  -0.41764
 Alpha  occ. eigenvalues --   -0.40984  -0.40848  -0.40598  -0.40276  -0.39531
 Alpha  occ. eigenvalues --   -0.39183  -0.39030  -0.38564  -0.37807  -0.37537
 Alpha  occ. eigenvalues --   -0.37034  -0.36734  -0.36464  -0.36227  -0.35868
 Alpha  occ. eigenvalues --   -0.35284  -0.35130  -0.34822  -0.34742  -0.33919
 Alpha  occ. eigenvalues --   -0.33691  -0.33033  -0.32554  -0.31513  -0.31325
 Alpha  occ. eigenvalues --   -0.31005  -0.30809  -0.30157  -0.29275  -0.29138
 Alpha  occ. eigenvalues --   -0.27559  -0.26918  -0.26567  -0.24904  -0.23896
 Alpha  occ. eigenvalues --   -0.22546  -0.22112  -0.21679  -0.21454
 Alpha virt. eigenvalues --   -0.06625  -0.00895   0.00017   0.00434   0.00525
 Alpha virt. eigenvalues --    0.00843   0.03146   0.07641   0.08102   0.08651
 Alpha virt. eigenvalues --    0.08932   0.09495   0.09954   0.10848   0.11256

 Mulliken charges:
               1
     1  C   -0.214202
     2  O   -0.460635
     3  C    0.630451
     4  O   -0.509231
     5  C   -0.264892
     6  C    0.250491
     7  C    0.582488
     8  O   -0.478605
     9  O   -0.436154
    10  C   -0.220311
    11  N   -0.467019
    12  C   -0.102310
    13  C    0.157463
    14  C   -0.204340
    15  C   -0.130666
    16  C   -0.140873
    17  C   -0.199245
    18  C    0.328477
    19  O   -0.520738
    20  C   -0.054399
    21  C   -0.043939
    22  O   -0.468808
    23  C   -0.058176
    24  C   -0.037287
    25  O   -0.532136
    26  C    0.293951
    27  C   -0.187892
    28  C   -0.139454
    29  C   -0.140470
    30  C   -0.198413
    31  C    0.148819
    32  C   -0.070279
    33  C   -0.185594
    34  C   -0.501858
    35  C    0.485453
    36  O   -0.476065
    37  C   -0.166708
    38  C   -0.465300
    39  H    0.169988
    40  H    0.171102
    41  H    0.163290
    42  H    0.184805
    43  H    0.171496
    44  H    0.174034
    45  H    0.173407
    46  H    0.162381
    47  H    0.131597
    48  H    0.128612
    49  H    0.130662
    50  H    0.135885
    51  H    0.159302
    52  H    0.142474
    53  H    0.125442
    54  H    0.177091
    55  H    0.150794
    56  H    0.142283
    57  H    0.169564
    58  H    0.137298
    59  H    0.130263
    60  H    0.127891
    61  H    0.123829
    62  H    0.153584
    63  H    0.215386
    64  H    0.180195
    65  H    0.140721
    66  H    0.146852
    67  H    0.217527
    68  H    0.180403
    69  H    0.161219
    70  H    0.136008
    71  H    0.183024
 Sum of Mulliken charges =  -0.00000

 Dipole moment (field-independent basis, Debye):
    X=              4.3188    Y=             -1.6386    Z=             -4.2721  Tot=              6.2919
 Quadrupole moment (field-independent basis, Debye-Ang):
   XX=           -204.4577   YY=           -195.0880   ZZ=           -232.2872
   XY=              2.0054   XZ=             -6.4142   YZ=              1.8135

 Normal termination of Gaussian 16 at Fri Nov  4 21:01:23 2022.
