 Gaussian 16, Revision B.01,
 Gaussian 16:  ES64L-G16RevB.01 20-Dec-2017

 -------------------------------------------------------------------
 #p b3lyp/6-31g(d) 6D 10F nosymm GFInput td=(50-50,nstate=2) SCF=XQC
 -------------------------------------------------------------------

 ------------------------------
 Gaussian input prepared by ASE
 ------------------------------
 Symbolic Z-matrix:
 Charge =  0 Multiplicity = 1

                          Input orientation:
 ---------------------------------------------------------------------
 Center     Atomic      Atomic             Coordinates (Angstroms)
 Number     Number       Type             X           Y           Z
 ---------------------------------------------------------------------
      1          6           0        2.313899   -1.915056   -3.070712
      2          6           0        2.063832   -0.855806   -1.998919
      3          8           0        3.339391   -0.542589   -1.448187
      4          6           0        3.462478    0.507214   -0.587876
      5          6           0        4.726659    0.706250   -0.020223
      6          6           0        4.906531    1.776948    0.845259
      7          6           0        3.821773    2.616498    1.119259
      8          7           0        2.611684    2.436097    0.584572
      9          6           0        2.440230    1.403609   -0.251110
     10          6           0        1.122964   -1.433290   -0.917470
     11          8           0        1.528430   -2.169764   -0.039105
     12          7           0       -0.204555   -1.109095   -1.115872
     13          6           0       -1.281217   -1.596116   -0.345693
     14          6           0       -1.474368   -2.966033   -0.151449
     15          9           0       -0.591318   -3.827991   -0.685136
     16          6           0       -2.574920   -3.467915    0.530333
     17          6           0       -3.535063   -2.572609    0.997262
     18          6           0       -3.380403   -1.199941    0.801409
     19          6           0       -2.253499   -0.690999    0.140615
     20          7           0       -2.023647    0.693905   -0.116418
     21          6           0       -1.090529    1.347185    0.840302
     22          6           0       -1.984962    1.868913    1.982961
     23          6           0       -3.321000    2.226060    1.281514
     24          6           0       -3.197094    1.588228   -0.134092
     25          1           0        2.754374   -2.802771   -2.608530
     26          1           0        1.373289   -2.197526   -3.553257
     27          1           0        3.001822   -1.526470   -3.827412
     28          1           0        1.626662    0.042401   -2.459834
     29          1           0        5.530474    0.019413   -0.266460
     30          1           0        5.873148    1.960141    1.305626
     31          1           0        3.930867    3.463154    1.794148
     32          1           0        1.440055    1.291249   -0.656943
     33          1           0       -0.423070   -0.248315   -1.608352
     34          1           0       -2.671045   -4.540457    0.659342
     35          1           0       -4.407551   -2.945946    1.525390
     36          1           0       -4.133390   -0.518547    1.182582
     37          1           0       -0.320909    0.647126    1.169959
     38          1           0       -0.594926    2.183425    0.331764
     39          1           0       -2.139800    1.075765    2.722150
     40          1           0       -1.533060    2.719652    2.501714
     41          1           0       -4.178892    1.828516    1.833753
     42          1           0       -3.464935    3.308588    1.204437
     43          1           0       -3.001576    2.370995   -0.877247
     44          1           0       -4.086829    1.045902   -0.460807
 ---------------------------------------------------------------------

 SCF Done:  E(RB3LYP) =  -1112.48296399     A.U. after   15 cycles

 Excitation energies and oscillator strengths:

 Excited state symmetry could not be determined.
 Excited State   1:      Triplet-?Sym    3.4765 eV  356.64 nm  f=0.0000  <S**2>=2.000
      82 -> 89        -0.10788
      82 -> 90        -0.12853
      85 -> 88        -0.11033
      85 -> 89        -0.18896
      85 -> 90         0.23670
      86 -> 90        -0.13239
      87 -> 88         0.24441
      87 -> 89         0.45850
      87 -> 90         0.19238
 This state for optimization and/or second-order correction.
 Total Energy, E(TD-HF/TD-DFT) =  -1112.35520509
 Copying the excited state density for this state as the 1-particle RhoCI density.

 Excited state symmetry could not be determined.
 Excited State   2:      Triplet-?Sym    3.7899 eV  327.14 nm  f=0.0000  <S**2>=2.000
      81 -> 88        -0.30547
      81 -> 89         0.14349
      83 -> 91         0.10211
      85 -> 88         0.16234
      85 -> 91        -0.20506
      86 -> 88         0.32233
      86 -> 89        -0.14780
      86 -> 91        -0.39397

 Excited state symmetry could not be determined.
 Excited State   3:      Singlet-?Sym    4.6373 eV  267.36 nm  f=0.0594  <S**2>=0.000
      85 -> 89         0.11589
      87 -> 88         0.63578
      87 -> 89         0.19687
      87 -> 90        -0.14441

 Excited state symmetry could not be determined.
 Excited State   4:      Singlet-?Sym    4.8029 eV  258.14 nm  f=0.0041  <S**2>=0.000
      85 -> 88         0.13391
      85 -> 89         0.17872
      85 -> 90         0.10946
      86 -> 88        -0.14005
      86 -> 89        -0.11818
      87 -> 88        -0.29120
      87 -> 89         0.47312
      87 -> 90        -0.29239

 Alpha  occ. eigenvalues --  -24.70152 -19.18454 -19.11944 -14.37356 -14.34595
 Alpha  occ. eigenvalues --  -14.32986 -10.29110 -10.27205 -10.26208 -10.25518
 Alpha  occ. eigenvalues --  -10.23441 -10.23315 -10.21828 -10.21799 -10.21409
 Alpha  occ. eigenvalues --  -10.21408 -10.20112 -10.19875 -10.19831 -10.19321
 Alpha  occ. eigenvalues --  -10.19305 -10.19040 -10.18850 -10.18645  -1.21415
 Alpha  occ. eigenvalues --   -1.07622  -1.03588  -0.95813  -0.93585  -0.92952
 Alpha  occ. eigenvalues --   -0.85247  -0.81236  -0.78595  -0.77950  -0.75241
 Alpha  occ. eigenvalues --   -0.74057  -0.73267  -0.72943  -0.66835  -0.64525
 Alpha  occ. eigenvalues --   -0.64202  -0.62658  -0.60632  -0.59017  -0.58578
 Alpha  occ. eigenvalues --   -0.57921  -0.55038  -0.53543  -0.52641  -0.51148
 Alpha  occ. eigenvalues --   -0.50508  -0.49799  -0.49112  -0.48815  -0.47696
 Alpha  occ. eigenvalues --   -0.46047  -0.45514  -0.44779  -0.44097  -0.43593
 Alpha  occ. eigenvalues --   -0.43308  -0.42210  -0.40863  -0.40682  -0.40350
 Alpha  occ. eigenvalues --   -0.40071  -0.39524  -0.38759  -0.38459  -0.38244
 Alpha  occ. eigenvalues --   -0.37253  -0.36680  -0.35850  -0.35320  -0.34982
 Alpha  occ. eigenvalues --   -0.34927  -0.34712  -0.33900  -0.32949  -0.29700
 Alpha  occ. eigenvalues --   -0.27701  -0.27043  -0.25559  -0.25114  -0.23218
 Alpha  occ. eigenvalues --   -0.22975  -0.21352
 Alpha virt. eigenvalues --   -0.02314  -0.01358   0.00148   0.00377   0.02741
 Alpha virt. eigenvalues --    0.06147   0.07444   0.08991   0.09699   0.10230
 Alpha virt. eigenvalues --    0.12217   0.13253   0.13651   0.13802   0.14471

 Mulliken charges:
               1
     1  C   -0.460561
     2  C    0.057723
     3  O   -0.523707
     4  C    0.387761
     5  C   -0.147190
     6  C   -0.139762
     7  C    0.029125
     8  N   -0.428783
     9  C   -0.016345
    10  C    0.584542
    11  O   -0.486188
    12  N   -0.704518
    13  C    0.224810
    14  C    0.370404
    15  F   -0.281751
    16  C   -0.206421
    17  C   -0.138257
    18  C   -0.188519
    19  C    0.257353
    20  N   -0.503533
    21  C   -0.171871
    22  C   -0.278630
    23  C   -0.293547
    24  C   -0.147493
    25  H    0.187274
    26  H    0.159410
    27  H    0.164576
    28  H    0.131383
    29  H    0.154864
    30  H    0.138892
    31  H    0.137741
    32  H    0.130258
    33  H    0.340425
    34  H    0.146537
    35  H    0.137268
    36  H    0.132535
    37  H    0.176991
    38  H    0.163915
    39  H    0.152636
    40  H    0.152670
    41  H    0.145730
    42  H    0.145729
    43  H    0.151494
    44  H    0.155029
 Sum of Mulliken charges =  -0.00000

 Dipole moment (field-independent basis, Debye):
    X=             -2.3373    Y=              2.1471    Z=             -1.0484  Tot=              3.3425
 Quadrupole moment (field-independent basis, Debye-Ang):
   XX=           -122.0877   YY=           -144.3441   ZZ=           -132.6846
   XY=              4.0245   XZ=             -3.9480   YZ=              2.0305

 Normal termination of Gaussian 16 at Sat Nov  5 11:53:49 2022.
