 Gaussian 16, Revision B.01,
 Gaussian 16:  ES64L-G16RevB.01 20-Dec-2017

 -----------------------------
 #p b3lyp/6-31g(d) opt SCF=XQC
 -----------------------------

 ------------------------------
 Gaussian input prepared by ASE
 ------------------------------
 Symbolic Z-matrix:
 Charge =  0 Multiplicity = 1

 SCF Done:  E(RB3LYP) =  -1112.47405125     A.U. after   15 cycles
 SCF Done:  E(RB3LYP) =  -1112.47864912     A.U. after   14 cycles
 SCF Done:  E(RB3LYP) =  -1112.47910098     A.U. after   13 cycles
 SCF Done:  E(RB3LYP) =  -1112.48041349     A.U. after   13 cycles
 SCF Done:  E(RB3LYP) =  -1112.48062273     A.U. after   12 cycles
 SCF Done:  E(RB3LYP) =  -1112.48068179     A.U. after   11 cycles
 SCF Done:  E(RB3LYP) =  -1112.48073534     A.U. after   10 cycles
 SCF Done:  E(RB3LYP) =  -1112.48078220     A.U. after   11 cycles
 SCF Done:  E(RB3LYP) =  -1112.48080978     A.U. after   11 cycles
 SCF Done:  E(RB3LYP) =  -1112.48083358     A.U. after   10 cycles
 SCF Done:  E(RB3LYP) =  -1112.48289265     A.U. after   12 cycles
 SCF Done:  E(RB3LYP) =  -1112.48293334     A.U. after   10 cycles
 SCF Done:  E(RB3LYP) =  -1112.48295034     A.U. after   10 cycles
 SCF Done:  E(RB3LYP) =  -1112.48295416     A.U. after    9 cycles
 SCF Done:  E(RB3LYP) =  -1112.48295628     A.U. after    8 cycles
 SCF Done:  E(RB3LYP) =  -1112.48295779     A.U. after    8 cycles
 SCF Done:  E(RB3LYP) =  -1112.48295915     A.U. after    9 cycles
 SCF Done:  E(RB3LYP) =  -1112.48295959     A.U. after    8 cycles
 SCF Done:  E(RB3LYP) =  -1112.48295974     A.U. after    7 cycles
 SCF Done:  E(RB3LYP) =  -1112.48295979     A.U. after    7 cycles
 Optimization completed.
    -- Stationary point found.

                         Standard orientation:
 ---------------------------------------------------------------------
 Center     Atomic      Atomic             Coordinates (Angstroms)
 Number     Number       Type             X           Y           Z
 ---------------------------------------------------------------------
      1          6           0       -1.972746   -3.067346    1.627592
      2          6           0       -1.873687   -1.635153    1.105775
      3          8           0       -3.107309   -1.369316    0.445499
      4          6           0       -3.389648   -0.102533    0.029665
      5          6           0       -4.580627    0.070516   -0.685612
      6          6           0       -4.922114    1.347392   -1.110797
      7          6           0       -4.066849    2.412867   -0.810956
      8          7           0       -2.928366    2.259812   -0.130381
      9          6           0       -2.601116    1.027683    0.280176
     10          6           0       -0.687243   -1.529469    0.121176
     11          8           0       -0.774231   -1.902100   -1.032904
     12          7           0        0.474944   -1.072153    0.710206
     13          6           0        1.728902   -0.988047    0.069829
     14          6           0        2.293674   -2.094243   -0.569758
     15          9           0        1.604797   -3.248430   -0.599283
     16          6           0        3.563275   -2.055204   -1.130574
     17          6           0        4.308947   -0.884184   -1.011589
     18          6           0        3.780117    0.231042   -0.361123
     19          6           0        2.486082    0.201965    0.177591
     20          7           0        1.874401    1.288853    0.871406
     21          6           0        0.931381    2.089178    0.044975
     22          6           0        1.795826    3.192005   -0.598753
     23          6           0        2.894518    3.473760    0.458635
     24          6           0        2.763793    2.300099    1.474289
     25          1           0       -2.106222   -3.752394    0.785831
     26          1           0       -1.059285   -3.340711    2.164477
     27          1           0       -2.827228   -3.160673    2.304337
     28          1           0       -1.745939   -0.940846    1.949549
     29          1           0       -5.203011   -0.794496   -0.892704
     30          1           0       -5.837502    1.518185   -1.670029
     31          1           0       -4.306336    3.424890   -1.131359
     32          1           0       -1.665133    0.948791    0.823669
     33          1           0        0.399065   -0.465300    1.520885
     34          1           0        3.949795   -2.941102   -1.622525
     35          1           0        5.307533   -0.836418   -1.435946
     36          1           0        4.372169    1.137052   -0.289012
     37          1           0        0.417411    1.455273   -0.679643
     38          1           0        0.176036    2.533309    0.705076
     39          1           0        2.242615    2.816979   -1.525681
     40          1           0        1.207430    4.079120   -0.851527
     41          1           0        3.888433    3.507085    0.000367
     42          1           0        2.741795    4.435016    0.959820
     43          1           0        2.280246    2.656587    2.392074
     44          1           0        3.715511    1.849311    1.763275
 ---------------------------------------------------------------------

 The electronic state is 1-A.
 Alpha  occ. eigenvalues --  -24.70152 -19.18454 -19.11944 -14.37356 -14.34595
 Alpha  occ. eigenvalues --  -14.32986 -10.29110 -10.27205 -10.26208 -10.25518
 Alpha  occ. eigenvalues --  -10.23441 -10.23315 -10.21828 -10.21799 -10.21409
 Alpha  occ. eigenvalues --  -10.21408 -10.20112 -10.19875 -10.19831 -10.19321
 Alpha  occ. eigenvalues --  -10.19305 -10.19040 -10.18850 -10.18645  -1.21415
 Alpha  occ. eigenvalues --   -1.07622  -1.03589  -0.95813  -0.93585  -0.92952
 Alpha  occ. eigenvalues --   -0.85247  -0.81236  -0.78595  -0.77950  -0.75241
 Alpha  occ. eigenvalues --   -0.74057  -0.73267  -0.72944  -0.66835  -0.64525
 Alpha  occ. eigenvalues --   -0.64202  -0.62658  -0.60632  -0.59017  -0.58578
 Alpha  occ. eigenvalues --   -0.57921  -0.55038  -0.53543  -0.52641  -0.51148
 Alpha  occ. eigenvalues --   -0.50508  -0.49799  -0.49112  -0.48815  -0.47696
 Alpha  occ. eigenvalues --   -0.46048  -0.45514  -0.44779  -0.44097  -0.43593
 Alpha  occ. eigenvalues --   -0.43308  -0.42210  -0.40863  -0.40682  -0.40350
 Alpha  occ. eigenvalues --   -0.40071  -0.39524  -0.38759  -0.38459  -0.38244
 Alpha  occ. eigenvalues --   -0.37253  -0.36680  -0.35850  -0.35320  -0.34982
 Alpha  occ. eigenvalues --   -0.34927  -0.34712  -0.33900  -0.32949  -0.29700
 Alpha  occ. eigenvalues --   -0.27701  -0.27043  -0.25559  -0.25114  -0.23218
 Alpha  occ. eigenvalues --   -0.22975  -0.21352
 Alpha virt. eigenvalues --   -0.02314  -0.01358   0.00148   0.00377   0.02741
 Alpha virt. eigenvalues --    0.06147   0.07444   0.08991   0.09699   0.10230
 Alpha virt. eigenvalues --    0.12217   0.13253   0.13651   0.13802   0.14471

 Mulliken charges:
               1
     1  C   -0.460559
     2  C    0.057745
     3  O   -0.523741
     4  C    0.387837
     5  C   -0.147202
     6  C   -0.139758
     7  C    0.029127
     8  N   -0.428781
     9  C   -0.016386
    10  C    0.584489
    11  O   -0.486168
    12  N   -0.704508
    13  C    0.224808
    14  C    0.370410
    15  F   -0.281750
    16  C   -0.206432
    17  C   -0.138256
    18  C   -0.188523
    19  C    0.257382
    20  N   -0.503568
    21  C   -0.171863
    22  C   -0.278622
    23  C   -0.293550
    24  C   -0.147494
    25  H    0.187274
    26  H    0.159410
    27  H    0.164576
    28  H    0.131383
    29  H    0.154865
    30  H    0.138891
    31  H    0.137739
    32  H    0.130263
    33  H    0.340427
    34  H    0.146539
    35  H    0.137269
    36  H    0.132538
    37  H    0.176989
    38  H    0.163914
    39  H    0.152634
    40  H    0.152669
    41  H    0.145731
    42  H    0.145729
    43  H    0.151496
    44  H    0.155030
 Sum of Mulliken charges =  -0.00000

 Dipole moment (field-independent basis, Debye):
    X=              1.5496    Y=              1.9244    Z=              2.2511  Tot=              3.3424
 Quadrupole moment (field-independent basis, Debye-Ang):
   XX=           -120.5302   YY=           -139.5468   ZZ=           -137.0305
   XY=              3.7961   XZ=             -0.1970   YZ=             -5.2287

 Normal termination of Gaussian 16 at Fri Nov  4 19:34:58 2022.
