 Gaussian 16, Revision B.01,
 Gaussian 16:  ES64L-G16RevB.01 20-Dec-2017

 -----------------------------
 #p b3lyp/6-31g(d) opt SCF=XQC
 -----------------------------

 ------------------------------
 Gaussian input prepared by ASE
 ------------------------------
 Symbolic Z-matrix:
 Charge =  0 Multiplicity = 1

 SCF Done:  E(RB3LYP) =  -1032.67940623     A.U. after   14 cycles
 SCF Done:  E(RB3LYP) =  -1032.68454713     A.U. after   12 cycles
 SCF Done:  E(RB3LYP) =  -1032.68529602     A.U. after   12 cycles
 SCF Done:  E(RB3LYP) =  -1032.68575574     A.U. after   11 cycles
 SCF Done:  E(RB3LYP) =  -1032.68631525     A.U. after   12 cycles
 SCF Done:  E(RB3LYP) =  -1032.68619751     A.U. after   13 cycles
 SCF Done:  E(RB3LYP) =  -1032.68674283     A.U. after   12 cycles
 SCF Done:  E(RB3LYP) =  -1032.68661161     A.U. after   11 cycles
 SCF Done:  E(RB3LYP) =  -1032.68703349     A.U. after   12 cycles
 SCF Done:  E(RB3LYP) =  -1032.68693927     A.U. after   11 cycles
 SCF Done:  E(RB3LYP) =  -1032.68780609     A.U. after   11 cycles
 SCF Done:  E(RB3LYP) =  -1032.68789362     A.U. after   10 cycles
 SCF Done:  E(RB3LYP) =  -1032.68794291     A.U. after   10 cycles
 SCF Done:  E(RB3LYP) =  -1032.68794669     A.U. after    9 cycles
 SCF Done:  E(RB3LYP) =  -1032.68795268     A.U. after    9 cycles
 SCF Done:  E(RB3LYP) =  -1032.68795503     A.U. after    9 cycles
 SCF Done:  E(RB3LYP) =  -1032.68795658     A.U. after    8 cycles
 SCF Done:  E(RB3LYP) =  -1032.68795768     A.U. after    8 cycles
 SCF Done:  E(RB3LYP) =  -1032.68795778     A.U. after    7 cycles
 SCF Done:  E(RB3LYP) =  -1032.68795780     A.U. after    6 cycles
 Optimization completed.
    -- Stationary point found.

                         Standard orientation:
 ---------------------------------------------------------------------
 Center     Atomic      Atomic             Coordinates (Angstroms)
 Number     Number       Type             X           Y           Z
 ---------------------------------------------------------------------
      1          6           0       -1.091789    3.803748   -0.366555
      2          6           0       -1.159740    2.306759   -0.213413
      3          6           0       -0.016177    1.538622   -0.051781
      4          6           0       -0.179552    0.136559    0.077829
      5          7           0        0.876066   -0.731812    0.229651
      6          6           0        0.588978   -2.149320    0.442485
      7          6           0        2.244427   -0.294422   -0.019031
      8          6           0        3.303558   -1.301808   -0.568176
      9          6           0        3.779696   -1.124932   -2.022983
     10          6           0        5.094244   -0.325165   -1.847428
     11          8           0        5.001527    0.324689   -0.577637
     12          6           0        4.357136   -0.578380    0.312803
     13          6           0        3.231746    0.091257    1.154714
     14          6           0        2.979384   -0.692119    2.446578
     15          6           0        3.394748    1.581228    1.447696
     16          7           0       -1.415953   -0.396476    0.066862
     17          6           0       -2.454048    0.436038   -0.081235
     18          6           0       -3.812391   -0.179081   -0.084189
     19          6           0       -3.990043   -1.563221    0.027806
     20          6           0       -5.284533   -2.079048    0.020434
     21          7           0       -6.390259   -1.330184   -0.087949
     22          6           0       -6.209244   -0.006613   -0.195636
     23          6           0       -4.961275    0.613107   -0.200009
     24          7           0       -2.393033    1.762886   -0.234043
     25          1           0       -0.063478    4.174127   -0.323880
     26          1           0       -1.676944    4.289967    0.421914
     27          1           0       -1.535471    4.103415   -1.322801
     28          1           0        0.952513    2.016666    0.000356
     29          1           0        0.467973   -2.692562   -0.504725
     30          1           0        1.398503   -2.608476    1.010851
     31          1           0       -0.337039   -2.246818    1.006715
     32          1           0        2.199719    0.544374   -0.717395
     33          1           0        3.116649   -2.339994   -0.292515
     34          1           0        3.954813   -2.079648   -2.529421
     35          1           0        3.047803   -0.567010   -2.616903
     36          1           0        5.249635    0.451404   -2.601493
     37          1           0        5.962804   -1.002482   -1.864874
     38          1           0        5.094648   -1.183838    0.860068
     39          1           0        2.005201   -0.433909    2.876548
     40          1           0        3.751009   -0.453107    3.188148
     41          1           0        3.001058   -1.777349    2.295137
     42          1           0        3.598637    2.144831    0.532459
     43          1           0        2.492061    1.987183    1.920453
     44          1           0        4.232964    1.753077    2.134152
     45          1           0       -3.128864   -2.215239    0.115345
     46          1           0       -5.443417   -3.153213    0.105959
     47          1           0       -7.114795    0.592036   -0.283485
     48          1           0       -4.866695    1.688899   -0.290616
 ---------------------------------------------------------------------

 The electronic state is 1-A.
 Alpha  occ. eigenvalues --  -19.15453 -14.37056 -14.32300 -14.31810 -14.31695
 Alpha  occ. eigenvalues --  -10.27189 -10.25715 -10.23968 -10.23773 -10.23755
 Alpha  occ. eigenvalues --  -10.23355 -10.21825 -10.21001 -10.20935 -10.20546
 Alpha  occ. eigenvalues --  -10.20429 -10.20165 -10.19841 -10.19217 -10.18668
 Alpha  occ. eigenvalues --  -10.18611 -10.18531 -10.18383 -10.17814  -1.04512
 Alpha  occ. eigenvalues --   -0.99210  -0.95042  -0.92627  -0.87776  -0.84862
 Alpha  occ. eigenvalues --   -0.81417  -0.78512  -0.77499  -0.74767  -0.73732
 Alpha  occ. eigenvalues --   -0.73352  -0.70482  -0.69312  -0.67991  -0.65514
 Alpha  occ. eigenvalues --   -0.62545  -0.61823  -0.59461  -0.58755  -0.58721
 Alpha  occ. eigenvalues --   -0.54463  -0.53195  -0.52015  -0.50330  -0.49263
 Alpha  occ. eigenvalues --   -0.49211  -0.47413  -0.46703  -0.46171  -0.45908
 Alpha  occ. eigenvalues --   -0.45342  -0.44457  -0.44070  -0.43434  -0.43052
 Alpha  occ. eigenvalues --   -0.42293  -0.41686  -0.41244  -0.40604  -0.40289
 Alpha  occ. eigenvalues --   -0.39537  -0.38993  -0.38643  -0.38292  -0.37839
 Alpha  occ. eigenvalues --   -0.37747  -0.36254  -0.35138  -0.34829  -0.34613
 Alpha  occ. eigenvalues --   -0.33470  -0.32207  -0.31570  -0.29964  -0.29457
 Alpha  occ. eigenvalues --   -0.29316  -0.26101  -0.25094  -0.24903  -0.24550
 Alpha  occ. eigenvalues --   -0.24331  -0.21676
 Alpha virt. eigenvalues --   -0.04971  -0.01597   0.00658   0.03255   0.06570
 Alpha virt. eigenvalues --    0.07917   0.08317   0.09707   0.10481   0.11547
 Alpha virt. eigenvalues --    0.11886   0.12327   0.12713   0.13033   0.13292

 Mulliken charges:
               1
     1  C   -0.511329
     2  C    0.326885
     3  C   -0.243138
     4  C    0.555913
     5  N   -0.494565
     6  C   -0.313958
     7  C    0.028685
     8  C   -0.149091
     9  C   -0.308616
    10  C   -0.026606
    11  O   -0.492441
    12  C    0.120248
    13  C    0.091658
    14  C   -0.472607
    15  C   -0.464121
    16  N   -0.588315
    17  C    0.435823
    18  C    0.104672
    19  C   -0.173807
    20  C    0.030946
    21  N   -0.408013
    22  C    0.030725
    23  C   -0.171641
    24  N   -0.538040
    25  H    0.150864
    26  H    0.175683
    27  H    0.175578
    28  H    0.148442
    29  H    0.156149
    30  H    0.153796
    31  H    0.195310
    32  H    0.147720
    33  H    0.138970
    34  H    0.146907
    35  H    0.153999
    36  H    0.149624
    37  H    0.131004
    38  H    0.120901
    39  H    0.158644
    40  H    0.151594
    41  H    0.140453
    42  H    0.159030
    43  H    0.145696
    44  H    0.147697
    45  H    0.151176
    46  H    0.134823
    47  H    0.136712
    48  H    0.159963
 Sum of Mulliken charges =  -0.00000

 Dipole moment (field-independent basis, Debye):
    X=              5.6987    Y=             -0.4409    Z=             -0.3002  Tot=              5.7236
 Quadrupole moment (field-independent basis, Debye-Ang):
   XX=           -168.8314   YY=           -132.8065   ZZ=           -139.1433
   XY=            -13.6338   XZ=             -2.9753   YZ=             -0.6945

 Normal termination of Gaussian 16 at Fri Nov  4 19:52:20 2022.
