 Gaussian 16, Revision B.01,
 Gaussian 16:  ES64L-G16RevB.01 20-Dec-2017

 -------------------------------------------------------------------
 #p b3lyp/6-31g(d) 6D 10F nosymm GFInput td=(50-50,nstate=2) SCF=XQC
 -------------------------------------------------------------------

 ------------------------------
 Gaussian input prepared by ASE
 ------------------------------
 Symbolic Z-matrix:
 Charge =  0 Multiplicity = 1

                          Input orientation:
 ---------------------------------------------------------------------
 Center     Atomic      Atomic             Coordinates (Angstroms)
 Number     Number       Type             X           Y           Z
 ---------------------------------------------------------------------
      1          6           0        1.461059   -3.736722    1.002706
      2          6           0        1.558007   -2.296694    0.571470
      3          6           0        0.443792   -1.471509    0.532816
      4          6           0        0.632414   -0.132646    0.107212
      5          7           0       -0.394371    0.777527    0.013687
      6          6           0       -0.074123    2.156149   -0.352221
      7          6           0       -1.784849    0.343257    0.073212
      8          6           0       -2.884657    1.119098   -0.718392
      9          6           0       -3.506954    0.431428   -1.948966
     10          6           0       -4.804396   -0.181518   -1.366365
     11          8           0       -4.589897   -0.310661    0.040969
     12          6           0       -3.850501    0.829465    0.461759
     13          6           0       -2.652067    0.473085    1.389381
     14          6           0       -2.263232    1.671456    2.260582
     15          6           0       -2.798439   -0.788508    2.237544
     16          7           0        1.866268    0.298844   -0.215827
     17          6           0        2.876329   -0.575919   -0.130856
     18          6           0        4.233067   -0.071140   -0.488539
     19          6           0        4.433946    1.243852   -0.924879
     20          6           0        5.725793    1.658048   -1.243327
     21          7           0        6.807923    0.872465   -1.159495
     22          6           0        6.604695   -0.384685   -0.741793
     23          6           0        5.356979   -0.901635   -0.399059
     24          7           0        2.787893   -1.858654    0.235709
     25          1           0        0.438933   -4.015471    1.274700
     26          1           0        2.118346   -3.918126    1.860357
     27          1           0        1.803067   -4.393876    0.195092
     28          1           0       -0.519063   -1.849155    0.848881
     29          1           0       -0.044402    2.297724   -1.441273
     30          1           0       -0.817794    2.832411    0.070646
     31          1           0        0.905022    2.414945    0.047362
     32          1           0       -1.818700   -0.697475   -0.256972
     33          1           0       -2.661240    2.174868   -0.873925
     34          1           0       -3.723484    1.133221   -2.760896
     35          1           0       -2.844012   -0.342222   -2.351031
     36          1           0       -5.042365   -1.176207   -1.753386
     37          1           0       -5.663960    0.479506   -1.560418
     38          1           0       -4.523307    1.629864    0.803367
     39          1           0       -1.253030    1.548326    2.666673
     40          1           0       -2.958171    1.764706    3.103684
     41          1           0       -2.290035    2.620170    1.712537
     42          1           0       -3.098965   -1.644305    1.625848
     43          1           0       -1.856410   -1.028993    2.745374
     44          1           0       -3.564571   -0.650666    3.010460
     45          1           0        3.592097    1.920530   -1.013303
     46          1           0        5.902453    2.677046   -1.585121
     47          1           0        7.491150   -1.014151   -0.677835
     48          1           0        5.243762   -1.927054   -0.067121
 ---------------------------------------------------------------------

 SCF Done:  E(RB3LYP) =  -1032.68795496     A.U. after   14 cycles

 Excitation energies and oscillator strengths:

 Excited state symmetry could not be determined.
 Excited State   1:      Triplet-?Sym    3.1802 eV  389.86 nm  f=0.0000  <S**2>=2.000
      83 -> 88        -0.31775
      84 -> 88        -0.11833
      84 -> 90         0.12491
      87 -> 88         0.56356
      87 -> 91         0.10782
 This state for optimization and/or second-order correction.
 Total Energy, E(TD-HF/TD-DFT) =  -1032.57108373
 Copying the excited state density for this state as the 1-particle RhoCI density.

 Excited state symmetry could not be determined.
 Excited State   2:      Triplet-?Sym    3.6721 eV  337.64 nm  f=0.0000  <S**2>=2.000
      82 -> 88         0.19186
      83 -> 88         0.35658
      84 -> 88         0.21735
      84 -> 89        -0.10042
      84 -> 90        -0.24557
      86 -> 88         0.12043
      87 -> 88         0.36883
      87 -> 89        -0.10828

 Excited state symmetry could not be determined.
 Excited State   3:      Singlet-?Sym    3.9732 eV  312.05 nm  f=0.0316  <S**2>=0.000
      87 -> 88         0.68911
      87 -> 89        -0.10132

 Excited state symmetry could not be determined.
 Excited State   4:      Singlet-?Sym    4.1620 eV  297.90 nm  f=0.0003  <S**2>=0.000
      85 -> 88         0.61870
      86 -> 88        -0.32454

 Alpha  occ. eigenvalues --  -19.15453 -14.37056 -14.32299 -14.31810 -14.31695
 Alpha  occ. eigenvalues --  -10.27189 -10.25715 -10.23968 -10.23773 -10.23755
 Alpha  occ. eigenvalues --  -10.23355 -10.21825 -10.21001 -10.20935 -10.20546
 Alpha  occ. eigenvalues --  -10.20429 -10.20165 -10.19841 -10.19217 -10.18668
 Alpha  occ. eigenvalues --  -10.18611 -10.18531 -10.18383 -10.17814  -1.04512
 Alpha  occ. eigenvalues --   -0.99210  -0.95042  -0.92627  -0.87776  -0.84862
 Alpha  occ. eigenvalues --   -0.81417  -0.78512  -0.77499  -0.74767  -0.73732
 Alpha  occ. eigenvalues --   -0.73353  -0.70482  -0.69312  -0.67991  -0.65514
 Alpha  occ. eigenvalues --   -0.62545  -0.61823  -0.59461  -0.58755  -0.58721
 Alpha  occ. eigenvalues --   -0.54463  -0.53195  -0.52015  -0.50330  -0.49263
 Alpha  occ. eigenvalues --   -0.49211  -0.47413  -0.46703  -0.46171  -0.45908
 Alpha  occ. eigenvalues --   -0.45342  -0.44457  -0.44070  -0.43434  -0.43052
 Alpha  occ. eigenvalues --   -0.42293  -0.41686  -0.41244  -0.40604  -0.40289
 Alpha  occ. eigenvalues --   -0.39537  -0.38993  -0.38643  -0.38292  -0.37839
 Alpha  occ. eigenvalues --   -0.37747  -0.36254  -0.35138  -0.34829  -0.34613
 Alpha  occ. eigenvalues --   -0.33470  -0.32207  -0.31570  -0.29964  -0.29457
 Alpha  occ. eigenvalues --   -0.29316  -0.26101  -0.25094  -0.24903  -0.24550
 Alpha  occ. eigenvalues --   -0.24331  -0.21676
 Alpha virt. eigenvalues --   -0.04971  -0.01597   0.00658   0.03255   0.06570
 Alpha virt. eigenvalues --    0.07918   0.08317   0.09707   0.10481   0.11547
 Alpha virt. eigenvalues --    0.11886   0.12327   0.12713   0.13033   0.13292

 Mulliken charges:
               1
     1  C   -0.511324
     2  C    0.326867
     3  C   -0.243123
     4  C    0.555902
     5  N   -0.494591
     6  C   -0.313964
     7  C    0.028786
     8  C   -0.149115
     9  C   -0.308624
    10  C   -0.026594
    11  O   -0.492445
    12  C    0.120247
    13  C    0.091634
    14  C   -0.472612
    15  C   -0.464126
    16  N   -0.588317
    17  C    0.435817
    18  C    0.104665
    19  C   -0.173796
    20  C    0.030936
    21  N   -0.408013
    22  C    0.030728
    23  C   -0.171635
    24  N   -0.538031
    25  H    0.150863
    26  H    0.175683
    27  H    0.175578
    28  H    0.148441
    29  H    0.156149
    30  H    0.153795
    31  H    0.195312
    32  H    0.147713
    33  H    0.138970
    34  H    0.146907
    35  H    0.154000
    36  H    0.149622
    37  H    0.131002
    38  H    0.120901
    39  H    0.158643
    40  H    0.151596
    41  H    0.140455
    42  H    0.159032
    43  H    0.145695
    44  H    0.147696
    45  H    0.151176
    46  H    0.134824
    47  H    0.136712
    48  H    0.159961
 Sum of Mulliken charges =  -0.00000

 Dipole moment (field-independent basis, Debye):
    X=             -5.6956    Y=              0.5618    Z=              0.0698  Tot=              5.7237
 Quadrupole moment (field-independent basis, Debye-Ang):
   XX=           -173.2714   YY=           -132.2506   ZZ=           -140.3838
   XY=             -9.5442   XZ=             10.4890   YZ=             -1.1853

 Normal termination of Gaussian 16 at Sat Nov  5 11:48:54 2022.
