 Gaussian 16, Revision B.01,
 Gaussian 16:  ES64L-G16RevB.01 20-Dec-2017

 -----------------------------
 #p b3lyp/6-31g(d) opt SCF=XQC
 -----------------------------

 ------------------------------
 Gaussian input prepared by ASE
 ------------------------------
 Symbolic Z-matrix:
 Charge =  0 Multiplicity = 1

 SCF Done:  E(RB3LYP) =  -1774.86742925     A.U. after   14 cycles
 SCF Done:  E(RB3LYP) =  -1774.87404672     A.U. after   14 cycles
 SCF Done:  E(RB3LYP) =  -1774.87955710     A.U. after   14 cycles
 SCF Done:  E(RB3LYP) =  -1774.88192926     A.U. after   12 cycles
 SCF Done:  E(RB3LYP) =  -1774.88170492     A.U. after   12 cycles
 SCF Done:  E(RB3LYP) =  -1774.88311789     A.U. after   12 cycles
 SCF Done:  E(RB3LYP) =  -1774.88334321     A.U. after   12 cycles
 SCF Done:  E(RB3LYP) =  -1774.88333735     A.U. after   12 cycles
 SCF Done:  E(RB3LYP) =  -1774.88365461     A.U. after   12 cycles
 SCF Done:  E(RB3LYP) =  -1774.88372961     A.U. after   11 cycles
 SCF Done:  E(RB3LYP) =  -1774.88478101     A.U. after   10 cycles
 SCF Done:  E(RB3LYP) =  -1774.88478224     A.U. after    9 cycles
 SCF Done:  E(RB3LYP) =  -1774.88478322     A.U. after    8 cycles
 SCF Done:  E(RB3LYP) =  -1774.88478391     A.U. after    9 cycles
 SCF Done:  E(RB3LYP) =  -1774.88478409     A.U. after    8 cycles
 SCF Done:  E(RB3LYP) =  -1774.88478415     A.U. after    7 cycles
 SCF Done:  E(RB3LYP) =  -1774.88478419     A.U. after    7 cycles
 SCF Done:  E(RB3LYP) =  -1774.88478419     A.U. after    7 cycles
 SCF Done:  E(RB3LYP) =  -1774.88478421     A.U. after    7 cycles
 SCF Done:  E(RB3LYP) =  -1774.88478422     A.U. after    7 cycles
 Optimization completed.
    -- Stationary point found.

                         Standard orientation:
 ---------------------------------------------------------------------
 Center     Atomic      Atomic             Coordinates (Angstroms)
 Number     Number       Type             X           Y           Z
 ---------------------------------------------------------------------
      1          6           0       -5.650356    4.177548   -0.402833
      2          6           0       -6.120268    3.019595   -1.276446
      3          8           0       -6.152019    1.774782   -0.567870
      4          6           0       -5.007823    1.060059   -0.387825
      5          6           0       -5.153517   -0.127098    0.348707
      6          6           0       -4.057638   -0.948054    0.574786
      7          6           0       -2.791724   -0.598714    0.083151
      8          7           0       -1.655407   -1.439794    0.363442
      9          6           0       -1.029324   -1.327514    1.712634
     10          6           0       -0.577137   -2.649190    2.350309
     11          6           0        0.065579   -0.232663    1.827163
     12          8           0       -0.042693    0.603600    2.716507
     13          7           0        1.102901   -0.314079    0.936712
     14          6           0        2.219046    0.553929    0.832345
     15          6           0        2.186382    1.838265    1.392883
     16          6           0        3.282284    2.684281    1.253411
     17          6           0        4.404265    2.267005    0.551675
     18          6           0        4.444345    0.985689   -0.022943
     19          6           0        5.655871    0.618082   -0.819267
     20          8           0        5.719542   -0.223065   -1.696073
     21          8           0        6.732788    1.368658   -0.470325
     22          6           0        7.921505    1.118731   -1.232572
     23          6           0        3.356283    0.094182    0.123243
     24          6           0        3.371103   -1.324526   -0.401555
     25         16           0       -1.077357   -2.417040   -0.872776
     26          6           0       -1.987468   -3.970900   -0.744567
     27          8           0        0.333603   -2.714308   -0.559471
     28          8           0       -1.440117   -1.813866   -2.153019
     29          6           0       -2.647910    0.584305   -0.643063
     30          6           0       -3.744309    1.412134   -0.883510
     31          1           0       -5.708178    5.116756   -0.964935
     32          1           0       -4.617303    4.042633   -0.068308
     33          1           0       -6.287128    4.265814    0.483041
     34          1           0       -5.513779    2.921281   -2.185497
     35          1           0       -7.156737    3.174757   -1.588797
     36          1           0       -6.138085   -0.384965    0.725284
     37          1           0       -4.176823   -1.865814    1.145008
     38          1           0       -1.830061   -0.924999    2.335209
     39          1           0       -1.419617   -3.346517    2.419981
     40          1           0        0.235971   -3.125701    1.800706
     41          1           0       -0.232404   -2.437880    3.367596
     42          1           0        1.071593   -1.101973    0.293765
     43          1           0        1.310594    2.151043    1.943080
     44          1           0        3.251009    3.677764    1.691807
     45          1           0        5.255861    2.925302    0.432957
     46          1           0        8.244106    0.080798   -1.114067
     47          1           0        8.672520    1.801217   -0.832799
     48          1           0        7.749654    1.314656   -2.294628
     49          1           0        4.367248   -1.629590   -0.710168
     50          1           0        3.007479   -2.021076    0.362541
     51          1           0        2.717969   -1.441523   -1.275768
     52          1           0       -1.767363   -4.438802    0.215805
     53          1           0       -1.653628   -4.607830   -1.567063
     54          1           0       -3.052302   -3.752248   -0.844477
     55          1           0       -1.671332    0.855488   -1.029177
     56          1           0       -3.597993    2.323863   -1.450123
 ---------------------------------------------------------------------

 The electronic state is 1-A.
 Alpha  occ. eigenvalues --  -89.12570 -19.18475 -19.18407 -19.15705 -19.15122
 Alpha  occ. eigenvalues --  -19.12646 -19.11858 -14.38277 -14.36619 -10.30803
 Alpha  occ. eigenvalues --  -10.29087 -10.26121 -10.25220 -10.25067 -10.23550
 Alpha  occ. eigenvalues --  -10.23432 -10.23324 -10.22938 -10.20644 -10.20303
 Alpha  occ. eigenvalues --  -10.20290 -10.19900 -10.19806 -10.19706 -10.19681
 Alpha  occ. eigenvalues --  -10.19083 -10.18403 -10.18322 -10.18191 -10.16754
 Alpha  occ. eigenvalues --   -8.15043  -6.11553  -6.11474  -6.11332  -1.12236
 Alpha  occ. eigenvalues --   -1.09335  -1.07055  -1.03694  -1.01277  -1.00331
 Alpha  occ. eigenvalues --   -0.95165  -0.93398  -0.85820  -0.84825  -0.79422
 Alpha  occ. eigenvalues --   -0.78760  -0.77188  -0.76892  -0.75956  -0.75692
 Alpha  occ. eigenvalues --   -0.73077  -0.71449  -0.68225  -0.67396  -0.65936
 Alpha  occ. eigenvalues --   -0.64042  -0.62690  -0.61458  -0.60048  -0.58472
 Alpha  occ. eigenvalues --   -0.57619  -0.54997  -0.54787  -0.54171  -0.52695
 Alpha  occ. eigenvalues --   -0.52189  -0.50534  -0.49281  -0.48850  -0.47610
 Alpha  occ. eigenvalues --   -0.47504  -0.47097  -0.46664  -0.46374  -0.45902
 Alpha  occ. eigenvalues --   -0.45471  -0.44969  -0.44691  -0.44542  -0.44152
 Alpha  occ. eigenvalues --   -0.43861  -0.43136  -0.42373  -0.41743  -0.41488
 Alpha  occ. eigenvalues --   -0.41068  -0.40336  -0.40252  -0.39709  -0.39096
 Alpha  occ. eigenvalues --   -0.38882  -0.38528  -0.38125  -0.37854  -0.37612
 Alpha  occ. eigenvalues --   -0.36391  -0.35636  -0.35566  -0.34798  -0.34478
 Alpha  occ. eigenvalues --   -0.33842  -0.33362  -0.32989  -0.32486  -0.31789
 Alpha  occ. eigenvalues --   -0.30900  -0.29713  -0.29342  -0.28398  -0.26335
 Alpha  occ. eigenvalues --   -0.26260  -0.24545  -0.24010  -0.22629  -0.21481
 Alpha virt. eigenvalues --   -0.03182  -0.01660  -0.01185  -0.00636   0.02981
 Alpha virt. eigenvalues --    0.05617   0.06372   0.07330   0.07520   0.08266
 Alpha virt. eigenvalues --    0.08684   0.09791   0.10013   0.10876   0.11353

 Mulliken charges:
               1
     1  C   -0.464328
     2  C   -0.042052
     3  O   -0.519383
     4  C    0.394994
     5  C   -0.186296
     6  C   -0.142523
     7  C    0.247618
     8  N   -0.689150
     9  C   -0.045002
    10  C   -0.487626
    11  C    0.614551
    12  O   -0.506473
    13  N   -0.756928
    14  C    0.264756
    15  C   -0.142094
    16  C   -0.154290
    17  C   -0.150869
    18  C   -0.001996
    19  C    0.565660
    20  O   -0.492713
    21  O   -0.459864
    22  C   -0.213411
    23  C    0.105612
    24  C   -0.555566
    25  S    1.237474
    26  C   -0.626349
    27  O   -0.579073
    28  O   -0.511310
    29  C   -0.115908
    30  C   -0.207324
    31  H    0.152453
    32  H    0.166555
    33  H    0.166684
    34  H    0.148271
    35  H    0.160676
    36  H    0.144748
    37  H    0.130534
    38  H    0.189039
    39  H    0.149563
    40  H    0.193091
    41  H    0.178419
    42  H    0.412084
    43  H    0.181349
    44  H    0.132522
    45  H    0.150142
    46  H    0.168637
    47  H    0.161541
    48  H    0.168804
    49  H    0.195173
    50  H    0.153843
    51  H    0.183576
    52  H    0.201384
    53  H    0.219105
    54  H    0.209087
    55  H    0.158736
    56  H    0.143850
 Sum of Mulliken charges =  -0.00000

 Dipole moment (field-independent basis, Debye):
    X=             -3.7145    Y=             -0.4488    Z=              0.4356  Tot=              3.7668
 Quadrupole moment (field-independent basis, Debye-Ang):
   XX=           -156.6647   YY=           -155.0421   ZZ=           -194.2652
   XY=              5.8610   XZ=              2.5830   YZ=            -13.5399

 Normal termination of Gaussian 16 at Fri Nov  4 19:43:15 2022.
