 Gaussian 16, Revision B.01,
 Gaussian 16:  ES64L-G16RevB.01 20-Dec-2017

 -------------------------------------------------------------------
 #p b3lyp/6-31g(d) 6D 10F nosymm GFInput td=(50-50,nstate=2) SCF=XQC
 -------------------------------------------------------------------

 ------------------------------
 Gaussian input prepared by ASE
 ------------------------------
 Symbolic Z-matrix:
 Charge =  0 Multiplicity = 1

                          Input orientation:
 ---------------------------------------------------------------------
 Center     Atomic      Atomic             Coordinates (Angstroms)
 Number     Number       Type             X           Y           Z
 ---------------------------------------------------------------------
      1          6           0        5.814131   -3.576659    0.293418
      2          6           0        6.182917   -2.611087   -0.827537
      3          8           0        6.124754   -1.240801   -0.413314
      4          6           0        4.930166   -0.590415   -0.364434
      5          6           0        4.990391    0.738471    0.086657
      6          6           0        3.836154    1.505948    0.155555
      7          6           0        2.596307    0.963325   -0.211356
      8          7           0        1.400755    1.759460   -0.092951
      9          6           0        0.799579    1.904795    1.264388
     10          6           0        0.252233    3.298260    1.605853
     11          6           0       -0.205164    0.785229    1.648697
     12          8           0       -0.022536    0.178554    2.697783
     13          7           0       -1.254981    0.589314    0.791334
     14          6           0       -2.300925   -0.360106    0.912627
     15          6           0       -2.162117   -1.481196    1.742493
     16          6           0       -3.189968   -2.415568    1.824137
     17          6           0       -4.348440   -2.249203    1.078709
     18          6           0       -4.494554   -1.134735    0.235992
     19          6           0       -5.739404   -1.044344   -0.588167
     20          8           0       -5.877820   -0.426834   -1.627346
     21          8           0       -6.750653   -1.775686   -0.052079
     22          6           0       -7.963213   -1.790406   -0.817595
     23          6           0       -3.478001   -0.155227    0.151037
     24          6           0       -3.609145    1.105763   -0.674235
     25         16           0        0.735148    2.391179   -1.498400
     26          6           0        1.522361    3.997379   -1.742612
     27          8           0       -0.691353    2.645783   -1.219820
     28          8           0        1.130449    1.546313   -2.622845
     29          6           0        2.537742   -0.359100   -0.653358
     30          6           0        3.692884   -1.136422   -0.734753
     31          1           0        5.939249   -4.610622   -0.048163
     32          1           0        4.777269   -3.447236    0.618186
     33          1           0        6.465131   -3.417996    1.158904
     34          1           0        5.561076   -2.762911   -1.718678
     35          1           0        7.225000   -2.754996   -1.126302
     36          1           0        5.955705    1.145759    0.369438
     37          1           0        3.889253    2.533943    0.504908
     38          1           0        1.635820    1.711416    1.938259
     39          1           0        1.038337    4.053830    1.496093
     40          1           0       -0.601355    3.578917    0.987073
     41          1           0       -0.064220    3.294134    2.653806
     42          1           0       -1.292093    1.214195   -0.010716
     43          1           0       -1.258831   -1.597936    2.323869
     44          1           0       -3.076555   -3.281261    2.470582
     45          1           0       -5.147196   -2.978438    1.132270
     46          1           0       -8.364664   -0.778897   -0.922970
     47          1           0       -8.654360   -2.420167   -0.256038
     48          1           0       -7.787754   -2.204875   -1.814246
     49          1           0       -4.629270    1.259962   -1.015083
     50          1           0       -3.293045    1.979991   -0.093673
     51          1           0       -2.976377    1.072872   -1.570362
     52          1           0        1.276479    4.649995   -0.903966
     53          1           0        1.131146    4.408537   -2.676167
     54          1           0        2.599915    3.841197   -1.821018
     55          1           0        1.581333   -0.780868   -0.942708
     56          1           0        3.612306   -2.159754   -1.081174
 ---------------------------------------------------------------------

 SCF Done:  E(RB3LYP) =  -1774.88478444     A.U. after   15 cycles

 Excitation energies and oscillator strengths:

 Excited state symmetry could not be determined.
 Excited State   1:      Triplet-?Sym    3.3090 eV  374.68 nm  f=0.0000  <S**2>=2.000
     112 ->116         0.19779
     113 ->116        -0.31682
     115 ->116         0.40670
     115 ->117        -0.16427
     115 ->118        -0.18843
     115 ->119         0.27002
     115 ->120        -0.10777
 This state for optimization and/or second-order correction.
 Total Energy, E(TD-HF/TD-DFT) =  -1774.76317917
 Copying the excited state density for this state as the 1-particle RhoCI density.

 Excited state symmetry could not be determined.
 Excited State   2:      Triplet-?Sym    3.6564 eV  339.09 nm  f=0.0000  <S**2>=2.000
     112 ->116        -0.15656
     113 ->116         0.22227
     115 ->116         0.55373
     115 ->117         0.15416
     115 ->118         0.13869
     115 ->119        -0.17541

 Excited state symmetry could not be determined.
 Excited State   3:      Singlet-?Sym    4.3602 eV  284.35 nm  f=0.0405  <S**2>=0.000
     113 ->119         0.11915
     115 ->116         0.65830

 Excited state symmetry could not be determined.
 Excited State   4:      Singlet-?Sym    4.7446 eV  261.32 nm  f=0.0190  <S**2>=0.000
     111 ->116         0.13778
     112 ->116        -0.20470
     112 ->117         0.14869
     112 ->118         0.13491
     112 ->119        -0.14117
     113 ->116        -0.24391
     113 ->117         0.10235
     114 ->116         0.43459
     114 ->117        -0.20112
     114 ->118        -0.10380
     114 ->119         0.10175

 Alpha  occ. eigenvalues --  -89.12569 -19.18475 -19.18407 -19.15705 -19.15122
 Alpha  occ. eigenvalues --  -19.12646 -19.11858 -14.38277 -14.36619 -10.30803
 Alpha  occ. eigenvalues --  -10.29087 -10.26121 -10.25220 -10.25067 -10.23550
 Alpha  occ. eigenvalues --  -10.23432 -10.23325 -10.22938 -10.20644 -10.20303
 Alpha  occ. eigenvalues --  -10.20290 -10.19900 -10.19806 -10.19706 -10.19681
 Alpha  occ. eigenvalues --  -10.19083 -10.18403 -10.18322 -10.18191 -10.16754
 Alpha  occ. eigenvalues --   -8.15043  -6.11553  -6.11474  -6.11332  -1.12236
 Alpha  occ. eigenvalues --   -1.09335  -1.07055  -1.03694  -1.01277  -1.00331
 Alpha  occ. eigenvalues --   -0.95165  -0.93398  -0.85820  -0.84825  -0.79422
 Alpha  occ. eigenvalues --   -0.78760  -0.77188  -0.76892  -0.75956  -0.75692
 Alpha  occ. eigenvalues --   -0.73077  -0.71449  -0.68225  -0.67396  -0.65936
 Alpha  occ. eigenvalues --   -0.64042  -0.62690  -0.61458  -0.60048  -0.58472
 Alpha  occ. eigenvalues --   -0.57619  -0.54997  -0.54787  -0.54171  -0.52695
 Alpha  occ. eigenvalues --   -0.52189  -0.50534  -0.49281  -0.48850  -0.47610
 Alpha  occ. eigenvalues --   -0.47504  -0.47097  -0.46664  -0.46374  -0.45902
 Alpha  occ. eigenvalues --   -0.45471  -0.44969  -0.44691  -0.44542  -0.44152
 Alpha  occ. eigenvalues --   -0.43861  -0.43136  -0.42373  -0.41744  -0.41488
 Alpha  occ. eigenvalues --   -0.41068  -0.40336  -0.40252  -0.39709  -0.39096
 Alpha  occ. eigenvalues --   -0.38882  -0.38528  -0.38125  -0.37854  -0.37612
 Alpha  occ. eigenvalues --   -0.36391  -0.35636  -0.35566  -0.34798  -0.34478
 Alpha  occ. eigenvalues --   -0.33842  -0.33362  -0.32989  -0.32486  -0.31789
 Alpha  occ. eigenvalues --   -0.30900  -0.29713  -0.29342  -0.28398  -0.26335
 Alpha  occ. eigenvalues --   -0.26260  -0.24545  -0.24010  -0.22629  -0.21481
 Alpha virt. eigenvalues --   -0.03182  -0.01660  -0.01185  -0.00636   0.02981
 Alpha virt. eigenvalues --    0.05617   0.06372   0.07330   0.07520   0.08266
 Alpha virt. eigenvalues --    0.08684   0.09791   0.10013   0.10876   0.11353

 Mulliken charges:
               1
     1  C   -0.464330
     2  C   -0.042048
     3  O   -0.519383
     4  C    0.395006
     5  C   -0.186306
     6  C   -0.142505
     7  C    0.247593
     8  N   -0.689136
     9  C   -0.045022
    10  C   -0.487624
    11  C    0.614556
    12  O   -0.506477
    13  N   -0.756911
    14  C    0.264748
    15  C   -0.142093
    16  C   -0.154283
    17  C   -0.150887
    18  C   -0.001973
    19  C    0.565662
    20  O   -0.492712
    21  O   -0.459864
    22  C   -0.213414
    23  C    0.105599
    24  C   -0.555571
    25  S    1.237523
    26  C   -0.626356
    27  O   -0.579093
    28  O   -0.511314
    29  C   -0.115916
    30  C   -0.207326
    31  H    0.152454
    32  H    0.166554
    33  H    0.166684
    34  H    0.148269
    35  H    0.160676
    36  H    0.144747
    37  H    0.130531
    38  H    0.189043
    39  H    0.149563
    40  H    0.193092
    41  H    0.178419
    42  H    0.412082
    43  H    0.181347
    44  H    0.132521
    45  H    0.150142
    46  H    0.168637
    47  H    0.161541
    48  H    0.168805
    49  H    0.195174
    50  H    0.153843
    51  H    0.183576
    52  H    0.201381
    53  H    0.219102
    54  H    0.209083
    55  H    0.158740
    56  H    0.143850
 Sum of Mulliken charges =  -0.00000

 Dipole moment (field-independent basis, Debye):
    X=              3.6725    Y=              0.8076    Z=              0.2226  Tot=              3.7668
 Quadrupole moment (field-independent basis, Debye-Ang):
   XX=           -158.6826   YY=           -150.1233   ZZ=           -197.9842
   XY=              5.2224   XZ=             -5.5454   YZ=              3.1881

 Normal termination of Gaussian 16 at Sat Nov  5 11:48:32 2022.
