 Gaussian 16, Revision B.01,
 Gaussian 16:  ES64L-G16RevB.01 20-Dec-2017

 -----------------------------
 #p b3lyp/6-31g(d) opt SCF=XQC
 -----------------------------

 ------------------------------
 Gaussian input prepared by ASE
 ------------------------------
 Symbolic Z-matrix:
 Charge =  0 Multiplicity = 1

 SCF Done:  E(RB3LYP) =  -1850.65716213     A.U. after   14 cycles
 SCF Done:  E(RB3LYP) =  -1850.66910439     A.U. after   12 cycles
 SCF Done:  E(RB3LYP) =  -1850.67033135     A.U. after   11 cycles
 SCF Done:  E(RB3LYP) =  -1850.67052853     A.U. after   11 cycles
 SCF Done:  E(RB3LYP) =  -1850.67058714     A.U. after   11 cycles
 SCF Done:  E(RB3LYP) =  -1850.67064342     A.U. after   11 cycles
 SCF Done:  E(RB3LYP) =  -1850.67066432     A.U. after   11 cycles
 SCF Done:  E(RB3LYP) =  -1850.67068262     A.U. after   10 cycles
 SCF Done:  E(RB3LYP) =  -1850.67070527     A.U. after   11 cycles
 SCF Done:  E(RB3LYP) =  -1850.67073788     A.U. after   10 cycles
 SCF Done:  E(RB3LYP) =  -1850.67077123     A.U. after   10 cycles
 SCF Done:  E(RB3LYP) =  -1850.67078088     A.U. after   10 cycles
 SCF Done:  E(RB3LYP) =  -1850.67079534     A.U. after   11 cycles
 SCF Done:  E(RB3LYP) =  -1850.67080288     A.U. after   10 cycles
 SCF Done:  E(RB3LYP) =  -1850.67080972     A.U. after   10 cycles
 SCF Done:  E(RB3LYP) =  -1850.67081085     A.U. after    9 cycles
 SCF Done:  E(RB3LYP) =  -1850.67081106     A.U. after    8 cycles
 SCF Done:  E(RB3LYP) =  -1850.67081110     A.U. after    7 cycles
 SCF Done:  E(RB3LYP) =  -1850.67081111     A.U. after    6 cycles
 SCF Done:  E(RB3LYP) =  -1850.67081112     A.U. after    7 cycles
 Optimization completed.
    -- Stationary point found.

                         Standard orientation:
 ---------------------------------------------------------------------
 Center     Atomic      Atomic             Coordinates (Angstroms)
 Number     Number       Type             X           Y           Z
 ---------------------------------------------------------------------
      1          6           0       -6.221214   -1.379481    0.451674
      2          6           0       -6.072075   -0.282209   -0.596097
      3         16           0       -4.927907    1.054873   -0.113169
      4          8           0       -4.932493    2.039248   -1.207385
      5          8           0       -5.240662    1.445847    1.271774
      6          6           0       -3.295900    0.274847   -0.096727
      7          6           0       -2.781160   -0.205611    1.110800
      8          6           0       -1.521437   -0.799069    1.123052
      9          6           0       -0.801300   -0.893196   -0.070682
     10         16           0        0.813582   -1.693858   -0.060597
     11          8           0        0.716402   -2.917130    0.742149
     12          8           0        1.272080   -1.723075   -1.454767
     13          7           0        1.740762   -0.639062    0.863162
     14          6           0        2.539352    0.427973    0.219744
     15          6           0        2.688186    1.602500    1.199230
     16          6           0        3.512079    2.734491    0.568668
     17          6           0        4.907794    2.234388    0.175663
     18          6           0        4.839505    1.052505   -0.805184
     19          8           0        6.121127    0.425387   -0.923979
     20          6           0        6.144793   -0.794420   -0.168783
     21          6           0        4.802538   -0.890039    0.575591
     22          6           0        3.882582   -0.073839   -0.352424
     23          6           0       -1.312348   -0.410269   -1.275231
     24          6           0       -2.573905    0.187136   -1.286889
     25          1           0       -5.281508   -1.918311    0.609418
     26          1           0       -6.548376   -0.959928    1.406690
     27          1           0       -6.970585   -2.103971    0.116006
     28          1           0       -5.713858   -0.655757   -1.560322
     29          1           0       -7.012497    0.252989   -0.768197
     30          1           0       -3.357438   -0.095117    2.023135
     31          1           0       -1.100546   -1.183517    2.046061
     32          1           0        2.238958   -1.184557    1.563518
     33          1           0        1.936072    0.783576   -0.624308
     34          1           0        1.688953    1.949032    1.484873
     35          1           0        3.179161    1.261591    2.122086
     36          1           0        3.592047    3.574466    1.268418
     37          1           0        2.985174    3.119226   -0.317226
     38          1           0        5.445621    1.913344    1.077534
     39          1           0        5.506828    3.035858   -0.271802
     40          1           0        4.563191    1.423193   -1.801034
     41          1           0        6.269835   -1.637120   -0.862805
     42          1           0        7.007335   -0.783079    0.508132
     43          1           0        4.478851   -1.928599    0.697974
     44          1           0        4.877052   -0.438441    1.572491
     45          1           0        3.654410   -0.698216   -1.223424
     46          1           0       -0.726318   -0.504259   -2.182737
     47          1           0       -2.985061    0.598332   -2.203129
 ---------------------------------------------------------------------

 The electronic state is 1-A.
 Alpha  occ. eigenvalues --  -89.12547 -89.09846 -19.15628 -19.15404 -19.14580
 Alpha  occ. eigenvalues --  -19.14452 -19.14018 -14.37621 -10.24994 -10.24667
 Alpha  occ. eigenvalues --  -10.24586 -10.23830 -10.23638 -10.23409 -10.23371
 Alpha  occ. eigenvalues --  -10.23294 -10.23293 -10.23254 -10.20663 -10.19860
 Alpha  occ. eigenvalues --  -10.19798 -10.19769 -10.19482 -10.18465  -8.15034
 Alpha  occ. eigenvalues --   -8.12787  -6.11529  -6.11456  -6.11348  -6.09205
 Alpha  occ. eigenvalues --   -6.09166  -6.09091  -1.12226  -1.10201  -1.02882
 Alpha  occ. eigenvalues --   -1.01324  -1.00005  -0.93767  -0.89999  -0.83344
 Alpha  occ. eigenvalues --   -0.81875  -0.79937  -0.78752  -0.78494  -0.74858
 Alpha  occ. eigenvalues --   -0.73384  -0.70926  -0.67762  -0.64987  -0.64177
 Alpha  occ. eigenvalues --   -0.63131  -0.61603  -0.59724  -0.59050  -0.56369
 Alpha  occ. eigenvalues --   -0.55676  -0.52904  -0.51682  -0.50922  -0.50366
 Alpha  occ. eigenvalues --   -0.49574  -0.49448  -0.48133  -0.47817  -0.47552
 Alpha  occ. eigenvalues --   -0.46154  -0.46035  -0.45407  -0.45146  -0.44735
 Alpha  occ. eigenvalues --   -0.43103  -0.42983  -0.42211  -0.42100  -0.40784
 Alpha  occ. eigenvalues --   -0.40381  -0.40000  -0.39027  -0.38551  -0.38315
 Alpha  occ. eigenvalues --   -0.37650  -0.36418  -0.36081  -0.35203  -0.34398
 Alpha  occ. eigenvalues --   -0.33286  -0.33167  -0.33069  -0.32581  -0.32398
 Alpha  occ. eigenvalues --   -0.31986  -0.31526  -0.30470  -0.30377  -0.30149
 Alpha  occ. eigenvalues --   -0.29003  -0.28945  -0.26838  -0.24491
 Alpha virt. eigenvalues --   -0.06879  -0.03990   0.04032   0.05319   0.06085
 Alpha virt. eigenvalues --    0.06757   0.07372   0.07516   0.08236   0.08531
 Alpha virt. eigenvalues --    0.08606   0.09381   0.10116   0.10488   0.11222

 Mulliken charges:
               1
     1  C   -0.467762
     2  C   -0.455541
     3  S    1.127081
     4  O   -0.543168
     5  O   -0.548918
     6  C   -0.153377
     7  C   -0.143367
     8  C   -0.124659
     9  C   -0.135472
    10  S    1.227610
    11  O   -0.540434
    12  O   -0.538151
    13  N   -0.709768
    14  C    0.005633
    15  C   -0.259849
    16  C   -0.278931
    17  C   -0.271883
    18  C    0.151163
    19  O   -0.506372
    20  C   -0.005105
    21  C   -0.349181
    22  C   -0.131090
    23  C   -0.146368
    24  C   -0.139535
    25  H    0.167013
    26  H    0.191826
    27  H    0.169742
    28  H    0.193924
    29  H    0.213705
    30  H    0.191043
    31  H    0.180473
    32  H    0.356861
    33  H    0.158728
    34  H    0.152414
    35  H    0.131843
    36  H    0.145173
    37  H    0.136149
    38  H    0.134987
    39  H    0.148187
    40  H    0.131219
    41  H    0.139684
    42  H    0.139038
    43  H    0.157455
    44  H    0.142991
    45  H    0.173933
    46  H    0.193026
    47  H    0.188030
 Sum of Mulliken charges =  -0.00000

 Dipole moment (field-independent basis, Debye):
    X=             -0.2160    Y=             -1.2204    Z=              1.3769  Tot=              1.8525
 Quadrupole moment (field-independent basis, Debye-Ang):
   XX=           -156.8952   YY=           -172.4511   ZZ=           -155.0857
   XY=             22.5336   XZ=             15.1762   YZ=             -1.4025

 Normal termination of Gaussian 16 at Fri Nov  4 19:05:23 2022.
