 Gaussian 16, Revision B.01,
 Gaussian 16:  ES64L-G16RevB.01 20-Dec-2017

 -------------------------------------------------------------------
 #p b3lyp/6-31g(d) 6D 10F nosymm GFInput td=(50-50,nstate=2) SCF=XQC
 -------------------------------------------------------------------

 ------------------------------
 Gaussian input prepared by ASE
 ------------------------------
 Symbolic Z-matrix:
 Charge =  0 Multiplicity = 1

                          Input orientation:
 ---------------------------------------------------------------------
 Center     Atomic      Atomic             Coordinates (Angstroms)
 Number     Number       Type             X           Y           Z
 ---------------------------------------------------------------------
      1          6           0       -6.830554    0.633048   -0.223565
      2          6           0       -6.519206   -0.639730    0.555647
      3         16           0       -5.222277   -1.675797   -0.202420
      4          8           0       -5.076944   -2.869803    0.645844
      5          8           0       -5.510694   -1.788105   -1.642193
      6          6           0       -3.705346   -0.705303   -0.031480
      7          6           0       -3.282201    0.093339   -1.097800
      8          6           0       -2.110179    0.834008   -0.967342
      9          6           0       -1.383532    0.754895    0.223532
     10         16           0        0.113889    1.741692    0.405108
     11          8           0       -0.157115    3.088821   -0.106789
     12          8           0        0.593698    1.521359    1.774786
     13          7           0        1.150069    1.047638   -0.721928
     14          6           0        2.092968   -0.021707   -0.324763
     15          6           0        2.371787   -0.920731   -1.539289
     16          6           0        3.347891   -2.046707   -1.168869
     17          6           0        4.675226   -1.468159   -0.662863
     18          6           0        4.475339   -0.551815    0.555303
     19          8           0        5.667453    0.195255    0.821190
     20          6           0        5.517695    1.544289    0.355906
     21          6           0        4.159127    1.626184   -0.359966
     22          6           0        3.371778    0.512009    0.355863
     23          6           0       -1.802760   -0.044992    1.286432
     24          6           0       -2.976102   -0.789584    1.154503
     25          1           0       -5.971777    1.311341   -0.249794
     26          1           0       -7.120615    0.396134   -1.250625
     27          1           0       -7.660047    1.161177    0.258243
     28          1           0       -6.192227   -0.445261    1.581734
     29          1           0       -7.378865   -1.317782    0.596674
     30          1           0       -3.858253    0.113161   -2.016728
     31          1           0       -1.761757    1.464674   -1.778365
     32          1           0        1.558973    1.794783   -1.279454
     33          1           0        1.558355   -0.630832    0.414141
     34          1           0        1.419935   -1.322863   -1.903170
     35          1           0        2.795317   -0.323032   -2.359239
     36          1           0        3.521063   -2.693272   -2.036951
     37          1           0        2.893630   -2.683275   -0.394991
     38          1           0        5.148207   -0.888186   -1.466367
     39          1           0        5.381915   -2.263546   -0.399475
     40          1           0        4.269992   -1.166425    1.441623
     41          1           0        5.547301    2.221511    1.220741
     42          1           0        6.360200    1.795644   -0.299322
     43          1           0        3.701575    2.614730   -0.251431
     44          1           0        4.270559    1.419988   -1.431585
     45          1           0        3.083078    0.892983    1.341794
     46          1           0       -1.215009   -0.078423    2.197070
     47          1           0       -3.311561   -1.443332    1.953070
 ---------------------------------------------------------------------

 SCF Done:  E(RB3LYP) =  -1850.67081767     A.U. after   14 cycles

 Excitation energies and oscillator strengths:

 Excited state symmetry could not be determined.
 Excited State   1:      Triplet-?Sym    3.5823 eV  346.10 nm  f=0.0000  <S**2>=2.000
      93 ->100         0.19319
      94 ->100         0.12665
      95 ->100         0.27907
      96 ->100         0.17095
      96 ->101         0.26847
      97 ->101        -0.25797
      98 ->100         0.40856
 This state for optimization and/or second-order correction.
 Total Energy, E(TD-HF/TD-DFT) =  -1850.53916876
 Copying the excited state density for this state as the 1-particle RhoCI density.

 Excited state symmetry could not be determined.
 Excited State   2:      Triplet-?Sym    4.2692 eV  290.41 nm  f=0.0000  <S**2>=2.000
      96 ->100        -0.46186
      97 ->100         0.49413

 Excited state symmetry could not be determined.
 Excited State   3:      Singlet-?Sym    4.4209 eV  280.45 nm  f=0.0002  <S**2>=0.000
      99 ->100         0.70680

 Excited state symmetry could not be determined.
 Excited State   4:      Singlet-?Sym    4.7963 eV  258.50 nm  f=0.1018  <S**2>=0.000
      98 ->100         0.69530

 Alpha  occ. eigenvalues --  -89.12547 -89.09846 -19.15628 -19.15404 -19.14580
 Alpha  occ. eigenvalues --  -19.14452 -19.14018 -14.37621 -10.24994 -10.24667
 Alpha  occ. eigenvalues --  -10.24586 -10.23830 -10.23638 -10.23409 -10.23371
 Alpha  occ. eigenvalues --  -10.23294 -10.23293 -10.23254 -10.20663 -10.19860
 Alpha  occ. eigenvalues --  -10.19798 -10.19769 -10.19483 -10.18466  -8.15034
 Alpha  occ. eigenvalues --   -8.12787  -6.11529  -6.11456  -6.11348  -6.09205
 Alpha  occ. eigenvalues --   -6.09166  -6.09091  -1.12226  -1.10201  -1.02882
 Alpha  occ. eigenvalues --   -1.01324  -1.00005  -0.93767  -0.89999  -0.83344
 Alpha  occ. eigenvalues --   -0.81875  -0.79937  -0.78752  -0.78494  -0.74858
 Alpha  occ. eigenvalues --   -0.73384  -0.70927  -0.67762  -0.64987  -0.64177
 Alpha  occ. eigenvalues --   -0.63131  -0.61603  -0.59724  -0.59050  -0.56369
 Alpha  occ. eigenvalues --   -0.55676  -0.52904  -0.51683  -0.50922  -0.50366
 Alpha  occ. eigenvalues --   -0.49574  -0.49448  -0.48132  -0.47817  -0.47552
 Alpha  occ. eigenvalues --   -0.46154  -0.46035  -0.45407  -0.45146  -0.44735
 Alpha  occ. eigenvalues --   -0.43103  -0.42983  -0.42211  -0.42100  -0.40784
 Alpha  occ. eigenvalues --   -0.40381  -0.40000  -0.39027  -0.38551  -0.38315
 Alpha  occ. eigenvalues --   -0.37650  -0.36418  -0.36081  -0.35203  -0.34398
 Alpha  occ. eigenvalues --   -0.33286  -0.33167  -0.33069  -0.32581  -0.32398
 Alpha  occ. eigenvalues --   -0.31986  -0.31526  -0.30470  -0.30377  -0.30149
 Alpha  occ. eigenvalues --   -0.29003  -0.28945  -0.26838  -0.24491
 Alpha virt. eigenvalues --   -0.06879  -0.03990   0.04032   0.05319   0.06085
 Alpha virt. eigenvalues --    0.06757   0.07372   0.07516   0.08236   0.08531
 Alpha virt. eigenvalues --    0.08606   0.09381   0.10116   0.10488   0.11222

 Mulliken charges:
               1
     1  C   -0.467768
     2  C   -0.455545
     3  S    1.127092
     4  O   -0.543168
     5  O   -0.548923
     6  C   -0.153377
     7  C   -0.143357
     8  C   -0.124660
     9  C   -0.135469
    10  S    1.227587
    11  O   -0.540434
    12  O   -0.538150
    13  N   -0.709756
    14  C    0.005587
    15  C   -0.259806
    16  C   -0.278943
    17  C   -0.271875
    18  C    0.151120
    19  O   -0.506362
    20  C   -0.005101
    21  C   -0.349177
    22  C   -0.131053
    23  C   -0.146353
    24  C   -0.139547
    25  H    0.167014
    26  H    0.191827
    27  H    0.169744
    28  H    0.193925
    29  H    0.213706
    30  H    0.191043
    31  H    0.180473
    32  H    0.356861
    33  H    0.158733
    34  H    0.152410
    35  H    0.131835
    36  H    0.145174
    37  H    0.136148
    38  H    0.134986
    39  H    0.148189
    40  H    0.131222
    41  H    0.139683
    42  H    0.139037
    43  H    0.157452
    44  H    0.142989
    45  H    0.173932
    46  H    0.193026
    47  H    0.188032
 Sum of Mulliken charges =  -0.00000

 Dipole moment (field-independent basis, Debye):
    X=             -0.4004    Y=              1.4559    Z=             -1.0733  Tot=              1.8525
 Quadrupole moment (field-independent basis, Debye-Ang):
   XX=           -151.6227   YY=           -175.5104   ZZ=           -156.8042
   XY=            -16.7562   XZ=            -18.4302   YZ=             -7.7872

 Normal termination of Gaussian 16 at Sat Nov  5 11:40:25 2022.
