 Gaussian 16, Revision B.01,
 Gaussian 16:  ES64L-G16RevB.01 20-Dec-2017

 -------------------------------------------------------------------
 #p b3lyp/6-31g(d) 6D 10F nosymm GFInput td=(50-50,nstate=2) SCF=XQC
 -------------------------------------------------------------------

 ------------------------------
 Gaussian input prepared by ASE
 ------------------------------
 Symbolic Z-matrix:
 Charge =  0 Multiplicity = 1

                          Input orientation:
 ---------------------------------------------------------------------
 Center     Atomic      Atomic             Coordinates (Angstroms)
 Number     Number       Type             X           Y           Z
 ---------------------------------------------------------------------
      1          8           0        1.320865    0.010061    2.617533
      2          6           0        1.474289   -0.583996    1.554964
      3          7           0        0.467361   -0.844896    0.659795
      4          6           0       -0.924178   -0.611448    1.029987
      5          6           0       -1.509246   -1.700841    1.943408
      6          6           0       -2.939014   -1.300447    2.362601
      7          8           0       -3.566126   -0.426444    1.420056
      8          6           0       -3.279190   -0.779793    0.070819
      9          6           0       -4.229102   -0.039537   -0.847248
     10          6           0       -4.739574    1.215919   -0.493704
     11          6           0       -5.577400    1.915886   -1.361192
     12          6           0       -5.893696    1.348953   -2.590434
     13          9           0       -6.704387    2.022940   -3.435440
     14          6           0       -5.406021    0.105377   -2.972553
     15          6           0       -4.575090   -0.584395   -2.089027
     16          6           0       -1.789048   -0.461874   -0.238341
     17          7           0        2.722622   -1.101960    1.183897
     18          6           0        3.950837   -0.612796    1.786907
     19          6           0        4.708274    0.334720    0.875746
     20          6           0        5.791529    1.076651    1.358703
     21          6           0        6.494917    1.936820    0.518209
     22          6           0        6.122082    2.057209   -0.823194
     23          6           0        5.050678    1.313157   -1.312355
     24          6           0        4.341590    0.449732   -0.470117
     25          6           0        3.167035   -0.345325   -0.991018
     26          8           0        2.880731   -1.494116   -0.165066
     27          1           0        0.668777   -1.538086   -0.049610
     28          1           0       -0.934003    0.329305    1.585902
     29          1           0       -0.877219   -1.820493    2.828591
     30          1           0       -1.510090   -2.661038    1.409771
     31          1           0       -3.564865   -2.194580    2.510766
     32          1           0       -2.924582   -0.738844    3.301480
     33          1           0       -3.446460   -1.861940   -0.060721
     34          1           0       -4.489981    1.634427    0.475323
     35          1           0       -5.986962    2.885672   -1.097460
     36          1           0       -5.684266   -0.308692   -3.936170
     37          1           0       -4.197666   -1.564413   -2.372772
     38          1           0       -1.692543    0.554269   -0.634238
     39          1           0       -1.437954   -1.144947   -1.024872
     40          1           0        4.582405   -1.473667    2.044177
     41          1           0        3.654685   -0.121442    2.716739
     42          1           0        6.079131    0.983388    2.403924
     43          1           0        7.329207    2.513898    0.907481
     44          1           0        6.668119    2.723267   -1.485517
     45          1           0        4.763739    1.398426   -2.358684
     46          1           0        3.376674   -0.770150   -1.978001
     47          1           0        2.263118    0.276081   -1.066670
 ---------------------------------------------------------------------

 SCF Done:  E(RB3LYP) =  -1209.74019819     A.U. after   15 cycles

 Excitation energies and oscillator strengths:

 Excited state symmetry could not be determined.
 Excited State   1:      Triplet-?Sym    3.7105 eV  334.14 nm  f=0.0000  <S**2>=2.000
      89 -> 95         0.26586
      90 -> 95        -0.37789
      92 -> 95        -0.11687
      92 -> 97         0.44742
      93 -> 95        -0.17704
      93 -> 97        -0.11477
 This state for optimization and/or second-order correction.
 Total Energy, E(TD-HF/TD-DFT) =  -1209.60384015
 Copying the excited state density for this state as the 1-particle RhoCI density.

 Excited state symmetry could not be determined.
 Excited State   2:      Triplet-?Sym    3.7650 eV  329.31 nm  f=0.0000  <S**2>=2.000
      88 -> 96        -0.29865
      89 -> 96         0.31357
      90 -> 96         0.16945
      94 -> 98        -0.51234

 Excited state symmetry could not be determined.
 Excited State   3:      Singlet-?Sym    5.3162 eV  233.22 nm  f=0.0012  <S**2>=0.000
      89 -> 97        -0.17585
      90 -> 97         0.27794
      91 -> 95         0.11420
      92 -> 95         0.42252
      92 -> 97         0.12388
      93 -> 95        -0.25905
      93 -> 97         0.33016

 Excited state symmetry could not be determined.
 Excited State   4:      Singlet-?Sym    5.3232 eV  232.92 nm  f=0.0138  <S**2>=0.000
      88 -> 98        -0.22473
      89 -> 98         0.25152
      90 -> 98         0.14194
      94 -> 96         0.59652

 Alpha  occ. eigenvalues --  -24.69990 -19.20423 -19.14973 -19.10864 -14.40084
 Alpha  occ. eigenvalues --  -14.35479 -10.30946 -10.26849 -10.25077 -10.24690
 Alpha  occ. eigenvalues --  -10.23429 -10.22820 -10.22772 -10.20533 -10.20476
 Alpha  occ. eigenvalues --  -10.19934 -10.19801 -10.19732 -10.19620 -10.19590
 Alpha  occ. eigenvalues --  -10.19554 -10.19540 -10.19414 -10.19358 -10.19262
 Alpha  occ. eigenvalues --  -10.18681  -1.21110  -1.10452  -1.03652  -1.03231
 Alpha  occ. eigenvalues --   -0.92408  -0.87672  -0.86543  -0.86233  -0.79648
 Alpha  occ. eigenvalues --   -0.78583  -0.77885  -0.76048  -0.75432  -0.73178
 Alpha  occ. eigenvalues --   -0.69882  -0.68546  -0.65542  -0.64708  -0.62253
 Alpha  occ. eigenvalues --   -0.61418  -0.60627  -0.59366  -0.57498  -0.55308
 Alpha  occ. eigenvalues --   -0.54352  -0.53760  -0.51567  -0.51113  -0.50880
 Alpha  occ. eigenvalues --   -0.49665  -0.49016  -0.48730  -0.46860  -0.45919
 Alpha  occ. eigenvalues --   -0.45791  -0.45361  -0.44754  -0.43919  -0.43515
 Alpha  occ. eigenvalues --   -0.43338  -0.42826  -0.42611  -0.42284  -0.41850
 Alpha  occ. eigenvalues --   -0.41355  -0.40809  -0.40018  -0.38950  -0.38018
 Alpha  occ. eigenvalues --   -0.37742  -0.36948  -0.36518  -0.35680  -0.35224
 Alpha  occ. eigenvalues --   -0.34744  -0.34655  -0.34211  -0.33457  -0.30861
 Alpha  occ. eigenvalues --   -0.30301  -0.26636  -0.25991  -0.25627  -0.25398
 Alpha  occ. eigenvalues --   -0.24769  -0.24739  -0.23792  -0.23558
 Alpha virt. eigenvalues --   -0.01089  -0.00848  -0.00620   0.00269   0.04258
 Alpha virt. eigenvalues --    0.07231   0.08502   0.08996   0.09454   0.09976
 Alpha virt. eigenvalues --    0.10603   0.11730   0.12507   0.12826   0.13118

 Mulliken charges:
               1
     1  O   -0.546975
     2  C    0.766150
     3  N   -0.640276
     4  C    0.069146
     5  C   -0.320327
     6  C   -0.020348
     7  O   -0.500879
     8  C    0.091863
     9  C    0.123209
    10  C   -0.166971
    11  C   -0.200577
    12  C    0.379501
    13  F   -0.300004
    14  C   -0.199465
    15  C   -0.179719
    16  C   -0.298446
    17  N   -0.235980
    18  C   -0.212480
    19  C    0.111322
    20  C   -0.181087
    21  C   -0.128425
    22  C   -0.129391
    23  C   -0.180879
    24  C    0.095256
    25  C   -0.111221
    26  O   -0.406913
    27  H    0.336401
    28  H    0.179323
    29  H    0.172415
    30  H    0.130910
    31  H    0.130634
    32  H    0.155988
    33  H    0.120104
    34  H    0.158203
    35  H    0.146744
    36  H    0.144659
    37  H    0.128308
    38  H    0.159223
    39  H    0.125564
    40  H    0.171961
    41  H    0.207538
    42  H    0.130713
    43  H    0.133660
    44  H    0.133093
    45  H    0.126082
    46  H    0.166197
    47  H    0.166194
 Sum of Mulliken charges =  -0.00000

 Dipole moment (field-independent basis, Debye):
    X=              2.4278    Y=             -1.4131    Z=             -1.7853  Tot=              3.3284
 Quadrupole moment (field-independent basis, Debye-Ang):
   XX=           -151.8901   YY=           -146.1460   ZZ=           -150.3988
   XY=             11.8473   XZ=             -5.9427   YZ=              1.3003

 Normal termination of Gaussian 16 at Sat Nov  5 11:43:07 2022.
