 Gaussian 16, Revision B.01,
 Gaussian 16:  ES64L-G16RevB.01 20-Dec-2017

 -----------------------------
 #p b3lyp/6-31g(d) opt SCF=XQC
 -----------------------------

 ------------------------------
 Gaussian input prepared by ASE
 ------------------------------
 Symbolic Z-matrix:
 Charge =  0 Multiplicity = 1

 SCF Done:  E(RB3LYP) =  -1209.73510698     A.U. after   15 cycles
 SCF Done:  E(RB3LYP) =  -1209.73948119     A.U. after   11 cycles
 SCF Done:  E(RB3LYP) =  -1209.73977820     A.U. after   11 cycles
 SCF Done:  E(RB3LYP) =  -1209.73991718     A.U. after   11 cycles
 SCF Done:  E(RB3LYP) =  -1209.73997889     A.U. after   11 cycles
 SCF Done:  E(RB3LYP) =  -1209.74001454     A.U. after   11 cycles
 SCF Done:  E(RB3LYP) =  -1209.74008256     A.U. after   11 cycles
 SCF Done:  E(RB3LYP) =  -1209.74018412     A.U. after   11 cycles
 SCF Done:  E(RB3LYP) =  -1209.74019041     A.U. after   10 cycles
 SCF Done:  E(RB3LYP) =  -1209.74019127     A.U. after   11 cycles
 SCF Done:  E(RB3LYP) =  -1209.74019707     A.U. after   10 cycles
 SCF Done:  E(RB3LYP) =  -1209.74019822     A.U. after    9 cycles
 SCF Done:  E(RB3LYP) =  -1209.74019845     A.U. after    8 cycles
 SCF Done:  E(RB3LYP) =  -1209.74019847     A.U. after    7 cycles
 Optimization completed.
    -- Stationary point found.

                         Standard orientation:
 ---------------------------------------------------------------------
 Center     Atomic      Atomic             Coordinates (Angstroms)
 Number     Number       Type             X           Y           Z
 ---------------------------------------------------------------------
      1          8           0       -1.937542   -1.952943   -1.197935
      2          6           0       -1.889979   -1.380522   -0.113700
      3          7           0       -0.733541   -0.945967    0.483892
      4          6           0        0.564333   -1.341483   -0.051841
      5          6           0        0.966685   -2.780635    0.309234
      6          6           0        2.293136   -3.131071   -0.396454
      7          8           0        3.086713   -1.976636   -0.684649
      8          6           0        3.057101   -1.015820    0.365866
      9          6           0        4.163022   -0.005509    0.143675
     10          6           0        4.599765    0.310691   -1.149004
     11          6           0        5.586064    1.275014   -1.353302
     12          6           0        6.126281    1.925362   -0.249806
     13          9           0        7.081683    2.861255   -0.441699
     14          6           0        5.717298    1.635565    1.045985
     15          6           0        4.734781    0.662553    1.232425
     16          6           0        1.651601   -0.353175    0.417334
     17          7           0       -3.047359   -1.162547    0.646083
     18          6           0       -4.366182   -1.197191    0.037050
     19          6           0       -4.938446    0.189577   -0.189003
     20          6           0       -6.092087    0.369149   -0.959728
     21          6           0       -6.624598    1.641516   -1.156173
     22          6           0       -6.007010    2.751352   -0.573324
     23          6           0       -4.863852    2.577584    0.203716
     24          6           0       -4.326073    1.301104    0.401368
     25          6           0       -3.075704    1.109276    1.227696
     26          8           0       -2.950523   -0.243470    1.715852
     27          1           0       -0.799378   -0.710547    1.466021
     28          1           0        0.471009   -1.285086   -1.139161
     29          1           0        0.179927   -3.474268   -0.002552
     30          1           0        1.066293   -2.867666    1.399761
     31          1           0        2.879092   -3.840738    0.208644
     32          1           0        2.103811   -3.593167   -1.369965
     33          1           0        3.244743   -1.526308    1.325301
     34          1           0        4.173622   -0.217498   -1.995100
     35          1           0        5.940157    1.524564   -2.348352
     36          1           0        6.170579    2.157227    1.882547
     37          1           0        4.415994    0.418795    2.243538
     38          1           0        1.632164    0.543599   -0.210371
     39          1           0        1.453191   -0.025266    1.447671
     40          1           0       -5.035790   -1.780449    0.683270
     41          1           0       -4.248808   -1.739178   -0.904329
     42          1           0       -6.570451   -0.495795   -1.414636
     43          1           0       -7.516332    1.768686   -1.763815
     44          1           0       -6.418553    3.746258   -0.719113
     45          1           0       -4.385940    3.439167    0.665976
     46          1           0       -3.097314    1.721039    2.135352
     47          1           0       -2.172865    1.369318    0.656562
 ---------------------------------------------------------------------

 The electronic state is 1-A.
 Alpha  occ. eigenvalues --  -24.69990 -19.20423 -19.14973 -19.10864 -14.40084
 Alpha  occ. eigenvalues --  -14.35479 -10.30946 -10.26849 -10.25077 -10.24690
 Alpha  occ. eigenvalues --  -10.23428 -10.22820 -10.22772 -10.20533 -10.20476
 Alpha  occ. eigenvalues --  -10.19934 -10.19801 -10.19732 -10.19620 -10.19590
 Alpha  occ. eigenvalues --  -10.19554 -10.19540 -10.19414 -10.19358 -10.19262
 Alpha  occ. eigenvalues --  -10.18680  -1.21110  -1.10452  -1.03652  -1.03231
 Alpha  occ. eigenvalues --   -0.92408  -0.87672  -0.86543  -0.86233  -0.79648
 Alpha  occ. eigenvalues --   -0.78583  -0.77885  -0.76048  -0.75432  -0.73178
 Alpha  occ. eigenvalues --   -0.69882  -0.68546  -0.65542  -0.64708  -0.62253
 Alpha  occ. eigenvalues --   -0.61418  -0.60627  -0.59366  -0.57498  -0.55308
 Alpha  occ. eigenvalues --   -0.54352  -0.53760  -0.51567  -0.51113  -0.50880
 Alpha  occ. eigenvalues --   -0.49665  -0.49016  -0.48730  -0.46860  -0.45919
 Alpha  occ. eigenvalues --   -0.45791  -0.45361  -0.44754  -0.43919  -0.43515
 Alpha  occ. eigenvalues --   -0.43338  -0.42826  -0.42611  -0.42284  -0.41850
 Alpha  occ. eigenvalues --   -0.41355  -0.40809  -0.40018  -0.38950  -0.38018
 Alpha  occ. eigenvalues --   -0.37742  -0.36948  -0.36518  -0.35680  -0.35224
 Alpha  occ. eigenvalues --   -0.34744  -0.34655  -0.34211  -0.33457  -0.30861
 Alpha  occ. eigenvalues --   -0.30301  -0.26636  -0.25991  -0.25627  -0.25398
 Alpha  occ. eigenvalues --   -0.24769  -0.24739  -0.23792  -0.23558
 Alpha virt. eigenvalues --   -0.01089  -0.00848  -0.00620   0.00269   0.04258
 Alpha virt. eigenvalues --    0.07231   0.08502   0.08996   0.09454   0.09976
 Alpha virt. eigenvalues --    0.10603   0.11730   0.12506   0.12826   0.13118

 Mulliken charges:
               1
     1  O   -0.546969
     2  C    0.766140
     3  N   -0.640290
     4  C    0.069157
     5  C   -0.320305
     6  C   -0.020346
     7  O   -0.500881
     8  C    0.091851
     9  C    0.123184
    10  C   -0.166951
    11  C   -0.200574
    12  C    0.379492
    13  F   -0.300004
    14  C   -0.199462
    15  C   -0.179704
    16  C   -0.298461
    17  N   -0.235968
    18  C   -0.212478
    19  C    0.111305
    20  C   -0.181081
    21  C   -0.128428
    22  C   -0.129392
    23  C   -0.180876
    24  C    0.095269
    25  C   -0.111232
    26  O   -0.406908
    27  H    0.336402
    28  H    0.179322
    29  H    0.172410
    30  H    0.130904
    31  H    0.130632
    32  H    0.155986
    33  H    0.120108
    34  H    0.158203
    35  H    0.146742
    36  H    0.144659
    37  H    0.128306
    38  H    0.159226
    39  H    0.125569
    40  H    0.171961
    41  H    0.207540
    42  H    0.130714
    43  H    0.133660
    44  H    0.133094
    45  H    0.126082
    46  H    0.166197
    47  H    0.166194
 Sum of Mulliken charges =  -0.00000

 Dipole moment (field-independent basis, Debye):
    X=             -2.0523    Y=              1.0762    Z=              2.3893  Tot=              3.3285
 Quadrupole moment (field-independent basis, Debye-Ang):
   XX=           -153.4373   YY=           -146.7851   ZZ=           -147.2265
   XY=            -11.0229   XZ=              6.5311   YZ=             -1.3081

 Normal termination of Gaussian 16 at Fri Nov  4 18:57:29 2022.
