 Gaussian 16, Revision B.01,
 Gaussian 16:  ES64L-G16RevB.01 20-Dec-2017

 -------------------------------------------------------------------
 #p b3lyp/6-31g(d) 6D 10F nosymm GFInput td=(50-50,nstate=2) SCF=XQC
 -------------------------------------------------------------------

 ------------------------------
 Gaussian input prepared by ASE
 ------------------------------
 Symbolic Z-matrix:
 Charge =  0 Multiplicity = 1

                          Input orientation:
 ---------------------------------------------------------------------
 Center     Atomic      Atomic             Coordinates (Angstroms)
 Number     Number       Type             X           Y           Z
 ---------------------------------------------------------------------
      1          6           0        4.600865   -0.940568    0.038971
      2          6           0        4.215165   -0.100167    1.255763
      3          7           0        3.426833    1.088946    0.903577
      4          6           0        3.922986    2.350881    0.816863
      5          7           0        3.018680    3.244536    0.452260
      6          6           0        1.874427    2.521519    0.288431
      7          6           0        2.083254    1.176508    0.553034
      8          6           0        1.169445    0.018856    0.543662
      9          8           0        1.481753   -1.090276    0.988292
     10          7           0       -0.072970    0.264735    0.022210
     11          6           0       -1.084099   -0.782979   -0.077701
     12          6           0       -0.921459   -1.631074   -1.351579
     13          6           0       -2.135962   -2.532006   -1.515688
     14          8           0       -3.337047   -1.768767   -1.676386
     15          6           0       -3.515409   -0.722524   -0.812120
     16          6           0       -4.801721   -0.170184   -0.773657
     17          6           0       -5.077341    0.899139    0.071304
     18          6           0       -4.073048    1.424446    0.889834
     19          6           0       -2.794062    0.875429    0.840668
     20          6           0       -2.485732   -0.194172   -0.011302
     21          1           0        5.158510   -0.346548   -0.693192
     22          1           0        3.707635   -1.351617   -0.437673
     23          1           0        5.232012   -1.777976    0.356626
     24          1           0        5.108325    0.270054    1.769295
     25          1           0        3.629713   -0.694456    1.956659
     26          1           0        4.960446    2.566501    1.038977
     27          1           0        0.947520    3.009318    0.011746
     28          1           0       -0.239145    1.125359   -0.481341
     29          1           0       -0.908658   -1.435170    0.785725
     30          1           0       -0.004812   -2.225464   -1.282635
     31          1           0       -0.837146   -0.976112   -2.228019
     32          1           0       -2.066632   -3.152103   -2.412688
     33          1           0       -2.247731   -3.196336   -0.645530
     34          1           0       -5.565242   -0.601743   -1.413382
     35          1           0       -6.079436    1.318801    0.095554
     36          1           0       -4.284488    2.253765    1.558423
     37          1           0       -2.005431    1.281451    1.468796
 ---------------------------------------------------------------------

 SCF Done:  E(RB3LYP) =  -896.555178628     A.U. after   15 cycles

 Excitation energies and oscillator strengths:

 Excited state symmetry could not be determined.
 Excited State   1:      Triplet-?Sym    3.6635 eV  338.43 nm  f=0.0000  <S**2>=2.000
      68 -> 74         0.15819
      69 -> 74        -0.15327
      70 -> 74         0.36044
      71 -> 74         0.15693
      72 -> 75         0.52312
 This state for optimization and/or second-order correction.
 Total Energy, E(TD-HF/TD-DFT) =  -896.420548680
 Copying the excited state density for this state as the 1-particle RhoCI density.

 Excited state symmetry could not be determined.
 Excited State   2:      Triplet-?Sym    3.6757 eV  337.31 nm  f=0.0000  <S**2>=2.000
      70 -> 73        -0.23486
      71 -> 73         0.63204
      72 -> 73         0.12996

 Excited state symmetry could not be determined.
 Excited State   3:      Singlet-?Sym    4.6795 eV  264.95 nm  f=0.0172  <S**2>=0.000
      69 -> 73         0.21106
      70 -> 73         0.20912
      72 -> 73         0.63452

 Excited state symmetry could not be determined.
 Excited State   4:      Singlet-?Sym    4.9157 eV  252.22 nm  f=0.0006  <S**2>=0.000
      69 -> 73         0.44231
      70 -> 73         0.41850
      71 -> 73         0.12669
      72 -> 73        -0.30902

 Alpha  occ. eigenvalues --  -19.17562 -19.11928 -14.40111 -14.36539 -14.31881
 Alpha  occ. eigenvalues --  -10.29991 -10.24851 -10.24656 -10.24528 -10.23829
 Alpha  occ. eigenvalues --  -10.23531 -10.22468 -10.21299 -10.19813 -10.19487
 Alpha  occ. eigenvalues --  -10.19186 -10.19168 -10.18641 -10.18577 -10.18513
 Alpha  occ. eigenvalues --   -1.06411  -1.04160  -1.01949  -0.93171  -0.89199
 Alpha  occ. eigenvalues --   -0.85173  -0.80778  -0.77567  -0.75988  -0.74927
 Alpha  occ. eigenvalues --   -0.74031  -0.67952  -0.65490  -0.64675  -0.62514
 Alpha  occ. eigenvalues --   -0.60867  -0.59726  -0.58528  -0.56068  -0.54040
 Alpha  occ. eigenvalues --   -0.52581  -0.50352  -0.49226  -0.48368  -0.47088
 Alpha  occ. eigenvalues --   -0.46648  -0.45615  -0.44730  -0.43729  -0.43613
 Alpha  occ. eigenvalues --   -0.42846  -0.41938  -0.41784  -0.40937  -0.40795
 Alpha  occ. eigenvalues --   -0.39669  -0.39185  -0.38890  -0.37768  -0.36351
 Alpha  occ. eigenvalues --   -0.36328  -0.35510  -0.34451  -0.32552  -0.31120
 Alpha  occ. eigenvalues --   -0.28151  -0.27550  -0.26461  -0.26101  -0.24381
 Alpha  occ. eigenvalues --   -0.23459  -0.21786
 Alpha virt. eigenvalues --   -0.02513  -0.00661   0.00846   0.04325   0.08019
 Alpha virt. eigenvalues --    0.09301   0.09765   0.10073   0.10611   0.12229
 Alpha virt. eigenvalues --    0.12333   0.13028   0.14146   0.14733   0.14847

 Mulliken charges:
               1
     1  C   -0.447184
     2  C   -0.145565
     3  N   -0.435087
     4  C    0.202429
     5  N   -0.434080
     6  C   -0.078364
     7  C    0.243163
     8  C    0.604176
     9  O   -0.561319
    10  N   -0.641652
    11  C    0.003033
    12  C   -0.298446
    13  C   -0.045232
    14  O   -0.525112
    15  C    0.326437
    16  C   -0.186255
    17  C   -0.130302
    18  C   -0.135605
    19  C   -0.193804
    20  C    0.071473
    21  H    0.150629
    22  H    0.178374
    23  H    0.153342
    24  H    0.151174
    25  H    0.200921
    26  H    0.159479
    27  H    0.137951
    28  H    0.332591
    29  H    0.186589
    30  H    0.165503
    31  H    0.148361
    32  H    0.158007
    33  H    0.147632
    34  H    0.139381
    35  H    0.131663
    36  H    0.128728
    37  H    0.136972
 Sum of Mulliken charges =  -0.00000

 Dipole moment (field-independent basis, Debye):
    X=              0.8969    Y=             -1.3832    Z=             -0.4998  Tot=              1.7226
 Quadrupole moment (field-independent basis, Debye-Ang):
   XX=           -104.0086   YY=           -124.2482   ZZ=           -116.5191
   XY=             -8.3806   XZ=              1.4806   YZ=              3.1350

 Normal termination of Gaussian 16 at Sat Nov  5 11:37:33 2022.
