 Gaussian 16, Revision B.01,
 Gaussian 16:  ES64L-G16RevB.01 20-Dec-2017

 -----------------------------
 #p b3lyp/6-31g(d) opt SCF=XQC
 -----------------------------

 ------------------------------
 Gaussian input prepared by ASE
 ------------------------------
 Symbolic Z-matrix:
 Charge =  0 Multiplicity = 1

 SCF Done:  E(RB3LYP) =  -896.549989339     A.U. after   15 cycles
 SCF Done:  E(RB3LYP) =  -896.554435931     A.U. after   12 cycles
 SCF Done:  E(RB3LYP) =  -896.554758757     A.U. after   11 cycles
 SCF Done:  E(RB3LYP) =  -896.554848227     A.U. after   11 cycles
 SCF Done:  E(RB3LYP) =  -896.554908283     A.U. after   10 cycles
 SCF Done:  E(RB3LYP) =  -896.554963750     A.U. after   11 cycles
 SCF Done:  E(RB3LYP) =  -896.555026151     A.U. after   12 cycles
 SCF Done:  E(RB3LYP) =  -896.555075440     A.U. after   12 cycles
 SCF Done:  E(RB3LYP) =  -896.555106674     A.U. after   11 cycles
 SCF Done:  E(RB3LYP) =  -896.555135713     A.U. after   11 cycles
 SCF Done:  E(RB3LYP) =  -896.555143365     A.U. after   11 cycles
 SCF Done:  E(RB3LYP) =  -896.555148587     A.U. after    9 cycles
 SCF Done:  E(RB3LYP) =  -896.555161099     A.U. after   11 cycles
 SCF Done:  E(RB3LYP) =  -896.555166881     A.U. after   10 cycles
 SCF Done:  E(RB3LYP) =  -896.555174155     A.U. after   11 cycles
 SCF Done:  E(RB3LYP) =  -896.555176432     A.U. after   10 cycles
 SCF Done:  E(RB3LYP) =  -896.555176734     A.U. after    8 cycles
 SCF Done:  E(RB3LYP) =  -896.555178532     A.U. after   10 cycles
 SCF Done:  E(RB3LYP) =  -896.555178594     A.U. after    8 cycles
 SCF Done:  E(RB3LYP) =  -896.555178615     A.U. after    7 cycles
 Optimization completed.
    -- Stationary point found.

                         Standard orientation:
 ---------------------------------------------------------------------
 Center     Atomic      Atomic             Coordinates (Angstroms)
 Number     Number       Type             X           Y           Z
 ---------------------------------------------------------------------
      1          6           0        4.415737    2.023909    0.072305
      2          6           0        4.381417    0.772489   -0.804275
      3          7           0        3.766302   -0.380512   -0.132180
      4          6           0        4.454366   -1.406239    0.434052
      5          7           0        3.673120   -2.308466    1.004111
      6          6           0        2.409182   -1.839322    0.800952
      7          6           0        2.420063   -0.640850    0.103653
      8          6           0        1.328993    0.228824   -0.374390
      9          8           0        1.510227    1.174458   -1.147912
     10          7           0        0.081365   -0.099962    0.085271
     11          6           0       -1.099568    0.676531   -0.278769
     12          6           0       -1.292444    1.904841    0.628169
     13          6           0       -2.655675    2.522576    0.356816
     14          8           0       -3.715490    1.609770    0.664290
     15          6           0       -3.568724    0.328026    0.207141
     16          6           0       -4.716314   -0.473572    0.247528
     17          6           0       -4.663114   -1.791540   -0.192369
     18          6           0       -3.465172   -2.320860   -0.681549
     19          6           0       -2.325828   -1.520457   -0.711456
     20          6           0       -2.348410   -0.192833   -0.262157
     21          1           0        4.944265    1.835316    1.013039
     22          1           0        3.400152    2.361696    0.292531
     23          1           0        4.933858    2.829942   -0.459074
     24          1           0        5.395707    0.460354   -1.073163
     25          1           0        3.820833    0.965375   -1.718458
     26          1           0        5.535461   -1.450314    0.396095
     27          1           0        1.549315   -2.401195    1.145315
     28          1           0       -0.010550   -0.765843    0.840258
     29          1           0       -0.904941    1.036143   -1.295842
     30          1           0       -0.494250    2.629798    0.439444
     31          1           0       -1.236259    1.603542    1.681873
     32          1           0       -2.839393    3.398729    0.983346
     33          1           0       -2.741174    2.828543   -0.696786
     34          1           0       -5.635447   -0.035876    0.624456
     35          1           0       -5.559903   -2.404380   -0.159287
     36          1           0       -3.419541   -3.346803   -1.034885
     37          1           0       -1.388594   -1.925412   -1.084205
 ---------------------------------------------------------------------

 The electronic state is 1-A.
 Alpha  occ. eigenvalues --  -19.17563 -19.11928 -14.40111 -14.36539 -14.31881
 Alpha  occ. eigenvalues --  -10.29991 -10.24851 -10.24656 -10.24528 -10.23829
 Alpha  occ. eigenvalues --  -10.23531 -10.22468 -10.21299 -10.19813 -10.19487
 Alpha  occ. eigenvalues --  -10.19186 -10.19168 -10.18641 -10.18576 -10.18513
 Alpha  occ. eigenvalues --   -1.06411  -1.04160  -1.01949  -0.93171  -0.89199
 Alpha  occ. eigenvalues --   -0.85173  -0.80778  -0.77567  -0.75988  -0.74927
 Alpha  occ. eigenvalues --   -0.74031  -0.67952  -0.65490  -0.64675  -0.62513
 Alpha  occ. eigenvalues --   -0.60867  -0.59726  -0.58528  -0.56068  -0.54040
 Alpha  occ. eigenvalues --   -0.52581  -0.50352  -0.49226  -0.48368  -0.47088
 Alpha  occ. eigenvalues --   -0.46648  -0.45615  -0.44730  -0.43729  -0.43613
 Alpha  occ. eigenvalues --   -0.42846  -0.41938  -0.41784  -0.40937  -0.40795
 Alpha  occ. eigenvalues --   -0.39669  -0.39185  -0.38890  -0.37768  -0.36351
 Alpha  occ. eigenvalues --   -0.36328  -0.35510  -0.34451  -0.32552  -0.31120
 Alpha  occ. eigenvalues --   -0.28151  -0.27551  -0.26461  -0.26100  -0.24381
 Alpha  occ. eigenvalues --   -0.23459  -0.21786
 Alpha virt. eigenvalues --   -0.02513  -0.00661   0.00846   0.04325   0.08019
 Alpha virt. eigenvalues --    0.09301   0.09765   0.10073   0.10611   0.12229
 Alpha virt. eigenvalues --    0.12333   0.13028   0.14146   0.14733   0.14847

 Mulliken charges:
               1
     1  C   -0.447181
     2  C   -0.145573
     3  N   -0.435090
     4  C    0.202435
     5  N   -0.434080
     6  C   -0.078360
     7  C    0.243147
     8  C    0.604186
     9  O   -0.561313
    10  N   -0.641660
    11  C    0.003050
    12  C   -0.298450
    13  C   -0.045251
    14  O   -0.525109
    15  C    0.326437
    16  C   -0.186255
    17  C   -0.130299
    18  C   -0.135609
    19  C   -0.193799
    20  C    0.071473
    21  H    0.150629
    22  H    0.178374
    23  H    0.153343
    24  H    0.151175
    25  H    0.200925
    26  H    0.159477
    27  H    0.137953
    28  H    0.332590
    29  H    0.186586
    30  H    0.165502
    31  H    0.148360
    32  H    0.158010
    33  H    0.147636
    34  H    0.139379
    35  H    0.131662
    36  H    0.128727
    37  H    0.136974
 Sum of Mulliken charges =  -0.00000

 Dipole moment (field-independent basis, Debye):
    X=              0.5510    Y=              1.6309    Z=              0.0647  Tot=              1.7227
 Quadrupole moment (field-independent basis, Debye-Ang):
   XX=           -107.0311   YY=           -116.9084   ZZ=           -120.1763
   XY=             10.2797   XZ=             -3.9806   YZ=              4.8298

 Normal termination of Gaussian 16 at Fri Nov  4 18:57:40 2022.
