 Gaussian 16, Revision B.01,
 Gaussian 16:  ES64L-G16RevB.01 20-Dec-2017

 -----------------------------
 #p b3lyp/6-31g(d) opt SCF=XQC
 -----------------------------

 ------------------------------
 Gaussian input prepared by ASE
 ------------------------------
 Symbolic Z-matrix:
 Charge =  0 Multiplicity = 1

 SCF Done:  E(RB3LYP) =  -1142.65809905     A.U. after   16 cycles
 SCF Done:  E(RB3LYP) =  -1142.66411335     A.U. after   13 cycles
 SCF Done:  E(RB3LYP) =  -1142.66455437     A.U. after   12 cycles
 SCF Done:  E(RB3LYP) =  -1142.66484559     A.U. after   12 cycles
 SCF Done:  E(RB3LYP) =  -1142.66489111     A.U. after   11 cycles
 SCF Done:  E(RB3LYP) =  -1142.66490064     A.U. after   11 cycles
 SCF Done:  E(RB3LYP) =  -1142.66493810     A.U. after    9 cycles
 SCF Done:  E(RB3LYP) =  -1142.66494529     A.U. after   10 cycles
 SCF Done:  E(RB3LYP) =  -1142.66494872     A.U. after    9 cycles
 SCF Done:  E(RB3LYP) =  -1142.66495001     A.U. after    9 cycles
 SCF Done:  E(RB3LYP) =  -1142.66495123     A.U. after   10 cycles
 SCF Done:  E(RB3LYP) =  -1142.66495177     A.U. after    9 cycles
 SCF Done:  E(RB3LYP) =  -1142.66495215     A.U. after   10 cycles
 SCF Done:  E(RB3LYP) =  -1142.66495227     A.U. after    9 cycles
 SCF Done:  E(RB3LYP) =  -1142.66495235     A.U. after    8 cycles
 SCF Done:  E(RB3LYP) =  -1142.66495238     A.U. after    7 cycles
 SCF Done:  E(RB3LYP) =  -1142.66495240     A.U. after    7 cycles
 Optimization completed.
    -- Stationary point found.

                         Standard orientation:
 ---------------------------------------------------------------------
 Center     Atomic      Atomic             Coordinates (Angstroms)
 Number     Number       Type             X           Y           Z
 ---------------------------------------------------------------------
      1          6           0       -5.641089    0.470417   -0.182230
      2          6           0       -4.736817   -0.551130    0.505777
      3          6           0       -5.496646   -1.463144    1.461590
      4          8           0       -4.107213   -1.438669   -0.452634
      5          6           0       -3.144351   -0.858494   -1.305765
      6          7           0       -1.903153   -0.489249   -0.614411
      7          6           0       -1.114865   -1.480464   -0.064882
      8          7           0       -1.599154   -2.762941   -0.137884
      9          7           0        0.064369   -1.271061    0.475413
     10          6           0        0.452457    0.027099    0.457574
     11          6           0       -0.254691    1.138077   -0.008640
     12          6           0        0.579646    2.294084    0.223977
     13          6           0        0.389043    3.718639   -0.044081
     14          8           0       -0.583552    4.245627   -0.548484
     15          6           0        1.737105    1.816979    0.810781
     16          7           0        1.662678    0.453557    0.961835
     17          6           0        2.694380   -0.419496    1.528762
     18          6           0        3.866935   -0.654442    0.595578
     19          6           0        5.131556   -0.139450    0.896426
     20          6           0        6.210768   -0.355419    0.036014
     21          6           0        6.030957   -1.088716   -1.136373
     22          6           0        4.770120   -1.608503   -1.443394
     23          6           0        3.695448   -1.394940   -0.582338
     24          6           0       -1.557386    0.925631   -0.580161
     25          8           0       -2.349761    1.741839   -1.023297
     26          1           0       -6.174497    1.058481    0.572974
     27          1           0       -5.065917    1.172413   -0.792428
     28          1           0       -6.381425   -0.036658   -0.811518
     29          1           0       -3.947366   -0.021293    1.057260
     30          1           0       -5.976402   -0.874162    2.250112
     31          1           0       -6.272730   -2.019414    0.924125
     32          1           0       -4.820455   -2.184028    1.933404
     33          1           0       -3.498065    0.051304   -1.788065
     34          1           0       -2.915857   -1.625086   -2.049621
     35          1           0       -1.049485   -3.420852    0.399220
     36          1           0       -2.606650   -2.860986   -0.055486
     37          1           0        1.265195    4.334048    0.271883
     38          1           0        2.616336    2.359635    1.129774
     39          1           0        2.190049   -1.359640    1.765585
     40          1           0        3.038079    0.026422    2.467809
     41          1           0        5.276643    0.430843    1.811737
     42          1           0        7.188301    0.050107    0.282720
     43          1           0        6.868198   -1.257237   -1.808219
     44          1           0        4.625996   -2.183988   -2.353893
     45          1           0        2.715672   -1.802798   -0.818401
 ---------------------------------------------------------------------

 The electronic state is 1-A.
 Alpha  occ. eigenvalues --  -19.16758 -19.11709 -19.11253 -14.40024 -14.38975
 Alpha  occ. eigenvalues --  -14.36434 -14.33098 -10.31487 -10.29356 -10.27380
 Alpha  occ. eigenvalues --  -10.25962 -10.25440 -10.24475 -10.24442 -10.23112
 Alpha  occ. eigenvalues --  -10.20845 -10.20112 -10.19946 -10.19883 -10.19833
 Alpha  occ. eigenvalues --  -10.19723 -10.19154 -10.18825 -10.18323 -10.17435
 Alpha  occ. eigenvalues --   -1.06056  -1.03404  -1.01528  -1.01256  -0.99338
 Alpha  occ. eigenvalues --   -0.90847  -0.90246  -0.86631  -0.82657  -0.78948
 Alpha  occ. eigenvalues --   -0.76880  -0.75309  -0.74835  -0.71436  -0.70030
 Alpha  occ. eigenvalues --   -0.69095  -0.65913  -0.64781  -0.61590  -0.61134
 Alpha  occ. eigenvalues --   -0.60325  -0.58732  -0.56744  -0.53829  -0.52845
 Alpha  occ. eigenvalues --   -0.52238  -0.51752  -0.50910  -0.50485  -0.48875
 Alpha  occ. eigenvalues --   -0.48196  -0.47353  -0.46760  -0.45618  -0.45410
 Alpha  occ. eigenvalues --   -0.45000  -0.44452  -0.43160  -0.42898  -0.41729
 Alpha  occ. eigenvalues --   -0.41378  -0.40502  -0.40298  -0.39751  -0.39213
 Alpha  occ. eigenvalues --   -0.38844  -0.38732  -0.38258  -0.36898  -0.36473
 Alpha  occ. eigenvalues --   -0.36304  -0.35815  -0.35110  -0.34971  -0.32342
 Alpha  occ. eigenvalues --   -0.29834  -0.29706  -0.28563  -0.27720  -0.26020
 Alpha  occ. eigenvalues --   -0.25927  -0.25454  -0.24795  -0.22663  -0.20271
 Alpha virt. eigenvalues --   -0.03393  -0.01660  -0.01036  -0.00329   0.01603
 Alpha virt. eigenvalues --    0.07179   0.08000   0.09475   0.10086   0.10546
 Alpha virt. eigenvalues --    0.11811   0.12137   0.12591   0.13004   0.13309

 Mulliken charges:
               1
     1  C   -0.473752
     2  C    0.141314
     3  C   -0.451895
     4  O   -0.494525
     5  C    0.052925
     6  N   -0.558169
     7  C    0.701777
     8  N   -0.790162
     9  N   -0.608048
    10  C    0.491300
    11  C   -0.014505
    12  C    0.021553
    13  C    0.177813
    14  O   -0.402128
    15  C    0.004862
    16  N   -0.486298
    17  C   -0.260757
    18  C    0.171713
    19  C   -0.188819
    20  C   -0.126232
    21  C   -0.126656
    22  C   -0.127997
    23  C   -0.174288
    24  C    0.563589
    25  O   -0.508790
    26  H    0.149848
    27  H    0.188890
    28  H    0.148731
    29  H    0.140089
    30  H    0.151361
    31  H    0.156257
    32  H    0.144494
    33  H    0.205674
    34  H    0.175824
    35  H    0.343280
    36  H    0.364566
    37  H    0.082507
    38  H    0.166832
    39  H    0.199315
    40  H    0.165601
    41  H    0.125757
    42  H    0.134702
    43  H    0.135101
    44  H    0.136497
    45  H    0.150848
 Sum of Mulliken charges =  -0.00000

 Dipole moment (field-independent basis, Debye):
    X=              2.5490    Y=             -5.6567    Z=              2.8059  Tot=              6.8095
 Quadrupole moment (field-independent basis, Debye-Ang):
   XX=           -122.1086   YY=           -158.4681   ZZ=           -139.2595
   XY=             14.6229   XZ=             -2.4874   YZ=              8.0290

 Normal termination of Gaussian 16 at Fri Nov  4 19:12:17 2022.
