 Gaussian 16, Revision B.01,
 Gaussian 16:  ES64L-G16RevB.01 20-Dec-2017

 -------------------------------------------------------------------
 #p b3lyp/6-31g(d) 6D 10F nosymm GFInput td=(50-50,nstate=2) SCF=XQC
 -------------------------------------------------------------------

 ------------------------------
 Gaussian input prepared by ASE
 ------------------------------
 Symbolic Z-matrix:
 Charge =  0 Multiplicity = 1

                          Input orientation:
 ---------------------------------------------------------------------
 Center     Atomic      Atomic             Coordinates (Angstroms)
 Number     Number       Type             X           Y           Z
 ---------------------------------------------------------------------
      1          6           0       -5.480733   -0.027512    0.620080
      2          6           0       -4.537902    0.326188   -0.529087
      3          6           0       -5.269744    0.540607   -1.848602
      4          8           0       -3.829729    1.566199   -0.277013
      5          6           0       -2.878659    1.544158    0.765350
      6          7           0       -1.681802    0.757749    0.442896
      7          6           0       -0.852514    1.176690   -0.578210
      8          7           0       -1.257976    2.280667   -1.286342
      9          7           0        0.296288    0.612145   -0.874696
     10          6           0        0.607442   -0.444350   -0.085298
     11          6           0       -0.150344   -1.014058    0.940801
     12          6           0        0.607286   -2.133749    1.449594
     13          6           0        0.340730   -3.105992    2.508478
     14          8           0       -0.646368   -3.167160    3.215568
     15          6           0        1.773537   -2.173409    0.707999
     16          7           0        1.775391   -1.163759   -0.223600
     17          6           0        2.840094   -0.865693   -1.185682
     18          6           0        4.050809   -0.199517   -0.560146
     19          6           0        5.273663   -0.872901   -0.481557
     20          6           0        6.388025   -0.259078    0.095564
     21          6           0        6.285576    1.036239    0.601732
     22          6           0        5.066959    1.716887    0.525311
     23          6           0        3.957251    1.104321   -0.053702
     24          6           0       -1.421263   -0.420588    1.259141
     25          8           0       -2.247360   -0.761869    2.090714
     26          1           0       -6.069403   -0.912867    0.354958
     27          1           0       -4.930689   -0.266343    1.534616
     28          1           0       -6.171459    0.800403    0.816757
     29          1           0       -3.797274   -0.477038   -0.649054
     30          1           0       -5.805890   -0.368703   -2.139354
     31          1           0       -5.995878    1.355876   -1.755444
     32          1           0       -4.566032    0.795868   -2.648068
     33          1           0       -3.271438    1.122658    1.689212
     34          1           0       -2.584036    2.585772    0.911756
     35          1           0       -0.686105    2.454837   -2.102486
     36          1           0       -2.259881    2.375549   -1.422846
     37          1           0        1.169592   -3.843865    2.629867
     38          1           0        2.609678   -2.854880    0.783810
     39          1           0        2.385525   -0.218903   -1.940226
     40          1           0        3.129743   -1.802567   -1.672663
     41          1           0        5.358471   -1.882716   -0.877991
     42          1           0        7.332426   -0.793962    0.149338
     43          1           0        7.150269    1.515796    1.052377
     44          1           0        4.983280    2.727954    0.914802
     45          1           0        3.010444    1.634911   -0.117452
 ---------------------------------------------------------------------

 SCF Done:  E(RB3LYP) =  -1142.66495652     A.U. after   15 cycles

 Excitation energies and oscillator strengths:

 Excited state symmetry could not be determined.
 Excited State   1:      Triplet-?Sym    2.9744 eV  416.84 nm  f=0.0000  <S**2>=2.000
      82 -> 91        -0.10509
      90 -> 91         0.67091
 This state for optimization and/or second-order correction.
 Total Energy, E(TD-HF/TD-DFT) =  -1142.55565105
 Copying the excited state density for this state as the 1-particle RhoCI density.

 Excited state symmetry could not be determined.
 Excited State   2:      Triplet-?Sym    3.1861 eV  389.14 nm  f=0.0000  <S**2>=2.000
      87 -> 91        -0.11096
      89 -> 91         0.65888
      89 -> 95        -0.14392

 Excited state symmetry could not be determined.
 Excited State   3:      Singlet-?Sym    3.7363 eV  331.84 nm  f=0.0000  <S**2>=0.000
      89 -> 91         0.67852
      89 -> 95        -0.10678

 Excited state symmetry could not be determined.
 Excited State   4:      Singlet-?Sym    4.1780 eV  296.76 nm  f=0.0958  <S**2>=0.000
      90 -> 91         0.68234

 Alpha  occ. eigenvalues --  -19.16758 -19.11709 -19.11253 -14.40024 -14.38976
 Alpha  occ. eigenvalues --  -14.36434 -14.33099 -10.31487 -10.29356 -10.27380
 Alpha  occ. eigenvalues --  -10.25962 -10.25440 -10.24474 -10.24441 -10.23112
 Alpha  occ. eigenvalues --  -10.20845 -10.20112 -10.19946 -10.19883 -10.19833
 Alpha  occ. eigenvalues --  -10.19723 -10.19154 -10.18825 -10.18323 -10.17435
 Alpha  occ. eigenvalues --   -1.06056  -1.03404  -1.01529  -1.01256  -0.99338
 Alpha  occ. eigenvalues --   -0.90847  -0.90246  -0.86631  -0.82657  -0.78948
 Alpha  occ. eigenvalues --   -0.76880  -0.75309  -0.74835  -0.71436  -0.70030
 Alpha  occ. eigenvalues --   -0.69095  -0.65913  -0.64781  -0.61590  -0.61134
 Alpha  occ. eigenvalues --   -0.60325  -0.58732  -0.56744  -0.53829  -0.52845
 Alpha  occ. eigenvalues --   -0.52238  -0.51752  -0.50910  -0.50486  -0.48875
 Alpha  occ. eigenvalues --   -0.48196  -0.47353  -0.46760  -0.45618  -0.45410
 Alpha  occ. eigenvalues --   -0.45000  -0.44452  -0.43160  -0.42898  -0.41729
 Alpha  occ. eigenvalues --   -0.41378  -0.40502  -0.40298  -0.39751  -0.39213
 Alpha  occ. eigenvalues --   -0.38844  -0.38732  -0.38258  -0.36898  -0.36473
 Alpha  occ. eigenvalues --   -0.36304  -0.35815  -0.35110  -0.34971  -0.32342
 Alpha  occ. eigenvalues --   -0.29834  -0.29706  -0.28563  -0.27720  -0.26020
 Alpha  occ. eigenvalues --   -0.25927  -0.25454  -0.24794  -0.22664  -0.20271
 Alpha virt. eigenvalues --   -0.03393  -0.01660  -0.01036  -0.00329   0.01603
 Alpha virt. eigenvalues --    0.07179   0.08000   0.09475   0.10086   0.10546
 Alpha virt. eigenvalues --    0.11811   0.12137   0.12590   0.13004   0.13309

 Mulliken charges:
               1
     1  C   -0.473759
     2  C    0.141318
     3  C   -0.451894
     4  O   -0.494524
     5  C    0.052909
     6  N   -0.558173
     7  C    0.701749
     8  N   -0.790141
     9  N   -0.608016
    10  C    0.491286
    11  C   -0.014526
    12  C    0.021593
    13  C    0.177809
    14  O   -0.402134
    15  C    0.004850
    16  N   -0.486299
    17  C   -0.260734
    18  C    0.171698
    19  C   -0.188812
    20  C   -0.126235
    21  C   -0.126656
    22  C   -0.127999
    23  C   -0.174284
    24  C    0.563587
    25  O   -0.508795
    26  H    0.149850
    27  H    0.188890
    28  H    0.148731
    29  H    0.140093
    30  H    0.151360
    31  H    0.156257
    32  H    0.144494
    33  H    0.205677
    34  H    0.175827
    35  H    0.343280
    36  H    0.364565
    37  H    0.082507
    38  H    0.166835
    39  H    0.199312
    40  H    0.165599
    41  H    0.125756
    42  H    0.134702
    43  H    0.135101
    44  H    0.136496
    45  H    0.150848
 Sum of Mulliken charges =  -0.00000

 Dipole moment (field-independent basis, Debye):
    X=              2.7966    Y=              2.7124    Z=             -5.5849  Tot=              6.8095
 Quadrupole moment (field-independent basis, Debye-Ang):
   XX=           -122.8470   YY=           -143.2596   ZZ=           -156.3580
   XY=            -11.6166   XZ=             11.5464   YZ=             12.0782

 Normal termination of Gaussian 16 at Sat Nov  5 11:46:58 2022.
