 Gaussian 16, Revision B.01,
 Gaussian 16:  ES64L-G16RevB.01 20-Dec-2017

 -------------------------------------------------------------------
 #p b3lyp/6-31g(d) 6D 10F nosymm GFInput td=(50-50,nstate=2) SCF=XQC
 -------------------------------------------------------------------

 ------------------------------
 Gaussian input prepared by ASE
 ------------------------------
 Symbolic Z-matrix:
 Charge =  0 Multiplicity = 1

                          Input orientation:
 ---------------------------------------------------------------------
 Center     Atomic      Atomic             Coordinates (Angstroms)
 Number     Number       Type             X           Y           Z
 ---------------------------------------------------------------------
      1          6           0       -4.582905   -0.725739   -1.303706
      2          6           0       -4.209426    0.117549   -0.062850
      3          6           0       -4.970380   -0.413899    1.166893
      4          6           0       -4.594591    1.594792   -0.308112
      5          6           0       -2.717697    0.015145    0.195739
      6          7           0       -2.180349   -0.434027    1.283489
      7          7           0       -0.807631   -0.415713    1.300964
      8          6           0       -0.298938    0.045850    0.187717
      9          7           0        1.042463    0.101805   -0.078112
     10          6           0        1.976828   -0.117434    1.023502
     11          6           0        3.326495   -0.553973    0.521768
     12          6           0        4.009197   -1.668634    0.941513
     13          6           0        5.308152   -1.931086    0.426088
     14          7           0        5.925364   -1.165000   -0.450272
     15          6           0        5.256669   -0.070847   -0.870725
     16          6           0        5.568829    0.952140   -1.766094
     17          6           0        4.448712    1.788727   -1.761072
     18          7           0        3.471161    1.371992   -0.936674
     19          7           0        3.968558    0.235566   -0.392610
     20         16           0       -1.500979    0.525355   -1.009736
     21          1           0       -4.076006   -0.366254   -2.206550
     22          1           0       -4.313285   -1.777571   -1.159746
     23          1           0       -5.663206   -0.670590   -1.481583
     24          1           0       -6.049099   -0.342713    0.985573
     25          1           0       -4.717441   -1.458599    1.368118
     26          1           0       -4.726896    0.163090    2.063269
     27          1           0       -4.335457    2.216876    0.555395
     28          1           0       -4.086166    2.006211   -1.187579
     29          1           0       -5.674734    1.676168   -0.476705
     30          1           0        1.364738    0.804112   -0.737552
     31          1           0        1.562291   -0.890787    1.670806
     32          1           0        2.097425    0.792479    1.633507
     33          1           0        3.555186   -2.338239    1.662692
     34          1           0        5.847063   -2.815074    0.761855
     35          1           0        6.483397    1.051270   -2.329678
     36          1           0        4.292659    2.697051   -2.328737
 ---------------------------------------------------------------------

 SCF Done:  E(RB3LYP) =  -1231.67716298     A.U. after   16 cycles

 Excitation energies and oscillator strengths:

 Excited state symmetry could not be determined.
 Excited State   1:      Triplet-?Sym    2.9139 eV  425.49 nm  f=0.0000  <S**2>=2.000
      66 -> 77         0.10524
      73 -> 78        -0.11645
      75 -> 77         0.67950
 This state for optimization and/or second-order correction.
 Total Energy, E(TD-HF/TD-DFT) =  -1231.57007831
 Copying the excited state density for this state as the 1-particle RhoCI density.

 Excited state symmetry could not be determined.
 Excited State   2:      Triplet-?Sym    3.5612 eV  348.15 nm  f=0.0000  <S**2>=2.000
      76 -> 77        -0.38146
      76 -> 78         0.13500
      76 -> 79         0.56038

 Excited state symmetry could not be determined.
 Excited State   3:      Singlet-?Sym    3.7032 eV  334.81 nm  f=0.0057  <S**2>=0.000
      76 -> 77         0.70458

 Excited state symmetry could not be determined.
 Excited State   4:      Singlet-?Sym    4.0120 eV  309.04 nm  f=0.0561  <S**2>=0.000
      75 -> 77         0.69542

 Alpha  occ. eigenvalues --  -88.90897 -14.44841 -14.36802 -14.36757 -14.35346
 Alpha  occ. eigenvalues --  -14.35139 -14.34036 -10.28441 -10.27530 -10.26986
 Alpha  occ. eigenvalues --  -10.25021 -10.24877 -10.24495 -10.22894 -10.21923
 Alpha  occ. eigenvalues --  -10.21630 -10.19260 -10.18133 -10.18123 -10.17132
 Alpha  occ. eigenvalues --   -7.97113  -5.93501  -5.93192  -5.92761  -1.08246
 Alpha  occ. eigenvalues --   -1.01906  -0.95976  -0.95176  -0.88622  -0.84113
 Alpha  occ. eigenvalues --   -0.80549  -0.79157  -0.77933  -0.77442  -0.72929
 Alpha  occ. eigenvalues --   -0.69037  -0.68429  -0.66066  -0.64895  -0.62877
 Alpha  occ. eigenvalues --   -0.61316  -0.58789  -0.55261  -0.53333  -0.52307
 Alpha  occ. eigenvalues --   -0.50607  -0.50212  -0.49233  -0.47660  -0.46299
 Alpha  occ. eigenvalues --   -0.45588  -0.44877  -0.44369  -0.42969  -0.42601
 Alpha  occ. eigenvalues --   -0.41909  -0.41731  -0.41341  -0.40678  -0.39198
 Alpha  occ. eigenvalues --   -0.38156  -0.38096  -0.36704  -0.35399  -0.34120
 Alpha  occ. eigenvalues --   -0.33469  -0.33297  -0.32929  -0.31822  -0.28879
 Alpha  occ. eigenvalues --   -0.27863  -0.27630  -0.27102  -0.25166  -0.23360
 Alpha  occ. eigenvalues --   -0.22055
 Alpha virt. eigenvalues --   -0.06074  -0.02099  -0.00989   0.00430   0.05030
 Alpha virt. eigenvalues --    0.05198   0.07992   0.08932   0.09854   0.11028
 Alpha virt. eigenvalues --    0.12127   0.12586   0.13208   0.14143   0.14677

 Mulliken charges:
               1
     1  C   -0.447714
     2  C    0.023918
     3  C   -0.430657
     4  C   -0.447056
     5  C    0.129278
     6  N   -0.279506
     7  N   -0.339769
     8  C    0.335359
     9  N   -0.642476
    10  C   -0.195440
    11  C    0.416410
    12  C   -0.245317
    13  C    0.050105
    14  N   -0.469788
    15  C    0.550846
    16  C   -0.267853
    17  C    0.063518
    18  N   -0.341006
    19  N   -0.387722
    20  S    0.164879
    21  H    0.150282
    22  H    0.158146
    23  H    0.146812
    24  H    0.134241
    25  H    0.160241
    26  H    0.160869
    27  H    0.157887
    28  H    0.149870
    29  H    0.146940
    30  H    0.370440
    31  H    0.211095
    32  H    0.183147
    33  H    0.160471
    34  H    0.157103
    35  H    0.153909
    36  H    0.158535
 Sum of Mulliken charges =  -0.00000

 Dipole moment (field-independent basis, Debye):
    X=              0.3889    Y=              0.6382    Z=             -1.0809  Tot=              1.3141
 Quadrupole moment (field-independent basis, Debye-Ang):
   XX=           -118.9075   YY=           -119.8065   ZZ=           -124.8624
   XY=             -1.6136   XZ=              7.3864   YZ=             -4.6425

 Normal termination of Gaussian 16 at Sat Nov  5 11:37:25 2022.
