 Gaussian 16, Revision B.01,
 Gaussian 16:  ES64L-G16RevB.01 20-Dec-2017

 -----------------------------
 #p b3lyp/6-31g(d) opt SCF=XQC
 -----------------------------

 ------------------------------
 Gaussian input prepared by ASE
 ------------------------------
 Symbolic Z-matrix:
 Charge =  0 Multiplicity = 1

 SCF Done:  E(RB3LYP) =  -1231.66932738     A.U. after   16 cycles
 SCF Done:  E(RB3LYP) =  -1231.67551991     A.U. after   13 cycles
 SCF Done:  E(RB3LYP) =  -1231.67634566     A.U. after   12 cycles
 SCF Done:  E(RB3LYP) =  -1231.67688126     A.U. after   12 cycles
 SCF Done:  E(RB3LYP) =  -1231.67704378     A.U. after   12 cycles
 SCF Done:  E(RB3LYP) =  -1231.67710778     A.U. after   11 cycles
 SCF Done:  E(RB3LYP) =  -1231.67713336     A.U. after   10 cycles
 SCF Done:  E(RB3LYP) =  -1231.67714746     A.U. after   10 cycles
 SCF Done:  E(RB3LYP) =  -1231.67715339     A.U. after   10 cycles
 SCF Done:  E(RB3LYP) =  -1231.67715698     A.U. after   10 cycles
 SCF Done:  E(RB3LYP) =  -1231.67716401     A.U. after   11 cycles
 SCF Done:  E(RB3LYP) =  -1231.67716629     A.U. after   11 cycles
 SCF Done:  E(RB3LYP) =  -1231.67716725     A.U. after    8 cycles
 SCF Done:  E(RB3LYP) =  -1231.67716744     A.U. after    8 cycles
 Optimization completed.
    -- Stationary point found.

                         Standard orientation:
 ---------------------------------------------------------------------
 Center     Atomic      Atomic             Coordinates (Angstroms)
 Number     Number       Type             X           Y           Z
 ---------------------------------------------------------------------
      1          6           0        5.066194    0.364052    1.664246
      2          6           0        4.790563    0.087280    0.168329
      3          6           0        5.598855   -1.144181   -0.283251
      4          6           0        5.212562    1.316094   -0.669935
      5          6           0        3.312576   -0.187941   -0.037626
      6          7           0        2.820362   -1.279128   -0.528274
      7          7           0        1.452112   -1.297422   -0.640321
      8          6           0        0.899512   -0.194024   -0.206415
      9          7           0       -0.451690    0.013912   -0.141862
     10          6           0       -1.331381   -0.928907   -0.828807
     11          6           0       -2.720769   -0.905821   -0.251766
     12          6           0       -3.417596   -2.003325    0.189427
     13          6           0       -4.751109   -1.846039    0.657223
     14          7           0       -5.388509   -0.693859    0.702470
     15          6           0       -4.706406    0.389355    0.275285
     16          6           0       -5.031553    1.741928    0.173028
     17          6           0       -3.884592    2.349247   -0.346789
     18          7           0       -2.878376    1.487160   -0.577536
     19          7           0       -3.384237    0.289410   -0.197571
     20         16           0        2.050069    1.005035    0.382819
     21          1           0        4.523372    1.247037    2.020594
     22          1           0        4.768659   -0.489282    2.283167
     23          1           0        6.136400    0.543240    1.820075
     24          1           0        6.667849   -0.951184   -0.136334
     25          1           0        5.321347   -2.032435    0.291084
     26          1           0        5.424887   -1.366658   -1.339627
     27          1           0        5.022736    1.148578   -1.735622
     28          1           0        4.671291    2.219592   -0.366717
     29          1           0        6.284025    1.507420   -0.539110
     30          1           0       -0.785104    0.972424   -0.187139
     31          1           0       -0.909019   -1.928167   -0.719228
     32          1           0       -1.386886   -0.711610   -1.907830
     33          1           0       -2.948213   -2.980106    0.176274
     34          1           0       -5.301071   -2.718414    1.005225
     35          1           0       -5.971622    2.195673    0.445561
     36          1           0       -3.728536    3.396524   -0.571518
 ---------------------------------------------------------------------

 The electronic state is 1-A.
 Alpha  occ. eigenvalues --  -88.90898 -14.44841 -14.36802 -14.36757 -14.35346
 Alpha  occ. eigenvalues --  -14.35139 -14.34036 -10.28441 -10.27530 -10.26986
 Alpha  occ. eigenvalues --  -10.25022 -10.24877 -10.24495 -10.22894 -10.21923
 Alpha  occ. eigenvalues --  -10.21630 -10.19261 -10.18133 -10.18123 -10.17132
 Alpha  occ. eigenvalues --   -7.97113  -5.93501  -5.93193  -5.92761  -1.08246
 Alpha  occ. eigenvalues --   -1.01906  -0.95976  -0.95176  -0.88622  -0.84113
 Alpha  occ. eigenvalues --   -0.80549  -0.79157  -0.77933  -0.77442  -0.72929
 Alpha  occ. eigenvalues --   -0.69037  -0.68429  -0.66066  -0.64895  -0.62877
 Alpha  occ. eigenvalues --   -0.61316  -0.58789  -0.55261  -0.53333  -0.52307
 Alpha  occ. eigenvalues --   -0.50607  -0.50212  -0.49233  -0.47660  -0.46299
 Alpha  occ. eigenvalues --   -0.45588  -0.44877  -0.44369  -0.42969  -0.42601
 Alpha  occ. eigenvalues --   -0.41909  -0.41731  -0.41341  -0.40678  -0.39198
 Alpha  occ. eigenvalues --   -0.38156  -0.38096  -0.36704  -0.35399  -0.34120
 Alpha  occ. eigenvalues --   -0.33469  -0.33297  -0.32929  -0.31822  -0.28879
 Alpha  occ. eigenvalues --   -0.27864  -0.27630  -0.27102  -0.25166  -0.23360
 Alpha  occ. eigenvalues --   -0.22055
 Alpha virt. eigenvalues --   -0.06074  -0.02099  -0.00989   0.00430   0.05030
 Alpha virt. eigenvalues --    0.05198   0.07992   0.08932   0.09854   0.11028
 Alpha virt. eigenvalues --    0.12127   0.12586   0.13208   0.14143   0.14677

 Mulliken charges:
               1
     1  C   -0.447714
     2  C    0.023922
     3  C   -0.430658
     4  C   -0.447053
     5  C    0.129273
     6  N   -0.279500
     7  N   -0.339770
     8  C    0.335360
     9  N   -0.642472
    10  C   -0.195434
    11  C    0.416392
    12  C   -0.245315
    13  C    0.050103
    14  N   -0.469781
    15  C    0.550814
    16  C   -0.267839
    17  C    0.063512
    18  N   -0.341007
    19  N   -0.387691
    20  S    0.164868
    21  H    0.150282
    22  H    0.158146
    23  H    0.146812
    24  H    0.134241
    25  H    0.160242
    26  H    0.160869
    27  H    0.157886
    28  H    0.149871
    29  H    0.146940
    30  H    0.370442
    31  H    0.211093
    32  H    0.183147
    33  H    0.160471
    34  H    0.157103
    35  H    0.153910
    36  H    0.158535
 Sum of Mulliken charges =  -0.00000

 Dipole moment (field-independent basis, Debye):
    X=             -0.4253    Y=              1.2080    Z=              0.2946  Tot=              1.3141
 Quadrupole moment (field-independent basis, Debye-Ang):
   XX=           -120.1404   YY=           -117.7231   ZZ=           -126.4881
   XY=              7.2116   XZ=              4.8229   YZ=             -2.1076

 Normal termination of Gaussian 16 at Fri Nov  4 18:54:21 2022.
