 Gaussian 16, Revision B.01,
 Gaussian 16:  ES64L-G16RevB.01 20-Dec-2017

 -----------------------------
 #p b3lyp/6-31g(d) opt SCF=XQC
 -----------------------------

 ------------------------------
 Gaussian input prepared by ASE
 ------------------------------
 Symbolic Z-matrix:
 Charge =  0 Multiplicity = 1

 SCF Done:  E(RB3LYP) =  -1375.93199368     A.U. after   15 cycles
 SCF Done:  E(RB3LYP) =  -1375.93614245     A.U. after   12 cycles
 SCF Done:  E(RB3LYP) =  -1375.93539031     A.U. after   12 cycles
 SCF Done:  E(RB3LYP) =  -1375.93675635     A.U. after   12 cycles
 SCF Done:  E(RB3LYP) =  -1375.93708996     A.U. after   11 cycles
 SCF Done:  E(RB3LYP) =  -1375.93723694     A.U. after   11 cycles
 SCF Done:  E(RB3LYP) =  -1375.93728266     A.U. after   11 cycles
 SCF Done:  E(RB3LYP) =  -1375.93732122     A.U. after   10 cycles
 SCF Done:  E(RB3LYP) =  -1375.93737921     A.U. after   11 cycles
 SCF Done:  E(RB3LYP) =  -1375.93740568     A.U. after   11 cycles
 SCF Done:  E(RB3LYP) =  -1375.93769880     A.U. after   12 cycles
 SCF Done:  E(RB3LYP) =  -1375.93836697     A.U. after   12 cycles
 SCF Done:  E(RB3LYP) =  -1375.93836183     A.U. after   10 cycles
 SCF Done:  E(RB3LYP) =  -1375.93838289     A.U. after   11 cycles
 SCF Done:  E(RB3LYP) =  -1375.93838268     A.U. after    9 cycles
 SCF Done:  E(RB3LYP) =  -1375.93838822     A.U. after   10 cycles
 SCF Done:  E(RB3LYP) =  -1375.93838828     A.U. after    8 cycles
 SCF Done:  E(RB3LYP) =  -1375.93838840     A.U. after    8 cycles
 SCF Done:  E(RB3LYP) =  -1375.93838842     A.U. after    7 cycles
 SCF Done:  E(RB3LYP) =  -1375.93838845     A.U. after    7 cycles
 Optimization completed.
    -- Stationary point found.

                         Standard orientation:
 ---------------------------------------------------------------------
 Center     Atomic      Atomic             Coordinates (Angstroms)
 Number     Number       Type             X           Y           Z
 ---------------------------------------------------------------------
      1          8           0       -1.529637    3.672810   -0.237907
      2          6           0       -2.007835    2.585386    0.076297
      3          6           0       -2.993228    2.469946    1.246822
      4          6           0       -4.238511    1.620639    1.012206
      5          8           0       -3.827026    0.251642    0.917303
      6          6           0       -4.734595   -0.683617    0.512342
      7          6           0       -6.123297   -0.539959    0.537615
      8          6           0       -6.941844   -1.593918    0.115275
      9          6           0       -6.387202   -2.790287   -0.332860
     10          6           0       -4.996323   -2.940414   -0.370162
     11          6           0       -4.195932   -1.891594    0.044845
     12          9           0       -2.848663   -2.003465   -0.007065
     13          7           0       -1.694821    1.419929   -0.555083
     14          6           0       -0.718921    1.365592   -1.642449
     15          6           0        0.687660    1.022570   -1.189010
     16          6           0        1.448425    1.955307   -0.461873
     17          6           0        2.731778    1.648875   -0.032230
     18          6           0        3.287932    0.395382   -0.324265
     19          8           0        4.563453    0.192430    0.143542
     20          6           0        5.177499   -1.045155   -0.121607
     21          6           0        6.564768   -1.012222    0.495262
     22          9           0        6.518605   -0.834529    1.826636
     23          9           0        7.177166   -2.193699    0.252937
     24          9           0        7.324914   -0.035850   -0.028939
     25          6           0        2.551267   -0.544338   -1.047227
     26          6           0        1.257313   -0.218295   -1.470421
     27          1           0       -2.459440    2.073160    2.120437
     28          1           0       -3.298479    3.491564    1.488144
     29          1           0       -4.757521    1.913588    0.089859
     30          1           0       -4.933784    1.740052    1.853511
     31          1           0       -6.568404    0.384266    0.889301
     32          1           0       -8.020320   -1.469318    0.142267
     33          1           0       -7.025649   -3.605705   -0.658139
     34          1           0       -4.525704   -3.852261   -0.723379
     35          1           0       -2.068977    0.553858   -0.186394
     36          1           0       -1.066652    0.626950   -2.372905
     37          1           0       -0.735521    2.348671   -2.120026
     38          1           0        1.018279    2.927314   -0.236903
     39          1           0        3.327029    2.364271    0.526571
     40          1           0        4.625923   -1.882659    0.325322
     41          1           0        5.287832   -1.227618   -1.198600
     42          1           0        2.959420   -1.519916   -1.287327
     43          1           0        0.689486   -0.956297   -2.033135
 ---------------------------------------------------------------------

 The electronic state is 1-A.
 Alpha  occ. eigenvalues --  -24.72812 -24.72535 -24.72533 -24.71802 -19.19949
 Alpha  occ. eigenvalues --  -19.19218 -19.10610 -14.35174 -10.43483 -10.28308
 Alpha  occ. eigenvalues --  -10.28025 -10.26991 -10.26786 -10.26414 -10.25336
 Alpha  occ. eigenvalues --  -10.22109 -10.20905 -10.20815 -10.20590 -10.20430
 Alpha  occ. eigenvalues --  -10.20400 -10.19408 -10.19331 -10.19058 -10.18715
 Alpha  occ. eigenvalues --  -10.18655  -1.30511  -1.22758  -1.21824  -1.21721
 Alpha  occ. eigenvalues --   -1.08482  -1.08124  -1.02428  -0.91486  -0.87051
 Alpha  occ. eigenvalues --   -0.85527  -0.80433  -0.79426  -0.76375  -0.75587
 Alpha  occ. eigenvalues --   -0.74780  -0.74315  -0.69304  -0.67125  -0.65983
 Alpha  occ. eigenvalues --   -0.62677  -0.61778  -0.61500  -0.60034  -0.58744
 Alpha  occ. eigenvalues --   -0.58062  -0.57454  -0.56312  -0.55109  -0.54039
 Alpha  occ. eigenvalues --   -0.53356  -0.52235  -0.51063  -0.49255  -0.48784
 Alpha  occ. eigenvalues --   -0.47832  -0.47580  -0.47053  -0.46097  -0.45994
 Alpha  occ. eigenvalues --   -0.45685  -0.45608  -0.45297  -0.44567  -0.43461
 Alpha  occ. eigenvalues --   -0.42309  -0.41963  -0.41711  -0.41524  -0.40778
 Alpha  occ. eigenvalues --   -0.40218  -0.40117  -0.40005  -0.39140  -0.38263
 Alpha  occ. eigenvalues --   -0.38110  -0.37697  -0.37520  -0.36432  -0.35779
 Alpha  occ. eigenvalues --   -0.35688  -0.34463  -0.33342  -0.33212  -0.32309
 Alpha  occ. eigenvalues --   -0.26284  -0.25395  -0.25100  -0.24246  -0.23635
 Alpha  occ. eigenvalues --   -0.22154
 Alpha virt. eigenvalues --   -0.01385  -0.00526  -0.00332   0.00392   0.03011
 Alpha virt. eigenvalues --    0.06183   0.08588   0.09101   0.09187   0.10709
 Alpha virt. eigenvalues --    0.11530   0.12319   0.12489   0.12871   0.13434

 Mulliken charges:
               1
     1  O   -0.528205
     2  C    0.592849
     3  C   -0.380515
     4  C   -0.047892
     5  O   -0.532875
     6  C    0.322602
     7  C   -0.189832
     8  C   -0.136328
     9  C   -0.132371
    10  C   -0.198789
    11  C    0.325415
    12  F   -0.293134
    13  N   -0.585071
    14  C   -0.234164
    15  C    0.169501
    16  C   -0.187582
    17  C   -0.174594
    18  C    0.377078
    19  O   -0.519479
    20  C   -0.134572
    21  C    0.806720
    22  F   -0.255665
    23  F   -0.273086
    24  F   -0.255387
    25  C   -0.190963
    26  C   -0.198024
    27  H    0.182398
    28  H    0.179625
    29  H    0.159710
    30  H    0.152080
    31  H    0.146716
    32  H    0.138895
    33  H    0.139814
    34  H    0.151206
    35  H    0.352744
    36  H    0.148778
    37  H    0.190032
    38  H    0.168838
    39  H    0.146168
    40  H    0.168348
    41  H    0.168486
    42  H    0.133509
    43  H    0.127017
 Sum of Mulliken charges =  -0.00000

 Dipole moment (field-independent basis, Debye):
    X=             -5.1856    Y=             -3.2376    Z=             -0.5033  Tot=              6.1340
 Quadrupole moment (field-independent basis, Debye-Ang):
   XX=           -135.4255   YY=           -151.4238   ZZ=           -144.8811
   XY=             -1.4461   XZ=             -7.5795   YZ=              8.8977

 Normal termination of Gaussian 16 at Fri Nov  4 19:26:45 2022.
