 Gaussian 16, Revision B.01,
 Gaussian 16:  ES64L-G16RevB.01 20-Dec-2017

 -------------------------------------------------------------------
 #p b3lyp/6-31g(d) 6D 10F nosymm GFInput td=(50-50,nstate=2) SCF=XQC
 -------------------------------------------------------------------

 ------------------------------
 Gaussian input prepared by ASE
 ------------------------------
 Symbolic Z-matrix:
 Charge =  0 Multiplicity = 1

                          Input orientation:
 ---------------------------------------------------------------------
 Center     Atomic      Atomic             Coordinates (Angstroms)
 Number     Number       Type             X           Y           Z
 ---------------------------------------------------------------------
      1          8           0        0.044829   -3.079919    1.988139
      2          6           0        0.744508   -2.120670    1.671626
      3          6           0        1.767931   -1.537238    2.654817
      4          6           0        3.152743   -1.224835    2.096431
      5          8           0        3.026996   -0.112363    1.202523
      6          6           0        4.093750    0.232864    0.424552
      7          6           0        5.423902   -0.123180    0.656281
      8          6           0        6.427281    0.323078   -0.211650
      9          6           0        6.115415    1.121225   -1.309582
     10          6           0        4.784088    1.475908   -1.555023
     11          6           0        3.799300    1.026181   -0.694316
     12          9           0        2.502378    1.333930   -0.925897
     13          7           0        0.657150   -1.497095    0.463970
     14          6           0       -0.319754   -1.899134   -0.546832
     15          6           0       -1.612059   -1.105600   -0.502154
     16          6           0       -2.524834   -1.290615    0.551459
     17          6           0       -3.704772   -0.562653    0.608961
     18          6           0       -4.001683    0.371070   -0.393956
     19          8           0       -5.193940    1.037054   -0.245719
     20          6           0       -5.549924    1.984234   -1.223011
     21          6           0       -6.895175    2.568530   -0.829276
     22          9           0       -6.845711    3.184007    0.364460
     23          9           0       -7.260315    3.483810   -1.755870
     24          9           0       -7.854428    1.629026   -0.773829
     25          6           0       -3.110933    0.568496   -1.450370
     26          6           0       -1.924434   -0.173344   -1.490467
     27          1           0        1.353390   -0.620165    3.093800
     28          1           0        1.865188   -2.269040    3.461121
     29          1           0        3.572558   -2.084442    1.557222
     30          1           0        3.834273   -0.964420    2.916894
     31          1           0        5.681267   -0.739678    1.510500
     32          1           0        7.457848    0.040418   -0.018259
     33          1           0        6.896796    1.466378   -1.979390
     34          1           0        4.499186    2.086364   -2.405838
     35          1           0        1.211459   -0.663760    0.308093
     36          1           0        0.149134   -1.794569   -1.531355
     37          1           0       -0.518971   -2.960402   -0.377063
     38          1           0       -2.295737   -2.015309    1.327841
     39          1           0       -4.416327   -0.701759    1.416868
     40          1           0       -4.825475    2.807077   -1.282153
     41          1           0       -5.653440    1.530676   -2.217470
     42          1           0       -3.318244    1.283279   -2.239102
     43          1           0       -1.235212   -0.013413   -2.316976
 ---------------------------------------------------------------------

 SCF Done:  E(RB3LYP) =  -1375.93839181     A.U. after   14 cycles

 Excitation energies and oscillator strengths:

 Excited state symmetry could not be determined.
 Excited State   1:      Triplet-?Sym    3.7082 eV  334.35 nm  f=0.0000  <S**2>=2.000
      92 -> 99        -0.28724
      93 -> 99         0.31431
      96 ->100         0.52965
      96 ->101        -0.12461
 This state for optimization and/or second-order correction.
 Total Energy, E(TD-HF/TD-DFT) =  -1375.80211740
 Copying the excited state density for this state as the 1-particle RhoCI density.

 Excited state symmetry could not be determined.
 Excited State   2:      Triplet-?Sym    3.7270 eV  332.67 nm  f=0.0000  <S**2>=2.000
      91 -> 97         0.41604
      95 -> 98         0.55626

 Excited state symmetry could not be determined.
 Excited State   3:      Singlet-?Sym    5.1457 eV  240.95 nm  f=0.0170  <S**2>=0.000
      92 ->100         0.22428
      93 ->100        -0.23356
      96 -> 99         0.61955

 Excited state symmetry could not be determined.
 Excited State   4:      Singlet-?Sym    5.2192 eV  237.55 nm  f=0.0287  <S**2>=0.000
      91 -> 98        -0.32183
      95 -> 97         0.52995
      96 -> 97        -0.33243

 Alpha  occ. eigenvalues --  -24.72812 -24.72535 -24.72532 -24.71802 -19.19948
 Alpha  occ. eigenvalues --  -19.19218 -19.10610 -14.35174 -10.43483 -10.28308
 Alpha  occ. eigenvalues --  -10.28025 -10.26991 -10.26786 -10.26414 -10.25336
 Alpha  occ. eigenvalues --  -10.22109 -10.20905 -10.20815 -10.20590 -10.20430
 Alpha  occ. eigenvalues --  -10.20400 -10.19408 -10.19331 -10.19058 -10.18714
 Alpha  occ. eigenvalues --  -10.18655  -1.30511  -1.22758  -1.21824  -1.21721
 Alpha  occ. eigenvalues --   -1.08482  -1.08124  -1.02428  -0.91486  -0.87051
 Alpha  occ. eigenvalues --   -0.85527  -0.80433  -0.79426  -0.76375  -0.75587
 Alpha  occ. eigenvalues --   -0.74780  -0.74315  -0.69304  -0.67125  -0.65983
 Alpha  occ. eigenvalues --   -0.62677  -0.61778  -0.61500  -0.60034  -0.58744
 Alpha  occ. eigenvalues --   -0.58062  -0.57454  -0.56312  -0.55109  -0.54039
 Alpha  occ. eigenvalues --   -0.53356  -0.52235  -0.51063  -0.49255  -0.48783
 Alpha  occ. eigenvalues --   -0.47832  -0.47580  -0.47053  -0.46097  -0.45994
 Alpha  occ. eigenvalues --   -0.45685  -0.45608  -0.45297  -0.44567  -0.43461
 Alpha  occ. eigenvalues --   -0.42310  -0.41963  -0.41711  -0.41524  -0.40778
 Alpha  occ. eigenvalues --   -0.40218  -0.40117  -0.40005  -0.39140  -0.38263
 Alpha  occ. eigenvalues --   -0.38110  -0.37697  -0.37520  -0.36432  -0.35779
 Alpha  occ. eigenvalues --   -0.35688  -0.34463  -0.33342  -0.33212  -0.32309
 Alpha  occ. eigenvalues --   -0.26284  -0.25395  -0.25100  -0.24246  -0.23635
 Alpha  occ. eigenvalues --   -0.22154
 Alpha virt. eigenvalues --   -0.01385  -0.00526  -0.00332   0.00392   0.03011
 Alpha virt. eigenvalues --    0.06183   0.08588   0.09101   0.09187   0.10709
 Alpha virt. eigenvalues --    0.11530   0.12319   0.12489   0.12871   0.13434

 Mulliken charges:
               1
     1  O   -0.528204
     2  C    0.592852
     3  C   -0.380516
     4  C   -0.047901
     5  O   -0.532872
     6  C    0.322593
     7  C   -0.189840
     8  C   -0.136319
     9  C   -0.132376
    10  C   -0.198791
    11  C    0.325432
    12  F   -0.293135
    13  N   -0.585069
    14  C   -0.234172
    15  C    0.169528
    16  C   -0.187585
    17  C   -0.174609
    18  C    0.377097
    19  O   -0.519477
    20  C   -0.134574
    21  C    0.806717
    22  F   -0.255666
    23  F   -0.273085
    24  F   -0.255386
    25  C   -0.190965
    26  C   -0.198041
    27  H    0.182398
    28  H    0.179625
    29  H    0.159712
    30  H    0.152081
    31  H    0.146717
    32  H    0.138894
    33  H    0.139813
    34  H    0.151205
    35  H    0.352744
    36  H    0.148779
    37  H    0.190034
    38  H    0.168838
    39  H    0.146168
    40  H    0.168349
    41  H    0.168488
    42  H    0.133509
    43  H    0.127013
 Sum of Mulliken charges =  -0.00000

 Dipole moment (field-independent basis, Debye):
    X=              5.7199    Y=              1.3349    Z=             -1.7680  Tot=              6.1339
 Quadrupole moment (field-independent basis, Debye-Ang):
   XX=           -144.2783   YY=           -157.3440   ZZ=           -137.1695
   XY=             -0.2875   XZ=              8.1085   YZ=             -1.6184

 Normal termination of Gaussian 16 at Sat Nov  5 11:57:32 2022.
