 Gaussian 16, Revision B.01,
 Gaussian 16:  ES64L-G16RevB.01 20-Dec-2017

 -------------------------------------------------------------------
 #p b3lyp/6-31g(d) 6D 10F nosymm GFInput td=(50-50,nstate=2) SCF=XQC
 -------------------------------------------------------------------

 ------------------------------
 Gaussian input prepared by ASE
 ------------------------------
 Symbolic Z-matrix:
 Charge =  0 Multiplicity = 1

                          Input orientation:
 ---------------------------------------------------------------------
 Center     Atomic      Atomic             Coordinates (Angstroms)
 Number     Number       Type             X           Y           Z
 ---------------------------------------------------------------------
      1          6           0       -6.445730    1.483203    1.302963
      2          6           0       -5.318082    1.160817    0.348594
      3          6           0       -5.489935    1.292614   -1.034351
      4          6           0       -4.449942    0.965772   -1.905748
      5          6           0       -3.233548    0.507854   -1.410912
      6          6           0       -3.048174    0.374329   -0.025591
      7          7           0       -1.794790   -0.089157    0.418693
      8          6           0       -1.351841   -0.320902    1.691455
      9          8           0       -1.993069   -0.159917    2.722087
     10          6           0        0.118125   -0.773731    1.745907
     11          7           0        0.612586   -1.364866    0.502289
     12          6           0        0.202524   -2.782094    0.362828
     13          6           0        1.239926   -3.757993    0.928790
     14          6           0        2.574419   -3.619762    0.156574
     15          6           0        2.668763   -2.255147   -0.557433
     16          6           0        2.064390   -1.119920    0.281990
     17          6           0        2.250447    0.263276   -0.366918
     18          6           0        3.703100    0.760002   -0.368304
     19          7           0        3.812875    2.133046   -0.839725
     20          6           0        4.301522    2.580105   -2.028008
     21          6           0        4.145232    3.953366   -2.035316
     22          6           0        3.542010    4.241000   -0.792130
     23          7           0        3.338884    3.138573   -0.069636
     24          6           0       -4.092779    0.703971    0.849293
     25          1           0       -7.166467    2.173946    0.852835
     26          1           0       -6.995193    0.576010    1.587965
     27          1           0       -6.070666    1.935945    2.226987
     28          1           0       -6.436610    1.653226   -1.429157
     29          1           0       -4.585453    1.072736   -2.978896
     30          1           0       -2.422345    0.258924   -2.091860
     31          1           0       -1.096564   -0.309630   -0.287264
     32          1           0        0.705991    0.121958    1.978026
     33          1           0        0.209962   -1.439879    2.618058
     34          1           0       -0.763471   -2.899755    0.863460
     35          1           0        0.026947   -3.003846   -0.697762
     36          1           0        1.390220   -3.536701    1.993164
     37          1           0        0.859159   -4.784720    0.878235
     38          1           0        2.672832   -4.419786   -0.586632
     39          1           0        3.418399   -3.735020    0.847354
     40          1           0        3.715890   -2.028419   -0.786102
     41          1           0        2.144974   -2.289767   -1.522102
     42          1           0        2.590138   -1.116733    1.255899
     43          1           0        1.653661    1.007264    0.171632
     44          1           0        1.865777    0.233751   -1.394638
     45          1           0        4.341534    0.149124   -1.013143
     46          1           0        4.117933    0.722747    0.645147
     47          1           0        4.719056    1.899581   -2.757029
     48          1           0        4.431053    4.641462   -2.817570
     49          1           0        3.251849    5.202762   -0.389084
     50          1           0       -3.935522    0.600378    1.915035
 ---------------------------------------------------------------------

 SCF Done:  E(RB3LYP) =  -1033.90475163     A.U. after   15 cycles

 Excitation energies and oscillator strengths:

 Excited state symmetry could not be determined.
 Excited State   1:      Triplet-?Sym    3.5025 eV  353.99 nm  f=0.0000  <S**2>=2.000
      86 -> 90        -0.35571
      88 -> 89         0.57850
      88 -> 92        -0.12789
 This state for optimization and/or second-order correction.
 Total Energy, E(TD-HF/TD-DFT) =  -1033.77603733
 Copying the excited state density for this state as the 1-particle RhoCI density.

 Excited state symmetry could not be determined.
 Excited State   2:      Triplet-?Sym    4.2704 eV  290.33 nm  f=0.0000  <S**2>=2.000
      86 -> 89        -0.17480
      86 -> 90         0.19171
      88 -> 89         0.18679
      88 -> 90         0.62146

 Excited state symmetry could not be determined.
 Excited State   3:      Singlet-?Sym    4.9275 eV  251.62 nm  f=0.0061  <S**2>=0.000
      83 -> 89        -0.22075
      84 -> 89        -0.20684
      85 -> 89        -0.15718
      87 -> 89         0.58190
      87 -> 92         0.11812
      88 -> 89        -0.11368

 Excited state symmetry could not be determined.
 Excited State   4:      Singlet-?Sym    4.9858 eV  248.68 nm  f=0.0127  <S**2>=0.000
      86 -> 89         0.39315
      88 -> 89         0.15096
      88 -> 90         0.55428

 Alpha  occ. eigenvalues --  -19.11001 -14.40847 -14.36309 -14.34229 -14.34034
 Alpha  occ. eigenvalues --  -10.28327 -10.23838 -10.23092 -10.22612 -10.22015
 Alpha  occ. eigenvalues --  -10.21926 -10.21873 -10.19832 -10.19780 -10.19501
 Alpha  occ. eigenvalues --  -10.19425 -10.19229 -10.18788 -10.18314 -10.18181
 Alpha  occ. eigenvalues --  -10.17722 -10.17391 -10.17388 -10.16949  -1.04239
 Alpha  occ. eigenvalues --   -1.02846  -0.94250  -0.92616  -0.84675  -0.83989
 Alpha  occ. eigenvalues --   -0.80814  -0.79095  -0.77502  -0.76226  -0.74119
 Alpha  occ. eigenvalues --   -0.72698  -0.70840  -0.67850  -0.66400  -0.64402
 Alpha  occ. eigenvalues --   -0.61741  -0.61172  -0.59785  -0.58846  -0.56105
 Alpha  occ. eigenvalues --   -0.55614  -0.54572  -0.53132  -0.51681  -0.51165
 Alpha  occ. eigenvalues --   -0.49966  -0.48611  -0.47564  -0.46695  -0.45199
 Alpha  occ. eigenvalues --   -0.44999  -0.44457  -0.43513  -0.43057  -0.42170
 Alpha  occ. eigenvalues --   -0.41892  -0.41433  -0.41195  -0.40733  -0.40645
 Alpha  occ. eigenvalues --   -0.39976  -0.39484  -0.39205  -0.38343  -0.37998
 Alpha  occ. eigenvalues --   -0.37530  -0.37392  -0.37041  -0.35623  -0.34697
 Alpha  occ. eigenvalues --   -0.34347  -0.34172  -0.33288  -0.32907  -0.32054
 Alpha  occ. eigenvalues --   -0.29131  -0.28405  -0.25154  -0.24539  -0.24036
 Alpha  occ. eigenvalues --   -0.23396  -0.22267  -0.20861
 Alpha virt. eigenvalues --   -0.00329   0.00896   0.02085   0.05202   0.06434
 Alpha virt. eigenvalues --    0.07597   0.07973   0.08731   0.09763   0.10554
 Alpha virt. eigenvalues --    0.11251   0.11767   0.12576   0.13083   0.13498

 Mulliken charges:
               1
     1  C   -0.526966
     2  C    0.164051
     3  C   -0.179641
     4  C   -0.131565
     5  C   -0.197141
     6  C    0.362420
     7  N   -0.715694
     8  C    0.584410
     9  O   -0.510295
    10  C   -0.231082
    11  N   -0.439432
    12  C   -0.150682
    13  C   -0.273391
    14  C   -0.267842
    15  C   -0.295187
    16  C    0.053099
    17  C   -0.266413
    18  C   -0.143263
    19  N   -0.236825
    20  C    0.073191
    21  C   -0.247264
    22  C    0.049097
    23  N   -0.298454
    24  C   -0.222495
    25  H    0.151396
    26  H    0.164586
    27  H    0.163091
    28  H    0.116390
    29  H    0.125132
    30  H    0.118117
    31  H    0.348530
    32  H    0.182424
    33  H    0.159414
    34  H    0.157769
    35  H    0.143317
    36  H    0.145643
    37  H    0.143362
    38  H    0.141205
    39  H    0.141266
    40  H    0.141989
    41  H    0.143393
    42  H    0.117030
    43  H    0.176126
    44  H    0.139520
    45  H    0.152356
    46  H    0.170495
    47  H    0.151560
    48  H    0.134619
    49  H    0.141668
    50  H    0.176964
 Sum of Mulliken charges =  -0.00000

 Dipole moment (field-independent basis, Debye):
    X=              3.1835    Y=             -3.0070    Z=             -3.5127  Tot=              5.6139
 Quadrupole moment (field-independent basis, Debye-Ang):
   XX=           -136.2816   YY=           -140.7222   ZZ=           -145.1609
   XY=             -8.3209   XZ=              0.0708   YZ=             -3.4144

 Normal termination of Gaussian 16 at Sat Nov  5 11:40:06 2022.
