 Gaussian 16, Revision B.01,
 Gaussian 16:  ES64L-G16RevB.01 20-Dec-2017

 -----------------------------
 #p b3lyp/6-31g(d) opt SCF=XQC
 -----------------------------

 ------------------------------
 Gaussian input prepared by ASE
 ------------------------------
 Symbolic Z-matrix:
 Charge =  0 Multiplicity = 1

 SCF Done:  E(RB3LYP) =  -1033.89777177     A.U. after   15 cycles
 SCF Done:  E(RB3LYP) =  -1033.90362295     A.U. after   12 cycles
 SCF Done:  E(RB3LYP) =  -1033.90417542     A.U. after   12 cycles
 SCF Done:  E(RB3LYP) =  -1033.90439526     A.U. after   12 cycles
 SCF Done:  E(RB3LYP) =  -1033.90458984     A.U. after   11 cycles
 SCF Done:  E(RB3LYP) =  -1033.90462474     A.U. after   11 cycles
 SCF Done:  E(RB3LYP) =  -1033.90466409     A.U. after   10 cycles
 SCF Done:  E(RB3LYP) =  -1033.90468559     A.U. after   10 cycles
 SCF Done:  E(RB3LYP) =  -1033.90470641     A.U. after   10 cycles
 SCF Done:  E(RB3LYP) =  -1033.90473006     A.U. after   11 cycles
 SCF Done:  E(RB3LYP) =  -1033.90475572     A.U. after    7 cycles
 SCF Done:  E(RB3LYP) =  -1033.90475579     A.U. after    7 cycles
 SCF Done:  E(RB3LYP) =  -1033.90475590     A.U. after    7 cycles
 SCF Done:  E(RB3LYP) =  -1033.90475602     A.U. after    7 cycles
 SCF Done:  E(RB3LYP) =  -1033.90475616     A.U. after    8 cycles
 SCF Done:  E(RB3LYP) =  -1033.90475631     A.U. after    8 cycles
 SCF Done:  E(RB3LYP) =  -1033.90475644     A.U. after    7 cycles
 SCF Done:  E(RB3LYP) =  -1033.90475656     A.U. after    7 cycles
 SCF Done:  E(RB3LYP) =  -1033.90475661     A.U. after    7 cycles
 SCF Done:  E(RB3LYP) =  -1033.90475664     A.U. after    6 cycles
 Optimization completed.
    -- Stationary point found.

                         Standard orientation:
 ---------------------------------------------------------------------
 Center     Atomic      Atomic             Coordinates (Angstroms)
 Number     Number       Type             X           Y           Z
 ---------------------------------------------------------------------
      1          6           0        6.433282   -1.311817    0.916001
      2          6           0        5.210145   -1.199245    0.034181
      3          6           0        5.202767   -1.746436   -1.254217
      4          6           0        4.077045   -1.611913   -2.068093
      5          6           0        2.952079   -0.935467   -1.608703
      6          6           0        2.946422   -0.384880   -0.317142
      7          7           0        1.778728    0.284808    0.096605
      8          6           0        1.507846    0.915651    1.279185
      9          8           0        2.265067    1.016990    2.236074
     10          6           0        0.076461    1.476862    1.349872
     11          7           0       -0.543691    1.710869    0.045583
     12          6           0       -0.094930    2.987477   -0.558588
     13          6           0       -1.011809    4.164306   -0.207447
     14          6           0       -2.436693    3.908070   -0.755486
     15          6           0       -2.676530    2.405076   -1.009193
     16          6           0       -2.020636    1.525079    0.065074
     17          6           0       -2.344065    0.030721   -0.111615
     18          6           0       -3.805186   -0.330120    0.191466
     19          7           0       -4.030469   -1.768313    0.171738
     20          6           0       -4.681641   -2.507046   -0.766825
     21          6           0       -4.585387   -3.829017   -0.375095
     22          6           0       -3.844704   -3.782569    0.825469
     23          7           0       -3.507003   -2.535170    1.154948
     24          6           0        4.077034   -0.521397    0.500394
     25          1           0        7.062662   -2.158358    0.621974
     26          1           0        7.051629   -0.406359    0.853334
     27          1           0        6.157479   -1.441023    1.968003
     28          1           0        6.076903   -2.279782   -1.619647
     29          1           0        4.073260   -2.041161   -3.066684
     30          1           0        2.073598   -0.836630   -2.242901
     31          1           0        1.007932    0.340406   -0.564670
     32          1           0       -0.515084    0.738034    1.902985
     33          1           0        0.122039    2.375861    1.984346
     34          1           0        0.929970    3.172488   -0.222474
     35          1           0       -0.043606    2.871855   -1.648931
     36          1           0       -1.037580    4.279525    0.883658
     37          1           0       -0.597448    5.097579   -0.606212
     38          1           0       -2.593136    4.458067   -1.690958
     39          1           0       -3.182492    4.287213   -0.046403
     40          1           0       -3.752584    2.202800   -1.046095
     41          1           0       -2.275942    2.112594   -1.989051
     42          1           0       -2.420692    1.850374    1.044388
     43          1           0       -1.716697   -0.564971    0.560150
     44          1           0       -2.089455   -0.274450   -1.134891
     45          1           0       -4.492675    0.110659   -0.536311
     46          1           0       -4.088665    0.036766    1.184235
     47          1           0       -5.157698   -2.041924   -1.618853
     48          1           0       -4.995077   -4.693103   -0.877688
     49          1           0       -3.547335   -4.601888    1.467274
     50          1           0        4.058199   -0.095860    1.495297
 ---------------------------------------------------------------------

 The electronic state is 1-A.
 Alpha  occ. eigenvalues --  -19.11002 -14.40847 -14.36309 -14.34229 -14.34034
 Alpha  occ. eigenvalues --  -10.28327 -10.23838 -10.23092 -10.22612 -10.22015
 Alpha  occ. eigenvalues --  -10.21926 -10.21873 -10.19832 -10.19780 -10.19501
 Alpha  occ. eigenvalues --  -10.19425 -10.19229 -10.18788 -10.18314 -10.18181
 Alpha  occ. eigenvalues --  -10.17722 -10.17391 -10.17388 -10.16949  -1.04239
 Alpha  occ. eigenvalues --   -1.02846  -0.94251  -0.92616  -0.84675  -0.83989
 Alpha  occ. eigenvalues --   -0.80814  -0.79095  -0.77502  -0.76226  -0.74119
 Alpha  occ. eigenvalues --   -0.72698  -0.70840  -0.67850  -0.66400  -0.64402
 Alpha  occ. eigenvalues --   -0.61741  -0.61172  -0.59785  -0.58846  -0.56105
 Alpha  occ. eigenvalues --   -0.55614  -0.54572  -0.53132  -0.51681  -0.51165
 Alpha  occ. eigenvalues --   -0.49966  -0.48611  -0.47564  -0.46695  -0.45199
 Alpha  occ. eigenvalues --   -0.44999  -0.44457  -0.43513  -0.43057  -0.42170
 Alpha  occ. eigenvalues --   -0.41892  -0.41433  -0.41195  -0.40733  -0.40645
 Alpha  occ. eigenvalues --   -0.39976  -0.39484  -0.39205  -0.38343  -0.37998
 Alpha  occ. eigenvalues --   -0.37530  -0.37392  -0.37041  -0.35623  -0.34697
 Alpha  occ. eigenvalues --   -0.34347  -0.34172  -0.33288  -0.32907  -0.32054
 Alpha  occ. eigenvalues --   -0.29131  -0.28405  -0.25154  -0.24539  -0.24036
 Alpha  occ. eigenvalues --   -0.23396  -0.22267  -0.20861
 Alpha virt. eigenvalues --   -0.00329   0.00896   0.02085   0.05202   0.06434
 Alpha virt. eigenvalues --    0.07597   0.07973   0.08731   0.09763   0.10554
 Alpha virt. eigenvalues --    0.11252   0.11767   0.12576   0.13083   0.13498

 Mulliken charges:
               1
     1  C   -0.526968
     2  C    0.164053
     3  C   -0.179642
     4  C   -0.131563
     5  C   -0.197142
     6  C    0.362407
     7  N   -0.715664
     8  C    0.584368
     9  O   -0.510278
    10  C   -0.231085
    11  N   -0.439430
    12  C   -0.150680
    13  C   -0.273383
    14  C   -0.267849
    15  C   -0.295178
    16  C    0.053084
    17  C   -0.266429
    18  C   -0.143246
    19  N   -0.236828
    20  C    0.073191
    21  C   -0.247262
    22  C    0.049097
    23  N   -0.298452
    24  C   -0.222483
    25  H    0.151396
    26  H    0.164587
    27  H    0.163092
    28  H    0.116390
    29  H    0.125132
    30  H    0.118117
    31  H    0.348529
    32  H    0.182426
    33  H    0.159415
    34  H    0.157769
    35  H    0.143317
    36  H    0.145642
    37  H    0.143362
    38  H    0.141206
    39  H    0.141267
    40  H    0.141988
    41  H    0.143393
    42  H    0.117033
    43  H    0.176126
    44  H    0.139524
    45  H    0.152353
    46  H    0.170492
    47  H    0.151560
    48  H    0.134618
    49  H    0.141667
    50  H    0.176962
 Sum of Mulliken charges =  -0.00000

 Dipole moment (field-independent basis, Debye):
    X=             -3.4667    Y=              2.0729    Z=             -3.8988  Tot=              5.6139
 Quadrupole moment (field-independent basis, Debye-Ang):
   XX=           -136.7120   YY=           -137.0381   ZZ=           -146.4872
   XY=             -8.7685   XZ=              1.9884   YZ=              1.2128

 Normal termination of Gaussian 16 at Fri Nov  4 19:11:42 2022.
