 Gaussian 16, Revision B.01,
 Gaussian 16:  ES64L-G16RevB.01 20-Dec-2017

 -----------------------------
 #p b3lyp/6-31g(d) opt SCF=XQC
 -----------------------------

 ------------------------------
 Gaussian input prepared by ASE
 ------------------------------
 Symbolic Z-matrix:
 Charge =  0 Multiplicity = 1

 SCF Done:  E(RB3LYP) =  -1256.66981290     A.U. after   15 cycles
 SCF Done:  E(RB3LYP) =  -1256.67530500     A.U. after   15 cycles
 SCF Done:  E(RB3LYP) =  -1256.67336136     A.U. after   16 cycles
 SCF Done:  E(RB3LYP) =  -1256.67812786     A.U. after   13 cycles
 SCF Done:  E(RB3LYP) =  -1256.67881835     A.U. after   12 cycles
 SCF Done:  E(RB3LYP) =  -1256.67880190     A.U. after   12 cycles
 SCF Done:  E(RB3LYP) =  -1256.67903690     A.U. after   12 cycles
 SCF Done:  E(RB3LYP) =  -1256.67906728     A.U. after   11 cycles
 SCF Done:  E(RB3LYP) =  -1256.67907443     A.U. after   10 cycles
 SCF Done:  E(RB3LYP) =  -1256.67907598     A.U. after   10 cycles
 SCF Done:  E(RB3LYP) =  -1256.67907684     A.U. after    9 cycles
 SCF Done:  E(RB3LYP) =  -1256.67907773     A.U. after    9 cycles
 SCF Done:  E(RB3LYP) =  -1256.67907826     A.U. after    9 cycles
 SCF Done:  E(RB3LYP) =  -1256.67907856     A.U. after    8 cycles
 SCF Done:  E(RB3LYP) =  -1256.67907869     A.U. after    8 cycles
 SCF Done:  E(RB3LYP) =  -1256.67907871     A.U. after    6 cycles
 Optimization completed.
    -- Stationary point found.

                         Standard orientation:
 ---------------------------------------------------------------------
 Center     Atomic      Atomic             Coordinates (Angstroms)
 Number     Number       Type             X           Y           Z
 ---------------------------------------------------------------------
      1          6           0       -3.291728   -0.479801    2.439952
      2          6           0       -3.396425   -0.831117    0.948073
      3          6           0       -4.869227   -0.797995    0.500507
      4          6           0       -2.780035   -2.218043    0.687327
      5          7           0       -2.627657    0.208061    0.220981
      6          6           0       -2.440390    0.255111   -1.117752
      7          8           0       -2.931395   -0.518785   -1.933041
      8          6           0       -1.588130    1.410576   -1.675546
      9         16           0       -0.590525    2.435772   -0.527961
     10          6           0        0.806596    1.353635   -0.265278
     11          7           0        0.859760    0.177952   -0.787741
     12          6           0        1.989615   -0.591025   -0.524067
     13          6           0        2.075181   -1.878410   -1.085631
     14          6           0        3.186506   -2.671470   -0.839177
     15          6           0        4.238345   -2.206640   -0.030190
     16          6           0        4.169315   -0.940362    0.531095
     17          6           0        3.051332   -0.127886    0.290097
     18          6           0        2.974356    1.213296    0.879373
     19          8           0        3.805032    1.750480    1.595133
     20          7           0        1.788396    1.890088    0.535414
     21          1           0       -2.248395   -0.492921    2.778860
     22          1           0       -3.846494   -1.209510    3.037797
     23          1           0       -3.712536    0.512290    2.644633
     24          1           0       -5.445221   -1.553863    1.046517
     25          1           0       -4.947787   -1.002115   -0.569415
     26          1           0       -5.312200    0.183626    0.703817
     27          1           0       -3.329415   -2.985211    1.245003
     28          1           0       -1.732959   -2.240650    1.009393
     29          1           0       -2.821925   -2.460378   -0.376751
     30          1           0       -2.133287    0.893593    0.777061
     31          1           0       -2.256163    2.119346   -2.175036
     32          1           0       -0.917001    0.984627   -2.421868
     33          1           0        1.254954   -2.223175   -1.707079
     34          1           0        3.243639   -3.664254   -1.277459
     35          1           0        5.102047   -2.838804    0.153696
     36          1           0        4.963462   -0.550391    1.159809
     37          1           0        1.703235    2.829961    0.908380
 ---------------------------------------------------------------------

 The electronic state is 1-A.
 Alpha  occ. eigenvalues --  -88.91599 -19.13091 -19.11245 -14.40611 -14.35921
 Alpha  occ. eigenvalues --  -14.34337 -10.31510 -10.30926 -10.29268 -10.24403
 Alpha  occ. eigenvalues --  -10.24016 -10.23723 -10.21039 -10.20811 -10.20529
 Alpha  occ. eigenvalues --  -10.20252 -10.20005 -10.18780 -10.17169 -10.17088
 Alpha  occ. eigenvalues --   -7.97773  -5.94279  -5.93857  -5.93298  -1.05690
 Alpha  occ. eigenvalues --   -1.03209  -1.00083  -0.92714  -0.91815  -0.86387
 Alpha  occ. eigenvalues --   -0.82515  -0.79453  -0.77352  -0.75721  -0.70881
 Alpha  occ. eigenvalues --   -0.69704  -0.68585  -0.67062  -0.64122  -0.61173
 Alpha  occ. eigenvalues --   -0.60484  -0.57907  -0.56104  -0.56011  -0.51982
 Alpha  occ. eigenvalues --   -0.49906  -0.48180  -0.47631  -0.46891  -0.46259
 Alpha  occ. eigenvalues --   -0.45381  -0.44758  -0.44199  -0.43495  -0.43076
 Alpha  occ. eigenvalues --   -0.42425  -0.41254  -0.40080  -0.39304  -0.38960
 Alpha  occ. eigenvalues --   -0.38031  -0.37843  -0.37137  -0.36995  -0.36909
 Alpha  occ. eigenvalues --   -0.36253  -0.35715  -0.33767  -0.33678  -0.30584
 Alpha  occ. eigenvalues --   -0.28980  -0.28487  -0.27197  -0.26565  -0.25433
 Alpha  occ. eigenvalues --   -0.24665  -0.23024
 Alpha virt. eigenvalues --   -0.04736  -0.03965  -0.00151   0.02028   0.02583
 Alpha virt. eigenvalues --    0.05486   0.06877   0.07691   0.09206   0.09568
 Alpha virt. eigenvalues --    0.11130   0.12502   0.12761   0.13938   0.14334

 Mulliken charges:
               1
     1  C   -0.479595
     2  C    0.238321
     3  C   -0.445575
     4  C   -0.445848
     5  N   -0.622625
     6  C    0.635573
     7  O   -0.517696
     8  C   -0.514809
     9  S    0.120691
    10  C    0.321065
    11  N   -0.530170
    12  C    0.236198
    13  C   -0.153685
    14  C   -0.128320
    15  C   -0.134030
    16  C   -0.178758
    17  C    0.059807
    18  C    0.575042
    19  O   -0.502480
    20  N   -0.666607
    21  H    0.148517
    22  H    0.158644
    23  H    0.148184
    24  H    0.138278
    25  H    0.186761
    26  H    0.137027
    27  H    0.137093
    28  H    0.142514
    29  H    0.185836
    30  H    0.347763
    31  H    0.207926
    32  H    0.233571
    33  H    0.154868
    34  H    0.142826
    35  H    0.140917
    36  H    0.167814
    37  H    0.354960
 Sum of Mulliken charges =  -0.00000

 Dipole moment (field-independent basis, Debye):
    X=             -0.7958    Y=             -0.0204    Z=              1.2363  Tot=              1.4704
 Quadrupole moment (field-independent basis, Debye-Ang):
   XX=           -130.0117   YY=           -116.0365   ZZ=           -128.5972
   XY=            -13.3787   XZ=            -13.4946   YZ=             -3.9903

 Normal termination of Gaussian 16 at Fri Nov  4 18:59:00 2022.
