 Gaussian 16, Revision B.01,
 Gaussian 16:  ES64L-G16RevB.01 20-Dec-2017

 -------------------------------------------------------------------
 #p b3lyp/6-31g(d) 6D 10F nosymm GFInput td=(50-50,nstate=2) SCF=XQC
 -------------------------------------------------------------------

 ------------------------------
 Gaussian input prepared by ASE
 ------------------------------
 Symbolic Z-matrix:
 Charge =  0 Multiplicity = 1

                          Input orientation:
 ---------------------------------------------------------------------
 Center     Atomic      Atomic             Coordinates (Angstroms)
 Number     Number       Type             X           Y           Z
 ---------------------------------------------------------------------
      1          6           0       -3.480193    0.796818   -0.395650
      2          6           0       -2.732774    0.996619    0.931577
      3          6           0       -3.739871    1.184077    2.081000
      4          6           0       -1.791309    2.211053    0.830165
      5          7           0       -1.942071   -0.238279    1.153779
      6          6           0       -1.113856   -0.464306    2.198988
      7          8           0       -0.943491    0.292618    3.149114
      8          6           0       -0.364492   -1.809612    2.233424
      9         16           0       -0.335118   -2.868274    0.736238
     10          6           0        0.925926   -2.037013   -0.218090
     11          7           0        1.486211   -0.954806    0.197760
     12          6           0        2.457363   -0.380704   -0.617528
     13          6           0        3.088318    0.800485   -0.185413
     14          6           0        4.057908    1.399622   -0.976397
     15          6           0        4.424063    0.841741   -2.213972
     16          6           0        3.811522   -0.321869   -2.654508
     17          6           0        2.829476   -0.938170   -1.864671
     18          6           0        2.180135   -2.170475   -2.324806
     19          8           0        2.394001   -2.768884   -3.367433
     20          7           0        1.222689   -2.653013   -1.411948
     21          1           0       -2.780097    0.656296   -1.228532
     22          1           0       -4.092348    1.676198   -0.618397
     23          1           0       -4.146128   -0.073573   -0.349088
     24          1           0       -4.337761    2.087241    1.913503
     25          1           0       -3.216907    1.281263    3.034748
     26          1           0       -4.421366    0.327810    2.140259
     27          1           0       -2.370550    3.121676    0.638821
     28          1           0       -1.077495    2.077282    0.009688
     29          1           0       -1.232628    2.339529    1.759740
     30          1           0       -1.958794   -0.937718    0.422967
     31          1           0       -0.817622   -2.434805    3.009259
     32          1           0        0.665852   -1.597120    2.519918
     33          1           0        2.794237    1.219241    0.771663
     34          1           0        4.539758    2.311557   -0.634094
     35          1           0        5.184870    1.321996   -2.822211
     36          1           0        4.070551   -0.779251   -3.604105
     37          1           0        0.761987   -3.515251   -1.684006
 ---------------------------------------------------------------------

 SCF Done:  E(RB3LYP) =  -1256.67907507     A.U. after   15 cycles

 Excitation energies and oscillator strengths:

 Excited state symmetry could not be determined.
 Excited State   1:      Triplet-?Sym    3.2786 eV  378.16 nm  f=0.0000  <S**2>=2.000
      74 -> 78         0.29281
      76 -> 79         0.18475
      77 -> 78         0.16756
      77 -> 79         0.55486
 This state for optimization and/or second-order correction.
 Total Energy, E(TD-HF/TD-DFT) =  -1256.55858867
 Copying the excited state density for this state as the 1-particle RhoCI density.

 Excited state symmetry could not be determined.
 Excited State   2:      Triplet-?Sym    3.5869 eV  345.65 nm  f=0.0000  <S**2>=2.000
      76 -> 78         0.22238
      77 -> 78         0.62284
      77 -> 79        -0.18469

 Excited state symmetry could not be determined.
 Excited State   3:      Singlet-?Sym    4.3653 eV  284.02 nm  f=0.0683  <S**2>=0.000
      74 -> 79        -0.17490
      77 -> 78         0.67255

 Excited state symmetry could not be determined.
 Excited State   4:      Singlet-?Sym    4.6955 eV  264.05 nm  f=0.1899  <S**2>=0.000
      74 -> 78         0.20493
      76 -> 78        -0.12061
      77 -> 79         0.65221

 Alpha  occ. eigenvalues --  -88.91599 -19.13091 -19.11245 -14.40611 -14.35921
 Alpha  occ. eigenvalues --  -14.34336 -10.31510 -10.30926 -10.29268 -10.24403
 Alpha  occ. eigenvalues --  -10.24016 -10.23723 -10.21039 -10.20811 -10.20529
 Alpha  occ. eigenvalues --  -10.20252 -10.20005 -10.18780 -10.17169 -10.17088
 Alpha  occ. eigenvalues --   -7.97774  -5.94279  -5.93857  -5.93298  -1.05690
 Alpha  occ. eigenvalues --   -1.03209  -1.00083  -0.92714  -0.91815  -0.86386
 Alpha  occ. eigenvalues --   -0.82515  -0.79453  -0.77352  -0.75721  -0.70881
 Alpha  occ. eigenvalues --   -0.69704  -0.68585  -0.67062  -0.64122  -0.61173
 Alpha  occ. eigenvalues --   -0.60483  -0.57907  -0.56104  -0.56011  -0.51982
 Alpha  occ. eigenvalues --   -0.49906  -0.48180  -0.47631  -0.46891  -0.46259
 Alpha  occ. eigenvalues --   -0.45381  -0.44758  -0.44199  -0.43495  -0.43076
 Alpha  occ. eigenvalues --   -0.42425  -0.41254  -0.40080  -0.39304  -0.38960
 Alpha  occ. eigenvalues --   -0.38031  -0.37843  -0.37137  -0.36995  -0.36909
 Alpha  occ. eigenvalues --   -0.36253  -0.35715  -0.33767  -0.33678  -0.30584
 Alpha  occ. eigenvalues --   -0.28980  -0.28487  -0.27197  -0.26565  -0.25433
 Alpha  occ. eigenvalues --   -0.24665  -0.23024
 Alpha virt. eigenvalues --   -0.04736  -0.03965  -0.00151   0.02029   0.02583
 Alpha virt. eigenvalues --    0.05486   0.06877   0.07691   0.09206   0.09568
 Alpha virt. eigenvalues --    0.11130   0.12502   0.12761   0.13938   0.14334

 Mulliken charges:
               1
     1  C   -0.479602
     2  C    0.238341
     3  C   -0.445572
     4  C   -0.445871
     5  N   -0.622656
     6  C    0.635619
     7  O   -0.517709
     8  C   -0.514816
     9  S    0.120687
    10  C    0.321057
    11  N   -0.530179
    12  C    0.236215
    13  C   -0.153692
    14  C   -0.128320
    15  C   -0.134022
    16  C   -0.178758
    17  C    0.059813
    18  C    0.575029
    19  O   -0.502481
    20  N   -0.666589
    21  H    0.148518
    22  H    0.158645
    23  H    0.148186
    24  H    0.138277
    25  H    0.186761
    26  H    0.137025
    27  H    0.137096
    28  H    0.142517
    29  H    0.185841
    30  H    0.347763
    31  H    0.207927
    32  H    0.233574
    33  H    0.154865
    34  H    0.142825
    35  H    0.140916
    36  H    0.167812
    37  H    0.354959
 Sum of Mulliken charges =  -0.00000

 Dipole moment (field-independent basis, Debye):
    X=             -1.2891    Y=              0.2998    Z=             -0.6406  Tot=              1.4704
 Quadrupole moment (field-independent basis, Debye-Ang):
   XX=           -114.7182   YY=           -120.3556   ZZ=           -140.9065
   XY=              9.6465   XZ=              4.1835   YZ=            -11.2926

 Normal termination of Gaussian 16 at Sat Nov  5 11:41:08 2022.
