 Gaussian 16, Revision B.01,
 Gaussian 16:  ES64L-G16RevB.01 20-Dec-2017

 -------------------------------------------------------------------
 #p b3lyp/6-31g(d) 6D 10F nosymm GFInput td=(50-50,nstate=2) SCF=XQC
 -------------------------------------------------------------------

 ------------------------------
 Gaussian input prepared by ASE
 ------------------------------
 Symbolic Z-matrix:
 Charge =  0 Multiplicity = 1

                          Input orientation:
 ---------------------------------------------------------------------
 Center     Atomic      Atomic             Coordinates (Angstroms)
 Number     Number       Type             X           Y           Z
 ---------------------------------------------------------------------
      1          6           0       -0.982455    0.650625    3.557641
      2          6           0       -0.711106    1.446123    2.251218
      3          6           0        0.567566    2.270560    2.514948
      4          6           0       -1.837500    2.480809    1.979410
      5          6           0       -0.538250    0.486663    1.045392
      6          6           0        0.669164    0.439386    0.344572
      7          6           0        0.858200   -0.415590   -0.743575
      8          6           0        2.145194   -0.440380   -1.450293
      9          7           0        2.377899   -1.271606   -2.456516
     10         16           0        3.926782   -1.026567   -3.025631
     11          6           0        4.193693    0.209175   -1.836173
     12         16           0        5.766835    1.083439   -1.668339
     13          6           0        5.256046    2.811325   -1.762280
     14          8           0        6.528661    0.729655   -2.874074
     15          8           0        6.305915    0.833251   -0.329225
     16          7           0        3.166140    0.419294   -1.073246
     17          6           0       -0.190383   -1.250482   -1.147966
     18          6           0       -1.422534   -1.257515   -0.498778
     19          6           0       -2.564829   -2.189252   -0.966594
     20          6           0       -2.141859   -3.041676   -2.181497
     21          6           0       -2.956911   -3.171809    0.165096
     22          6           0       -3.796474   -1.356104   -1.401017
     23          6           0       -1.573872   -0.375461    0.603199
     24          8           0       -2.795770   -0.403763    1.225253
     25          1           0       -1.876654    0.018026    3.531471
     26          1           0       -1.099643    1.340894    4.401096
     27          1           0       -0.138920   -0.012823    3.775755
     28          1           0        0.399134    2.932084    3.371830
     29          1           0        0.832392    2.900365    1.659103
     30          1           0        1.425454    1.633447    2.753378
     31          1           0       -2.822607    2.043948    1.782545
     32          1           0       -1.586556    3.088344    1.103327
     33          1           0       -1.947046    3.152296    2.838924
     34          1           0        1.496114    1.070556    0.637909
     35          1           0        4.827770    3.003810   -2.747609
     36          1           0        4.532809    3.001819   -0.967808
     37          1           0        6.161750    3.404584   -1.613169
     38          1           0       -0.015542   -1.902575   -1.992798
     39          1           0       -1.878884   -2.425465   -3.048701
     40          1           0       -2.979804   -3.682823   -2.476476
     41          1           0       -1.292608   -3.695539   -1.953481
     42          1           0       -3.318666   -2.650390    1.052524
     43          1           0       -3.750665   -3.842965   -0.185427
     44          1           0       -2.098744   -3.790428    0.453378
     45          1           0       -4.194180   -0.755749   -0.581434
     46          1           0       -4.591371   -2.025366   -1.752572
     47          1           0       -3.535657   -0.683824   -2.227123
     48          1           0       -2.798024    0.217669    1.963863
 ---------------------------------------------------------------------

 SCF Done:  E(RB3LYP) =  -1793.74844269     A.U. after   16 cycles

 Excitation energies and oscillator strengths:

 Excited state symmetry could not be determined.
 Excited State   1:      Triplet-?Sym    2.6271 eV  471.93 nm  f=0.0000  <S**2>=2.000
      96 -> 99         0.19438
      98 -> 99         0.62530
      98 ->100         0.23482
 This state for optimization and/or second-order correction.
 Total Energy, E(TD-HF/TD-DFT) =  -1793.65189672
 Copying the excited state density for this state as the 1-particle RhoCI density.

 Excited state symmetry could not be determined.
 Excited State   2:      Singlet-?Sym    3.4431 eV  360.10 nm  f=0.0712  <S**2>=0.000
      98 -> 99         0.69830

 Excited state symmetry could not be determined.
 Excited State   3:      Triplet-?Sym    3.4436 eV  360.04 nm  f=0.0000  <S**2>=2.000
      96 -> 99        -0.14566
      97 ->102        -0.21874
      98 -> 99        -0.21726
      98 ->100         0.59291
      98 ->105         0.13212

 Excited state symmetry could not be determined.
 Excited State   4:      Singlet-?Sym    4.0930 eV  302.91 nm  f=0.0017  <S**2>=0.000
      97 -> 99         0.69863

 Alpha  occ. eigenvalues --  -89.11492 -88.96111 -19.18817 -19.15500 -19.15480
 Alpha  occ. eigenvalues --  -14.37188 -14.37104 -10.29252 -10.27932 -10.25999
 Alpha  occ. eigenvalues --  -10.23929 -10.22519 -10.20387 -10.20305 -10.20041
 Alpha  occ. eigenvalues --  -10.19770 -10.19452 -10.19409 -10.19362 -10.19055
 Alpha  occ. eigenvalues --  -10.18707 -10.17050 -10.16555 -10.16515  -8.14354
 Alpha  occ. eigenvalues --   -8.01915  -6.10776  -6.10745  -6.10669  -5.98404
 Alpha  occ. eigenvalues --   -5.97920  -5.97597  -1.11508  -1.07157  -1.02968
 Alpha  occ. eigenvalues --   -1.01068  -0.89997  -0.86897  -0.83541  -0.82085
 Alpha  occ. eigenvalues --   -0.79990  -0.78582  -0.73946  -0.73831  -0.70467
 Alpha  occ. eigenvalues --   -0.69906  -0.68445  -0.68118  -0.67667  -0.64598
 Alpha  occ. eigenvalues --   -0.62311  -0.60209  -0.58099  -0.57121  -0.54312
 Alpha  occ. eigenvalues --   -0.53044  -0.52615  -0.49700  -0.48972  -0.48506
 Alpha  occ. eigenvalues --   -0.47909  -0.46847  -0.45918  -0.45648  -0.45361
 Alpha  occ. eigenvalues --   -0.44706  -0.44241  -0.43843  -0.43403  -0.42925
 Alpha  occ. eigenvalues --   -0.42356  -0.41568  -0.40220  -0.39960  -0.39464
 Alpha  occ. eigenvalues --   -0.38516  -0.38199  -0.38102  -0.37251  -0.36588
 Alpha  occ. eigenvalues --   -0.36120  -0.35719  -0.34998  -0.34893  -0.34639
 Alpha  occ. eigenvalues --   -0.33779  -0.33669  -0.33245  -0.32692  -0.32231
 Alpha  occ. eigenvalues --   -0.31881  -0.31313  -0.30969  -0.30484  -0.29569
 Alpha  occ. eigenvalues --   -0.28955  -0.24861  -0.21870
 Alpha virt. eigenvalues --   -0.07584  -0.03077  -0.00814  -0.00370   0.02931
 Alpha virt. eigenvalues --    0.05303   0.05583   0.06351   0.08064   0.09214
 Alpha virt. eigenvalues --    0.09788   0.09864   0.10534   0.11828   0.12096

 Mulliken charges:
               1
     1  C   -0.458896
     2  C   -0.019345
     3  C   -0.456618
     4  C   -0.458072
     5  C    0.172331
     6  C   -0.294531
     7  C    0.166909
     8  C    0.364279
     9  N   -0.543332
    10  S    0.461184
    11  C   -0.166792
    12  S    1.128943
    13  C   -0.635327
    14  O   -0.527510
    15  O   -0.493359
    16  N   -0.412961
    17  C   -0.283907
    18  C    0.149369
    19  C    0.032621
    20  C   -0.456863
    21  C   -0.450251
    22  C   -0.450276
    23  C    0.201825
    24  O   -0.646971
    25  H    0.139917
    26  H    0.150163
    27  H    0.164936
    28  H    0.145119
    29  H    0.150809
    30  H    0.159349
    31  H    0.140292
    32  H    0.161054
    33  H    0.149897
    34  H    0.156703
    35  H    0.210456
    36  H    0.225019
    37  H    0.224510
    38  H    0.162850
    39  H    0.146603
    40  H    0.141882
    41  H    0.148533
    42  H    0.167050
    43  H    0.134410
    44  H    0.139779
    45  H    0.167265
    46  H    0.134529
    47  H    0.138071
    48  H    0.418353
 Sum of Mulliken charges =  -0.00000

 Dipole moment (field-independent basis, Debye):
    X=             -3.9467    Y=              3.6708    Z=              1.5930  Tot=              5.6204
 Quadrupole moment (field-independent basis, Debye-Ang):
   XX=           -190.1602   YY=           -145.7632   ZZ=           -154.1519
   XY=              9.7185   XZ=             -0.9677   YZ=             -0.7199

 Normal termination of Gaussian 16 at Sat Nov  5 11:49:31 2022.
