 Gaussian 16, Revision B.01,
 Gaussian 16:  ES64L-G16RevB.01 20-Dec-2017

 -------------------------------------------------------------------
 #p b3lyp/6-31g(d) 6D 10F nosymm GFInput td=(50-50,nstate=2) SCF=XQC
 -------------------------------------------------------------------

 ------------------------------
 Gaussian input prepared by ASE
 ------------------------------
 Symbolic Z-matrix:
 Charge =  0 Multiplicity = 1

                          Input orientation:
 ---------------------------------------------------------------------
 Center     Atomic      Atomic             Coordinates (Angstroms)
 Number     Number       Type             X           Y           Z
 ---------------------------------------------------------------------
      1          6           0       -2.586436   -3.056965   -1.928914
      2          6           0       -1.304342   -2.551716   -2.616601
      3          6           0       -0.257157   -2.082631   -1.633724
      4          6           0       -0.018820   -0.785506   -1.248216
      5          6           0       -0.769776    0.414606   -1.808647
      6          6           0       -1.315768    1.335673   -0.739708
      7          6           0       -2.582064    1.153804   -0.180083
      8          9           0       -3.331466    0.118696   -0.626883
      9          6           0       -3.120456    1.981743    0.797443
     10          6           0       -2.357422    3.058745    1.248785
     11          6           0       -1.086174    3.292950    0.723800
     12          6           0       -0.598716    2.429922   -0.250975
     13          9           0        0.628947    2.671822   -0.762258
     14          7           0        0.957923   -0.422523   -0.340615
     15          6           0        1.689706   -1.356876    0.181509
     16         16           0        3.012389   -1.012079    1.317861
     17          6           0        2.766519    0.804043    1.638740
     18          6           0        1.669933    1.036141    2.678091
     19          6           0        4.121354    1.377699    2.062200
     20          7           0        1.518788   -2.674947   -0.122071
     21          6           0        0.547420   -3.143302   -1.032665
     22          8           0        0.452016   -4.346284   -1.247425
     23          1           0       -2.353766   -3.890029   -1.258634
     24          1           0       -3.057975   -2.260430   -1.345345
     25          1           0       -3.307522   -3.412336   -2.674028
     26          1           0       -0.870150   -3.373740   -3.196045
     27          1           0       -1.551781   -1.757868   -3.328066
     28          1           0       -0.066567    0.984096   -2.427144
     29          1           0       -1.588253    0.088990   -2.450363
     30          1           0       -4.113461    1.776675    1.181773
     31          1           0       -2.756704    3.720728    2.011104
     32          1           0       -0.474324    4.127133    1.049321
     33          1           0        2.455204    1.221079    0.678024
     34          1           0        0.716759    0.619980    2.342604
     35          1           0        1.531667    2.114316    2.829794
     36          1           0        1.932906    0.585957    3.641678
     37          1           0        4.486441    0.913574    2.986120
     38          1           0        4.879545    1.241782    1.285147
     39          1           0        4.013692    2.451886    2.252451
     40          1           0        2.087890   -3.394806    0.311967
 ---------------------------------------------------------------------

 SCF Done:  E(RB3LYP) =  -1403.17040460     A.U. after   15 cycles

 Excitation energies and oscillator strengths:

 Excited state symmetry could not be determined.
 Excited State   1:      Triplet-?Sym    3.1302 eV  396.09 nm  f=0.0000  <S**2>=2.000
      81 -> 86        -0.10093
      85 -> 86         0.66902
      85 -> 87         0.13523
 This state for optimization and/or second-order correction.
 Total Energy, E(TD-HF/TD-DFT) =  -1403.05537111
 Copying the excited state density for this state as the 1-particle RhoCI density.

 Excited state symmetry could not be determined.
 Excited State   2:      Triplet-?Sym    3.7730 eV  328.61 nm  f=0.0000  <S**2>=2.000
      81 -> 87        -0.14764
      82 -> 86         0.13409
      82 -> 87        -0.31357
      83 -> 87         0.29959
      83 -> 88         0.22855
      83 -> 89        -0.10489
      84 -> 86        -0.14720
      84 -> 87         0.16372
      84 -> 88        -0.34487
      84 -> 89         0.14945

 Excited state symmetry could not be determined.
 Excited State   3:      Singlet-?Sym    4.5202 eV  274.29 nm  f=0.2224  <S**2>=0.000
      85 -> 86         0.69485

 Excited state symmetry could not be determined.
 Excited State   4:      Singlet-?Sym    4.7633 eV  260.29 nm  f=0.0036  <S**2>=0.000
      81 -> 86         0.19898
      82 -> 86         0.23243
      83 -> 86         0.46784
      84 -> 86         0.37596

 Alpha  occ. eigenvalues --  -88.89646 -24.71688 -24.71472 -19.11316 -14.39721
 Alpha  occ. eigenvalues --  -14.33257 -10.30535 -10.29221 -10.28356 -10.28312
 Alpha  occ. eigenvalues --  -10.24472 -10.23302 -10.21524 -10.21252 -10.20661
 Alpha  occ. eigenvalues --  -10.20370 -10.20360 -10.19790 -10.19307 -10.18514
 Alpha  occ. eigenvalues --  -10.18389 -10.16599  -7.95858  -5.92364  -5.91938
 Alpha  occ. eigenvalues --   -5.91378  -1.22661  -1.22480  -1.04247  -0.99022
 Alpha  occ. eigenvalues --   -0.90775  -0.87617  -0.83646  -0.81220  -0.79103
 Alpha  occ. eigenvalues --   -0.75765  -0.75717  -0.72636  -0.70695  -0.69799
 Alpha  occ. eigenvalues --   -0.64697  -0.64222  -0.63020  -0.60944  -0.60867
 Alpha  occ. eigenvalues --   -0.57569  -0.55989  -0.55127  -0.53329  -0.52277
 Alpha  occ. eigenvalues --   -0.49818  -0.49140  -0.49030  -0.47520  -0.46149
 Alpha  occ. eigenvalues --   -0.45980  -0.45290  -0.44458  -0.43988  -0.43230
 Alpha  occ. eigenvalues --   -0.43020  -0.42683  -0.42043  -0.41177  -0.40076
 Alpha  occ. eigenvalues --   -0.39799  -0.39269  -0.38641  -0.37520  -0.37503
 Alpha  occ. eigenvalues --   -0.36875  -0.36176  -0.35839  -0.35740  -0.35388
 Alpha  occ. eigenvalues --   -0.34745  -0.33491  -0.32499  -0.30387  -0.27909
 Alpha  occ. eigenvalues --   -0.26144  -0.26077  -0.25133  -0.25066  -0.22143
 Alpha virt. eigenvalues --   -0.03749  -0.01439  -0.00513   0.00192   0.01108
 Alpha virt. eigenvalues --    0.06327   0.06926   0.08842   0.10354   0.10928
 Alpha virt. eigenvalues --    0.11785   0.13044   0.13737   0.13862   0.14344

 Mulliken charges:
               1
     1  C   -0.453475
     2  C   -0.331171
     3  C    0.028480
     4  C    0.254638
     5  C   -0.406383
     6  C    0.017889
     7  C    0.336073
     8  F   -0.288796
     9  C   -0.191781
    10  C   -0.135419
    11  C   -0.196989
    12  C    0.350345
    13  F   -0.294018
    14  N   -0.518009
    15  C    0.330804
    16  S    0.130325
    17  C   -0.240114
    18  C   -0.435840
    19  C   -0.454883
    20  N   -0.651941
    21  C    0.583668
    22  O   -0.526388
    23  H    0.168039
    24  H    0.152273
    25  H    0.141625
    26  H    0.168987
    27  H    0.137949
    28  H    0.182428
    29  H    0.171115
    30  H    0.150744
    31  H    0.146720
    32  H    0.146801
    33  H    0.212863
    34  H    0.174729
    35  H    0.148153
    36  H    0.152497
    37  H    0.158201
    38  H    0.168361
    39  H    0.158443
    40  H    0.353054
 Sum of Mulliken charges =  -0.00000

 Dipole moment (field-independent basis, Debye):
    X=              0.2587    Y=              4.1328    Z=              2.0577  Tot=              4.6239
 Quadrupole moment (field-independent basis, Debye-Ang):
   XX=           -128.4079   YY=           -144.5669   ZZ=           -129.2835
   XY=             -2.1894   XZ=              2.0218   YZ=              0.2563

 Normal termination of Gaussian 16 at Sat Nov  5 11:51:46 2022.
