 Gaussian 16, Revision B.01,
 Gaussian 16:  ES64L-G16RevB.01 20-Dec-2017

 -----------------------------
 #p b3lyp/6-31g(d) opt SCF=XQC
 -----------------------------

 ------------------------------
 Gaussian input prepared by ASE
 ------------------------------
 Symbolic Z-matrix:
 Charge =  0 Multiplicity = 1

 SCF Done:  E(RB3LYP) =  -1403.15998590     A.U. after   15 cycles
 SCF Done:  E(RB3LYP) =  -1403.16398255     A.U. after   14 cycles
 SCF Done:  E(RB3LYP) =  -1403.16499552     A.U. after   15 cycles
 SCF Done:  E(RB3LYP) =  -1403.16694403     A.U. after   12 cycles
 SCF Done:  E(RB3LYP) =  -1403.16744481     A.U. after   12 cycles
 SCF Done:  E(RB3LYP) =  -1403.16767870     A.U. after   11 cycles
 SCF Done:  E(RB3LYP) =  -1403.16778592     A.U. after   11 cycles
 SCF Done:  E(RB3LYP) =  -1403.16783588     A.U. after   13 cycles
 SCF Done:  E(RB3LYP) =  -1403.16813719     A.U. after   11 cycles
 SCF Done:  E(RB3LYP) =  -1403.16908614     A.U. after   12 cycles
 SCF Done:  E(RB3LYP) =  -1403.16949532     A.U. after   13 cycles
 SCF Done:  E(RB3LYP) =  -1403.16980401     A.U. after   12 cycles
 SCF Done:  E(RB3LYP) =  -1403.17016345     A.U. after   12 cycles
 SCF Done:  E(RB3LYP) =  -1403.16955521     A.U. after   12 cycles
 SCF Done:  E(RB3LYP) =  -1403.17022289     A.U. after   12 cycles
 SCF Done:  E(RB3LYP) =  -1403.17038920     A.U. after   11 cycles
 SCF Done:  E(RB3LYP) =  -1403.17040562     A.U. after    9 cycles
 SCF Done:  E(RB3LYP) =  -1403.17040789     A.U. after    9 cycles
 SCF Done:  E(RB3LYP) =  -1403.17040820     A.U. after    8 cycles
 SCF Done:  E(RB3LYP) =  -1403.17040802     A.U. after    8 cycles
 Optimization completed.
    -- Stationary point found.

                         Standard orientation:
 ---------------------------------------------------------------------
 Center     Atomic      Atomic             Coordinates (Angstroms)
 Number     Number       Type             X           Y           Z
 ---------------------------------------------------------------------
      1          6           0       -4.339987    0.072373   -0.560043
      2          6           0       -3.655211    0.626185    0.703415
      3          6           0       -2.233975    1.073163    0.452446
      4          6           0       -1.092326    0.350213    0.701314
      5          6           0       -1.089946   -1.036222    1.330663
      6          6           0       -0.267649   -2.045610    0.559905
      7          6           0       -0.813138   -2.815891   -0.469110
      8          9           0       -2.122613   -2.643496   -0.766158
      9          6           0       -0.092630   -3.757032   -1.194387
     10          6           0        1.252919   -3.948689   -0.880333
     11          6           0        1.851991   -3.210507    0.140810
     12          6           0        1.081891   -2.281459    0.831052
     13          9           0        1.667785   -1.579621    1.826658
     14          7           0        0.182588    0.818791    0.447243
     15          6           0        0.311904    2.005711   -0.058359
     16         16           0        1.898532    2.740319   -0.378721
     17          6           0        3.044048    1.307221   -0.069297
     18          6           0        3.108192    0.381273   -1.283844
     19          6           0        4.408121    1.890036    0.309665
     20          7           0       -0.759687    2.793433   -0.358145
     21          6           0       -2.097845    2.401964   -0.138649
     22          8           0       -3.007400    3.165771   -0.441468
     23          1           0       -4.358169    0.833745   -1.345784
     24          1           0       -3.811057   -0.807564   -0.938609
     25          1           0       -5.375116   -0.214395   -0.341594
     26          1           0       -4.219228    1.497136    1.054600
     27          1           0       -3.691742   -0.119408    1.503640
     28          1           0       -0.663932   -0.941182    2.336068
     29          1           0       -2.107821   -1.411344    1.435282
     30          1           0       -0.587968   -4.318815   -1.978517
     31          1           0        1.836752   -4.679211   -1.431923
     32          1           0        2.893362   -3.344514    0.412421
     33          1           0        2.605457    0.772481    0.776577
     34          1           0        2.120671   -0.020832   -1.523417
     35          1           0        3.771931   -0.464835   -1.064427
     36          1           0        3.499949    0.904435   -2.163133
     37          1           0        4.829210    2.495337   -0.501891
     38          1           0        4.347564    2.511877    1.207876
     39          1           0        5.107781    1.069520    0.506874
     40          1           0       -0.639963    3.712389   -0.772453
 ---------------------------------------------------------------------

 The electronic state is 1-A.
 Alpha  occ. eigenvalues --  -88.89646 -24.71688 -24.71472 -19.11317 -14.39721
 Alpha  occ. eigenvalues --  -14.33257 -10.30535 -10.29221 -10.28355 -10.28312
 Alpha  occ. eigenvalues --  -10.24472 -10.23302 -10.21524 -10.21251 -10.20661
 Alpha  occ. eigenvalues --  -10.20370 -10.20360 -10.19790 -10.19307 -10.18514
 Alpha  occ. eigenvalues --  -10.18389 -10.16599  -7.95858  -5.92364  -5.91938
 Alpha  occ. eigenvalues --   -5.91378  -1.22661  -1.22480  -1.04247  -0.99022
 Alpha  occ. eigenvalues --   -0.90775  -0.87617  -0.83646  -0.81220  -0.79103
 Alpha  occ. eigenvalues --   -0.75765  -0.75717  -0.72636  -0.70695  -0.69799
 Alpha  occ. eigenvalues --   -0.64697  -0.64222  -0.63020  -0.60944  -0.60867
 Alpha  occ. eigenvalues --   -0.57569  -0.55988  -0.55127  -0.53329  -0.52277
 Alpha  occ. eigenvalues --   -0.49818  -0.49140  -0.49030  -0.47520  -0.46149
 Alpha  occ. eigenvalues --   -0.45980  -0.45290  -0.44458  -0.43988  -0.43230
 Alpha  occ. eigenvalues --   -0.43020  -0.42683  -0.42043  -0.41177  -0.40076
 Alpha  occ. eigenvalues --   -0.39799  -0.39269  -0.38641  -0.37520  -0.37503
 Alpha  occ. eigenvalues --   -0.36875  -0.36176  -0.35839  -0.35740  -0.35388
 Alpha  occ. eigenvalues --   -0.34745  -0.33491  -0.32499  -0.30387  -0.27909
 Alpha  occ. eigenvalues --   -0.26144  -0.26077  -0.25133  -0.25066  -0.22143
 Alpha virt. eigenvalues --   -0.03749  -0.01439  -0.00513   0.00192   0.01108
 Alpha virt. eigenvalues --    0.06326   0.06926   0.08842   0.10354   0.10928
 Alpha virt. eigenvalues --    0.11784   0.13044   0.13737   0.13862   0.14343

 Mulliken charges:
               1
     1  C   -0.453475
     2  C   -0.331169
     3  C    0.028490
     4  C    0.254622
     5  C   -0.406380
     6  C    0.017865
     7  C    0.336085
     8  F   -0.288798
     9  C   -0.191781
    10  C   -0.135419
    11  C   -0.196992
    12  C    0.350368
    13  F   -0.294022
    14  N   -0.518017
    15  C    0.330815
    16  S    0.130321
    17  C   -0.240112
    18  C   -0.435839
    19  C   -0.454884
    20  N   -0.651945
    21  C    0.583666
    22  O   -0.526388
    23  H    0.168039
    24  H    0.152274
    25  H    0.141626
    26  H    0.168987
    27  H    0.137950
    28  H    0.182429
    29  H    0.171117
    30  H    0.150743
    31  H    0.146719
    32  H    0.146801
    33  H    0.212862
    34  H    0.174727
    35  H    0.148153
    36  H    0.152497
    37  H    0.158202
    38  H    0.168362
    39  H    0.158443
    40  H    0.353054
 Sum of Mulliken charges =  -0.00000

 Dipole moment (field-independent basis, Debye):
    X=              3.7916    Y=             -2.6446    Z=             -0.1006  Tot=              4.6239
 Quadrupole moment (field-independent basis, Debye-Ang):
   XX=           -134.3674   YY=           -133.1660   ZZ=           -133.3627
   XY=              6.7524   XZ=             -5.1480   YZ=              3.3007

 Normal termination of Gaussian 16 at Fri Nov  4 19:47:10 2022.
