 Gaussian 16, Revision B.01,
 Gaussian 16:  ES64L-G16RevB.01 20-Dec-2017

 -----------------------------
 #p b3lyp/6-31g(d) opt SCF=XQC
 -----------------------------

 ------------------------------
 Gaussian input prepared by ASE
 ------------------------------
 Symbolic Z-matrix:
 Charge =  0 Multiplicity = 1

 SCF Done:  E(RB3LYP) =  -1793.73712182     A.U. after   15 cycles
 SCF Done:  E(RB3LYP) =  -1793.74526057     A.U. after   12 cycles
 SCF Done:  E(RB3LYP) =  -1793.74581343     A.U. after   12 cycles
 SCF Done:  E(RB3LYP) =  -1793.74628395     A.U. after   11 cycles
 SCF Done:  E(RB3LYP) =  -1793.74633366     A.U. after   11 cycles
 SCF Done:  E(RB3LYP) =  -1793.74596509     A.U. after   11 cycles
 SCF Done:  E(RB3LYP) =  -1793.74635663     A.U. after   11 cycles
 SCF Done:  E(RB3LYP) =  -1793.74636078     A.U. after    8 cycles
 SCF Done:  E(RB3LYP) =  -1793.74636115     A.U. after    9 cycles
 SCF Done:  E(RB3LYP) =  -1793.74636313     A.U. after    8 cycles
 SCF Done:  E(RB3LYP) =  -1793.74815771     A.U. after   15 cycles
 SCF Done:  E(RB3LYP) =  -1793.74834844     A.U. after   11 cycles
 SCF Done:  E(RB3LYP) =  -1793.74838302     A.U. after   12 cycles
 SCF Done:  E(RB3LYP) =  -1793.74844331     A.U. after   12 cycles
 SCF Done:  E(RB3LYP) =  -1793.74844701     A.U. after    9 cycles
 SCF Done:  E(RB3LYP) =  -1793.74844938     A.U. after   10 cycles
 SCF Done:  E(RB3LYP) =  -1793.74845035     A.U. after    8 cycles
 SCF Done:  E(RB3LYP) =  -1793.74845074     A.U. after   10 cycles
 SCF Done:  E(RB3LYP) =  -1793.74845107     A.U. after    8 cycles
 SCF Done:  E(RB3LYP) =  -1793.74845110     A.U. after    7 cycles
 Optimization completed.
    -- Stationary point found.

                         Standard orientation:
 ---------------------------------------------------------------------
 Center     Atomic      Atomic             Coordinates (Angstroms)
 Number     Number       Type             X           Y           Z
 ---------------------------------------------------------------------
      1          6           0       -3.074768    3.237050    1.320182
      2          6           0       -2.276062    2.863293    0.041292
      3          6           0       -1.001679    3.734786    0.067774
      4          6           0       -3.047520    3.274314   -1.242893
      5          6           0       -1.937713    1.350134    0.023169
      6          6           0       -0.608523    0.920806    0.036077
      7          6           0       -0.270226   -0.434250    0.023504
      8          6           0        1.139416   -0.845216    0.044393
      9          7           0        1.498513   -2.120858    0.081250
     10         16           0        3.163546   -2.223726    0.088757
     11          6           0        3.294208   -0.493161    0.054373
     12         16           0        4.882076    0.369884    0.087673
     13          6           0        4.765980    1.440366   -1.360053
     14          8           0        5.887368   -0.674647   -0.152496
     15          8           0        4.935806    1.214486    1.283578
     16          7           0        2.145806    0.108954    0.027865
     17          6           0       -1.289459   -1.393685   -0.003935
     18          6           0       -2.636736   -1.041128   -0.019415
     19          6           0       -3.743157   -2.121256   -0.050698
     20          6           0       -3.147784   -3.544945   -0.063368
     21          6           0       -4.638288   -2.012890    1.209010
     22          6           0       -4.603000   -1.975399   -1.331012
     23          6           0       -2.938744    0.345897   -0.004234
     24          8           0       -4.272400    0.665200   -0.018154
     25          1           0       -4.024244    2.703490    1.439623
     26          1           0       -3.304272    4.308941    1.320702
     27          1           0       -2.479939    3.016142    2.212743
     28          1           0       -1.288627    4.792028    0.079169
     29          1           0       -0.376160    3.572318   -0.816301
     30          1           0       -0.394460    3.547907    0.959456
     31          1           0       -3.993007    2.743413   -1.398574
     32          1           0       -2.433191    3.080703   -2.128732
     33          1           0       -3.278321    4.345619   -1.216546
     34          1           0        0.197702    1.640287    0.060911
     35          1           0        4.698524    0.821795   -2.256805
     36          1           0        3.888650    2.079367   -1.248185
     37          1           0        5.681745    2.036804   -1.371308
     38          1           0       -0.998322   -2.435177   -0.012232
     39          1           0       -2.523206   -3.725104   -0.945616
     40          1           0       -3.965711   -4.273447   -0.086014
     41          1           0       -2.548737   -3.751612    0.830604
     42          1           0       -5.142014   -1.047139    1.271129
     43          1           0       -5.404050   -2.798087    1.188063
     44          1           0       -4.042200   -2.151055    2.118865
     45          1           0       -5.104752   -1.007795   -1.378978
     46          1           0       -5.369155   -2.760146   -1.354325
     47          1           0       -3.981965   -2.087627   -2.227759
     48          1           0       -4.376335    1.624570    0.005002
 ---------------------------------------------------------------------

 The electronic state is 1-A.
 Alpha  occ. eigenvalues --  -89.11492 -88.96110 -19.18817 -19.15500 -19.15480
 Alpha  occ. eigenvalues --  -14.37188 -14.37104 -10.29252 -10.27932 -10.25999
 Alpha  occ. eigenvalues --  -10.23929 -10.22519 -10.20387 -10.20305 -10.20041
 Alpha  occ. eigenvalues --  -10.19770 -10.19452 -10.19409 -10.19362 -10.19055
 Alpha  occ. eigenvalues --  -10.18707 -10.17050 -10.16555 -10.16516  -8.14354
 Alpha  occ. eigenvalues --   -8.01915  -6.10776  -6.10745  -6.10669  -5.98404
 Alpha  occ. eigenvalues --   -5.97920  -5.97597  -1.11508  -1.07157  -1.02968
 Alpha  occ. eigenvalues --   -1.01068  -0.89997  -0.86897  -0.83541  -0.82085
 Alpha  occ. eigenvalues --   -0.79990  -0.78582  -0.73946  -0.73831  -0.70467
 Alpha  occ. eigenvalues --   -0.69906  -0.68445  -0.68118  -0.67667  -0.64598
 Alpha  occ. eigenvalues --   -0.62311  -0.60209  -0.58099  -0.57121  -0.54312
 Alpha  occ. eigenvalues --   -0.53044  -0.52615  -0.49700  -0.48972  -0.48506
 Alpha  occ. eigenvalues --   -0.47909  -0.46847  -0.45918  -0.45648  -0.45362
 Alpha  occ. eigenvalues --   -0.44706  -0.44241  -0.43843  -0.43403  -0.42925
 Alpha  occ. eigenvalues --   -0.42356  -0.41568  -0.40220  -0.39960  -0.39464
 Alpha  occ. eigenvalues --   -0.38516  -0.38199  -0.38102  -0.37251  -0.36588
 Alpha  occ. eigenvalues --   -0.36120  -0.35719  -0.34998  -0.34893  -0.34639
 Alpha  occ. eigenvalues --   -0.33779  -0.33669  -0.33245  -0.32692  -0.32231
 Alpha  occ. eigenvalues --   -0.31881  -0.31313  -0.30969  -0.30484  -0.29569
 Alpha  occ. eigenvalues --   -0.28955  -0.24861  -0.21870
 Alpha virt. eigenvalues --   -0.07584  -0.03077  -0.00814  -0.00370   0.02931
 Alpha virt. eigenvalues --    0.05303   0.05583   0.06351   0.08064   0.09214
 Alpha virt. eigenvalues --    0.09788   0.09863   0.10534   0.11828   0.12096

 Mulliken charges:
               1
     1  C   -0.458898
     2  C   -0.019341
     3  C   -0.456612
     4  C   -0.458067
     5  C    0.172321
     6  C   -0.294550
     7  C    0.166898
     8  C    0.364284
     9  N   -0.543328
    10  S    0.461180
    11  C   -0.166778
    12  S    1.128929
    13  C   -0.635322
    14  O   -0.527506
    15  O   -0.493358
    16  N   -0.412967
    17  C   -0.283897
    18  C    0.149398
    19  C    0.032575
    20  C   -0.456861
    21  C   -0.450253
    22  C   -0.450275
    23  C    0.201791
    24  O   -0.646933
    25  H    0.139918
    26  H    0.150164
    27  H    0.164936
    28  H    0.145120
    29  H    0.150811
    30  H    0.159348
    31  H    0.140291
    32  H    0.161052
    33  H    0.149897
    34  H    0.156708
    35  H    0.210455
    36  H    0.225017
    37  H    0.224511
    38  H    0.162853
    39  H    0.146602
    40  H    0.141883
    41  H    0.148534
    42  H    0.167052
    43  H    0.134411
    44  H    0.139782
    45  H    0.167266
    46  H    0.134530
    47  H    0.138073
    48  H    0.418352
 Sum of Mulliken charges =  -0.00000

 Dipole moment (field-independent basis, Debye):
    X=             -3.4579    Y=              3.3098    Z=             -2.9455  Tot=              5.6203
 Quadrupole moment (field-independent basis, Debye-Ang):
   XX=           -172.7434   YY=           -148.0847   ZZ=           -158.1969
   XY=             -1.2156   XZ=            -15.2384   YZ=             -4.9674

 Normal termination of Gaussian 16 at Fri Nov  4 19:47:07 2022.
