 Gaussian 16, Revision B.01,
 Gaussian 16:  ES64L-G16RevB.01 20-Dec-2017

 -----------------------------
 #p b3lyp/6-31g(d) opt SCF=XQC
 -----------------------------

 ------------------------------
 Gaussian input prepared by ASE
 ------------------------------
 Symbolic Z-matrix:
 Charge =  0 Multiplicity = 1

 SCF Done:  E(RB3LYP) =  -1674.52164092     A.U. after   18 cycles
 SCF Done:  E(RB3LYP) =  -1674.53118833     A.U. after   16 cycles
 SCF Done:  E(RB3LYP) =  -1674.53317317     A.U. after   15 cycles
 SCF Done:  E(RB3LYP) =  -1674.53634436     A.U. after   14 cycles
 SCF Done:  E(RB3LYP) =  -1674.53685813     A.U. after   13 cycles
 SCF Done:  E(RB3LYP) =  -1674.53707939     A.U. after   13 cycles
 SCF Done:  E(RB3LYP) =  -1674.53723502     A.U. after   13 cycles
 SCF Done:  E(RB3LYP) =  -1674.53727697     A.U. after   12 cycles
 SCF Done:  E(RB3LYP) =  -1674.53730881     A.U. after   12 cycles
 SCF Done:  E(RB3LYP) =  -1674.53732906     A.U. after   11 cycles
 SCF Done:  E(RB3LYP) =  -1674.53767614     A.U. after   13 cycles
 SCF Done:  E(RB3LYP) =  -1674.53785326     A.U. after   14 cycles
 SCF Done:  E(RB3LYP) =  -1674.53782180     A.U. after   15 cycles
 SCF Done:  E(RB3LYP) =  -1674.53788471     A.U. after   14 cycles
 SCF Done:  E(RB3LYP) =  -1674.53790637     A.U. after   12 cycles
 SCF Done:  E(RB3LYP) =  -1674.53790911     A.U. after   12 cycles
 SCF Done:  E(RB3LYP) =  -1674.53791005     A.U. after   10 cycles
 SCF Done:  E(RB3LYP) =  -1674.53791031     A.U. after    9 cycles
 SCF Done:  E(RB3LYP) =  -1674.53791038     A.U. after    8 cycles
 SCF Done:  E(RB3LYP) =  -1674.53791039     A.U. after    8 cycles
 Optimization completed.
    -- Stationary point found.

                         Standard orientation:
 ---------------------------------------------------------------------
 Center     Atomic      Atomic             Coordinates (Angstroms)
 Number     Number       Type             X           Y           Z
 ---------------------------------------------------------------------
      1          8           0       -4.023950   -1.485005   -2.038780
      2          6           0       -4.873629   -1.457018   -1.175555
      3          8           0       -5.707127   -2.503352   -0.942328
      4          6           0       -5.224768   -0.271911   -0.331957
      5          6           0       -6.569815    0.103674   -0.243858
      6          6           0       -6.946953    1.294712    0.378360
      7          6           0       -5.972641    2.136726    0.916252
      8          6           0       -4.630147    1.774699    0.843676
      9          6           0       -4.246035    0.563899    0.254243
     10          7           0       -2.863896    0.274193    0.312070
     11          7           0       -2.604411   -0.955663    0.410897
     12          6           0       -1.232489   -1.273577    0.396013
     13          6           0       -0.217738   -0.367520    0.084643
     14          6           0        1.132838   -0.738524    0.060346
     15          6           0        2.221600    0.159854   -0.261292
     16          6           0        1.909230    1.570222   -0.655074
     17          6           0        1.803017    1.830134   -2.029795
     18          6           0        1.493408    3.102454   -2.508004
     19          6           0        1.280527    4.149578   -1.611265
     20          6           0        1.381592    3.910979   -0.245612
     21          6           0        1.693105    2.635156    0.250092
     22          6           0        1.777565    2.538720    1.739767
     23          8           0        1.549351    3.465025    2.492142
     24          8           0        2.140690    1.320088    2.201000
     25          6           0        3.510703   -0.321030   -0.279130
     26          6           0        4.673597    0.488307   -0.585361
     27          6           0        5.922854   -0.028667   -0.578899
     28          6           0        6.188971   -1.446405   -0.259249
     29          8           0        7.334774   -1.906596   -0.259276
     30          6           0        5.013515   -2.255849    0.055283
     31          6           0        3.770326   -1.714554    0.043609
     32          8           0        2.714480   -2.544828    0.353945
     33          6           0        1.440054   -2.087497    0.361005
     34          6           0        0.450490   -3.015195    0.670554
     35          6           0       -0.887620   -2.620783    0.687656
     36          8           0       -1.884483   -3.483651    0.984337
     37          1           0       -5.443170   -3.191813   -1.581757
     38          1           0       -7.322819   -0.538790   -0.688497
     39          1           0       -7.996836    1.568672    0.427361
     40          1           0       -6.256539    3.071131    1.391943
     41          1           0       -3.852163    2.402383    1.266848
     42          1           0       -0.511524    0.648904   -0.149010
     43          1           0        1.964426    1.014918   -2.728891
     44          1           0        1.418595    3.270722   -3.578627
     45          1           0        1.038278    5.144418   -1.973082
     46          1           0        1.224326    4.706285    0.474647
     47          1           0        2.156606    1.400519    3.173618
     48          1           0        4.510501    1.535120   -0.820954
     49          1           0        6.791510    0.581666   -0.807295
     50          1           0        5.161083   -3.301955    0.299588
     51          1           0        0.740606   -4.038509    0.891177
     52          1           0       -1.503958   -4.360325    1.155159
 ---------------------------------------------------------------------

 The electronic state is 1-A.
 Alpha  occ. eigenvalues --  -19.23209 -19.20960 -19.20870 -19.19521 -19.14853
 Alpha  occ. eigenvalues --  -19.13454 -19.10245 -14.38819 -14.38391 -10.33529
 Alpha  occ. eigenvalues --  -10.32333 -10.29036 -10.28810 -10.27484 -10.25066
 Alpha  occ. eigenvalues --  -10.24483 -10.23565 -10.23523 -10.23394 -10.22960
 Alpha  occ. eigenvalues --  -10.22627 -10.22513 -10.21923 -10.21834 -10.21816
 Alpha  occ. eigenvalues --  -10.21725 -10.21603 -10.21506 -10.21423 -10.20893
 Alpha  occ. eigenvalues --  -10.20824 -10.20785 -10.20650 -10.20531 -10.19230
 Alpha  occ. eigenvalues --  -10.18265  -1.12416  -1.11815  -1.10321  -1.09412
 Alpha  occ. eigenvalues --   -1.03999  -1.02458  -1.01079  -0.99963  -0.89986
 Alpha  occ. eigenvalues --   -0.88731  -0.87342  -0.86635  -0.82716  -0.80651
 Alpha  occ. eigenvalues --   -0.78585  -0.78026  -0.77667  -0.77090  -0.75232
 Alpha  occ. eigenvalues --   -0.74679  -0.70139  -0.68365  -0.67340  -0.66541
 Alpha  occ. eigenvalues --   -0.65699  -0.64205  -0.61826  -0.61528  -0.60963
 Alpha  occ. eigenvalues --   -0.60285  -0.59322  -0.57908  -0.55381  -0.54291
 Alpha  occ. eigenvalues --   -0.53735  -0.52860  -0.52480  -0.50952  -0.50502
 Alpha  occ. eigenvalues --   -0.49238  -0.48535  -0.48131  -0.47934  -0.47709
 Alpha  occ. eigenvalues --   -0.47425  -0.46923  -0.46788  -0.46378  -0.45926
 Alpha  occ. eigenvalues --   -0.45538  -0.45072  -0.44620  -0.44193  -0.44168
 Alpha  occ. eigenvalues --   -0.43118  -0.42730  -0.42049  -0.41607  -0.41047
 Alpha  occ. eigenvalues --   -0.40474  -0.39896  -0.39158  -0.39006  -0.38774
 Alpha  occ. eigenvalues --   -0.38470  -0.38085  -0.37862  -0.37628  -0.37255
 Alpha  occ. eigenvalues --   -0.36673  -0.36441  -0.35319  -0.34257  -0.33935
 Alpha  occ. eigenvalues --   -0.32986  -0.31526  -0.28994  -0.28709  -0.28048
 Alpha  occ. eigenvalues --   -0.27810  -0.27750  -0.27200  -0.26300  -0.25568
 Alpha  occ. eigenvalues --   -0.24561  -0.23148  -0.22648  -0.20657
 Alpha virt. eigenvalues --   -0.09623  -0.08376  -0.06362  -0.03207  -0.02877
 Alpha virt. eigenvalues --   -0.01035  -0.00813   0.00668   0.01699   0.03986
 Alpha virt. eigenvalues --    0.04343   0.04586   0.06458   0.06971   0.07549

 Mulliken charges:
               1
     1  O   -0.462806
     2  C    0.510879
     3  O   -0.564226
     4  C    0.108322
     5  C   -0.171800
     6  C   -0.120921
     7  C   -0.131752
     8  C   -0.148177
     9  C    0.251472
    10  N   -0.298386
    11  N   -0.306734
    12  C    0.259897
    13  C   -0.231019
    14  C    0.133617
    15  C    0.000335
    16  C   -0.037831
    17  C   -0.147449
    18  C   -0.119660
    19  C   -0.124082
    20  C   -0.170469
    21  C    0.076557
    22  C    0.541022
    23  O   -0.468133
    24  O   -0.582718
    25  C    0.100973
    26  C   -0.170610
    27  C   -0.186892
    28  C    0.446486
    29  O   -0.528296
    30  C   -0.296456
    31  C    0.341954
    32  O   -0.553485
    33  C    0.330808
    34  C   -0.283994
    35  C    0.363794
    36  O   -0.611492
    37  H    0.408952
    38  H    0.158352
    39  H    0.141234
    40  H    0.142851
    41  H    0.150610
    42  H    0.181552
    43  H    0.155815
    44  H    0.151019
    45  H    0.148474
    46  H    0.176971
    47  H    0.417633
    48  H    0.152026
    49  H    0.147617
    50  H    0.149461
    51  H    0.150157
    52  H    0.418544
 Sum of Mulliken charges =  -0.00000

 Dipole moment (field-independent basis, Debye):
    X=             -6.3595    Y=              0.7661    Z=             -0.1371  Tot=              6.4070
 Quadrupole moment (field-independent basis, Debye-Ang):
   XX=           -237.6379   YY=           -176.1092   ZZ=           -194.5681
   XY=             15.7475   XZ=             -1.2354   YZ=            -11.5356

 Normal termination of Gaussian 16 at Fri Nov  4 20:52:39 2022.
