 Gaussian 16, Revision B.01,
 Gaussian 16:  ES64L-G16RevB.01 20-Dec-2017

 -------------------------------------------------------------------
 #p b3lyp/6-31g(d) 6D 10F nosymm GFInput td=(50-50,nstate=2) SCF=XQC
 -------------------------------------------------------------------

 ------------------------------
 Gaussian input prepared by ASE
 ------------------------------
 Symbolic Z-matrix:
 Charge =  0 Multiplicity = 1

                          Input orientation:
 ---------------------------------------------------------------------
 Center     Atomic      Atomic             Coordinates (Angstroms)
 Number     Number       Type             X           Y           Z
 ---------------------------------------------------------------------
      1          8           0        3.832996    0.894319   -2.541652
      2          6           0        4.776382    0.607007   -1.837828
      3          8           0        5.861744    1.413406   -1.712767
      4          6           0        4.962525   -0.687207   -1.109959
      5          6           0        6.175470   -1.367082   -1.266522
      6          6           0        6.350249   -2.656327   -0.761289
      7          6           0        5.300196   -3.290285   -0.095642
      8          6           0        4.088902   -2.625324    0.075280
      9          6           0        3.917324   -1.317774   -0.395767
     10          7           0        2.671298   -0.723723   -0.092285
     11          7           0        2.732061    0.521806    0.093758
     12          6           0        1.491114    1.146366    0.324921
     13          6           0        0.253289    0.523590    0.158942
     14          6           0       -0.956002    1.195478    0.379107
     15          6           0       -2.264526    0.597917    0.215938
     16          6           0       -2.364186   -0.812672   -0.276082
     17          6           0       -2.540973   -0.985595   -1.657219
     18          6           0       -2.623590   -2.255227   -2.226913
     19          6           0       -2.528590   -3.387816   -1.418121
     20          6           0       -2.353391   -3.236072   -0.047562
     21          6           0       -2.269007   -1.963923    0.539810
     22          6           0       -2.092334   -1.963294    2.024515
     23          8           0       -1.976507   -2.971278    2.692905
     24          8           0       -2.076495   -0.732195    2.584696
     25          6           0       -3.387645    1.361829    0.435929
     26          6           0       -4.743501    0.866528    0.303808
     27          6           0       -5.815992    1.654481    0.542224
     28          6           0       -5.681923    3.067195    0.953616
     29          8           0       -6.669873    3.776787    1.165922
     30          6           0       -4.312697    3.559090    1.091769
     31          6           0       -3.252653    2.749322    0.848380
     32          8           0       -1.993720    3.289205    1.003584
     33          6           0       -0.880735    2.552330    0.776337
     34          6           0        0.337841    3.202026    0.945606
     35          6           0        1.528461    2.510828    0.719640
     36          8           0        2.736514    3.096910    0.872650
     37          1           0        5.672628    2.190281   -2.272429
     38          1           0        6.980475   -0.882989   -1.809753
     39          1           0        7.298495   -3.166880   -0.902263
     40          1           0        5.423877   -4.298047    0.290508
     41          1           0        3.260113   -3.087722    0.602173
     42          1           0        0.255156   -0.512538   -0.158008
     43          1           0       -2.610940   -0.104763   -2.288570
     44          1           0       -2.760686   -2.354945   -3.299949
     45          1           0       -2.591129   -4.381503   -1.851684
     46          1           0       -2.279305   -4.098228    0.606053
     47          1           0       -1.957815   -0.879935    3.542191
     48          1           0       -4.874426   -0.168940    0.006174
     49          1           0       -6.830110    1.278871    0.443670
     50          1           0       -4.165692    4.589650    1.395305
     51          1           0        0.339084    4.244980    1.249348
     52          1           0        2.608252    4.022078    1.137504
 ---------------------------------------------------------------------

 SCF Done:  E(RB3LYP) =  -1674.53791454     A.U. after   18 cycles

 Excitation energies and oscillator strengths:

 Excited state symmetry could not be determined.
 Excited State   1:      Triplet-?Sym    1.5713 eV  789.05 nm  f=0.0000  <S**2>=2.000
     121 ->125         0.10914
     122 ->126         0.12748
     124 ->125         0.59275
     124 ->126         0.31727
     124 <-125         0.10203
 This state for optimization and/or second-order correction.
 Total Energy, E(TD-HF/TD-DFT) =  -1674.48016983
 Copying the excited state density for this state as the 1-particle RhoCI density.

 Excited state symmetry could not be determined.
 Excited State   2:      Triplet-?Sym    1.7309 eV  716.28 nm  f=0.0000  <S**2>=2.000
     122 ->125         0.51363
     122 ->126        -0.34508
     122 ->133         0.10551
     124 ->125        -0.10931
     124 ->126         0.24382

 Excited state symmetry could not be determined.
 Excited State   3:      Singlet-?Sym    2.5025 eV  495.44 nm  f=0.1287  <S**2>=0.000
     120 ->125         0.10054
     121 ->125        -0.13509
     121 ->126         0.12545
     122 ->125         0.50567
     122 ->126        -0.29578
     124 ->125        -0.29042
     124 ->126         0.11907

 Excited state symmetry could not be determined.
 Excited State   4:      Singlet-?Sym    2.6303 eV  471.38 nm  f=0.0000  <S**2>=0.000
     123 ->125         0.62335
     123 ->126         0.31062

 Alpha  occ. eigenvalues --  -19.23209 -19.20960 -19.20870 -19.19521 -19.14853
 Alpha  occ. eigenvalues --  -19.13454 -19.10245 -14.38820 -14.38391 -10.33529
 Alpha  occ. eigenvalues --  -10.32333 -10.29036 -10.28810 -10.27484 -10.25066
 Alpha  occ. eigenvalues --  -10.24483 -10.23565 -10.23523 -10.23394 -10.22960
 Alpha  occ. eigenvalues --  -10.22627 -10.22513 -10.21923 -10.21834 -10.21816
 Alpha  occ. eigenvalues --  -10.21725 -10.21603 -10.21506 -10.21423 -10.20893
 Alpha  occ. eigenvalues --  -10.20824 -10.20785 -10.20650 -10.20531 -10.19230
 Alpha  occ. eigenvalues --  -10.18265  -1.12416  -1.11815  -1.10321  -1.09412
 Alpha  occ. eigenvalues --   -1.03999  -1.02458  -1.01079  -0.99963  -0.89986
 Alpha  occ. eigenvalues --   -0.88731  -0.87342  -0.86635  -0.82716  -0.80651
 Alpha  occ. eigenvalues --   -0.78585  -0.78026  -0.77667  -0.77090  -0.75232
 Alpha  occ. eigenvalues --   -0.74679  -0.70139  -0.68365  -0.67340  -0.66541
 Alpha  occ. eigenvalues --   -0.65699  -0.64205  -0.61826  -0.61528  -0.60963
 Alpha  occ. eigenvalues --   -0.60285  -0.59322  -0.57908  -0.55381  -0.54291
 Alpha  occ. eigenvalues --   -0.53735  -0.52860  -0.52480  -0.50952  -0.50502
 Alpha  occ. eigenvalues --   -0.49238  -0.48535  -0.48131  -0.47934  -0.47709
 Alpha  occ. eigenvalues --   -0.47425  -0.46923  -0.46788  -0.46378  -0.45926
 Alpha  occ. eigenvalues --   -0.45538  -0.45072  -0.44620  -0.44193  -0.44168
 Alpha  occ. eigenvalues --   -0.43118  -0.42730  -0.42049  -0.41607  -0.41047
 Alpha  occ. eigenvalues --   -0.40474  -0.39896  -0.39158  -0.39006  -0.38774
 Alpha  occ. eigenvalues --   -0.38470  -0.38085  -0.37862  -0.37628  -0.37255
 Alpha  occ. eigenvalues --   -0.36673  -0.36441  -0.35319  -0.34257  -0.33935
 Alpha  occ. eigenvalues --   -0.32986  -0.31526  -0.28994  -0.28709  -0.28048
 Alpha  occ. eigenvalues --   -0.27810  -0.27750  -0.27200  -0.26300  -0.25568
 Alpha  occ. eigenvalues --   -0.24561  -0.23148  -0.22648  -0.20657
 Alpha virt. eigenvalues --   -0.09623  -0.08376  -0.06362  -0.03207  -0.02877
 Alpha virt. eigenvalues --   -0.01035  -0.00813   0.00668   0.01699   0.03986
 Alpha virt. eigenvalues --    0.04343   0.04586   0.06458   0.06971   0.07549

 Mulliken charges:
               1
     1  O   -0.462799
     2  C    0.510868
     3  O   -0.564227
     4  C    0.108339
     5  C   -0.171796
     6  C   -0.120933
     7  C   -0.131751
     8  C   -0.148165
     9  C    0.251454
    10  N   -0.298384
    11  N   -0.306714
    12  C    0.259862
    13  C   -0.231033
    14  C    0.133649
    15  C    0.000331
    16  C   -0.037852
    17  C   -0.147451
    18  C   -0.119661
    19  C   -0.124081
    20  C   -0.170471
    21  C    0.076596
    22  C    0.541010
    23  O   -0.468134
    24  O   -0.582716
    25  C    0.100980
    26  C   -0.170634
    27  C   -0.186889
    28  C    0.446492
    29  O   -0.528295
    30  C   -0.296465
    31  C    0.341956
    32  O   -0.553484
    33  C    0.330799
    34  C   -0.283993
    35  C    0.363810
    36  O   -0.611493
    37  H    0.408952
    38  H    0.158352
    39  H    0.141235
    40  H    0.142851
    41  H    0.150608
    42  H    0.181557
    43  H    0.155816
    44  H    0.151019
    45  H    0.148475
    46  H    0.176971
    47  H    0.417633
    48  H    0.152027
    49  H    0.147617
    50  H    0.149461
    51  H    0.150157
    52  H    0.418544
 Sum of Mulliken charges =  -0.00000

 Dipole moment (field-independent basis, Debye):
    X=              5.8890    Y=             -2.1929    Z=             -1.2490  Tot=              6.4070
 Quadrupole moment (field-independent basis, Debye-Ang):
   XX=           -225.2725   YY=           -189.0976   ZZ=           -195.8386
   XY=             30.3915   XZ=             11.6790   YZ=              6.4473

 Normal termination of Gaussian 16 at Sat Nov  5 11:57:06 2022.
