 Gaussian 16, Revision B.01,
 Gaussian 16:  ES64L-G16RevB.01 20-Dec-2017

 -------------------------------------------------------------------
 #p b3lyp/6-31g(d) 6D 10F nosymm GFInput td=(50-50,nstate=2) SCF=XQC
 -------------------------------------------------------------------

 ------------------------------
 Gaussian input prepared by ASE
 ------------------------------
 Symbolic Z-matrix:
 Charge =  0 Multiplicity = 1

                          Input orientation:
 ---------------------------------------------------------------------
 Center     Atomic      Atomic             Coordinates (Angstroms)
 Number     Number       Type             X           Y           Z
 ---------------------------------------------------------------------
      1          6           0       -7.663670    1.126123   -1.863462
      2          8           0       -7.802689    0.070507   -0.924959
      3          6           0       -6.673521   -0.432103   -0.345710
      4          6           0       -6.877418   -1.474279    0.572930
      5          6           0       -5.785377   -2.047368    1.211740
      6          6           0       -4.488138   -1.599211    0.950962
      7          6           0       -4.278974   -0.560786    0.036321
      8          6           0       -2.922219   -0.068033   -0.258103
      9          6           0       -1.682725   -0.504243    0.274394
     10          6           0       -0.722770    0.290240   -0.337040
     11          6           0        0.746925    0.421342   -0.291891
     12          8           0        1.327766    1.257449   -0.984343
     13          7           0        1.397799   -0.435684    0.556450
     14          6           0        2.782194   -0.474271    0.745733
     15          6           0        3.475059   -1.353188    1.618917
     16          7           0        4.782660   -1.148456    1.579229
     17          7           0        4.955662   -0.141081    0.686159
     18          6           0        6.256131    0.331542    0.403037
     19          6           0        6.472362    1.367551   -0.511452
     20          6           0        7.784066    1.780290   -0.739059
     21          7           0        8.858515    1.252959   -0.141453
     22          6           0        8.625912    0.261996    0.730388
     23          6           0        7.363901   -0.236287    1.041048
     24          6           0        3.765990    0.295431    0.158266
     25          7           0       -1.408635    1.121553   -1.165132
     26          7           0       -2.728774    0.930848   -1.139687
     27          6           0       -5.381655    0.022755   -0.613103
     28          1           0       -7.061964    0.820011   -2.729226
     29          1           0       -7.209007    2.015017   -1.406891
     30          1           0       -8.675916    1.366881   -2.193585
     31          1           0       -7.891501   -1.810495    0.764026
     32          1           0       -5.943438   -2.853932    1.922643
     33          1           0       -3.648622   -2.061165    1.461288
     34          1           0       -1.522864   -1.287987    1.000712
     35          1           0        0.845202   -1.092126    1.090024
     36          1           0        3.066986   -2.118919    2.266920
     37          1           0        5.657364    1.849379   -1.038921
     38          1           0        7.975249    2.585081   -1.446861
     39          1           0        9.503294   -0.163817    1.214036
     40          1           0        7.230530   -1.039568    1.753926
     41          1           0        3.683467    1.085032   -0.565964
     42          1           0       -0.988518    1.826542   -1.755935
     43          1           0       -5.198636    0.824468   -1.316838
 ---------------------------------------------------------------------

 SCF Done:  E(RB3LYP) =  -1212.58387164     A.U. after   15 cycles

 Excitation energies and oscillator strengths:

 Excited state symmetry could not be determined.
 Excited State   1:      Triplet-?Sym    3.1667 eV  391.53 nm  f=0.0000  <S**2>=2.000
      88 -> 95        -0.11638
      92 -> 95        -0.12941
      92 -> 96        -0.12576
      92 -> 97         0.24605
      92 -> 99         0.10547
      93 -> 95         0.22034
      94 -> 95        -0.18070
      94 -> 96        -0.14531
      94 -> 97         0.47105
      94 -> 99        -0.13893
 This state for optimization and/or second-order correction.
 Total Energy, E(TD-HF/TD-DFT) =  -1212.46749809
 Copying the excited state density for this state as the 1-particle RhoCI density.

 Excited state symmetry could not be determined.
 Excited State   2:      Triplet-?Sym    3.3239 eV  373.01 nm  f=0.0000  <S**2>=2.000
      84 -> 96        -0.11565
      89 -> 98         0.12220
      92 -> 95         0.16954
      93 -> 95         0.56747
      93 -> 96        -0.23931
      94 -> 97        -0.13139

 Excited state symmetry could not be determined.
 Excited State   3:      Singlet-?Sym    3.9697 eV  312.33 nm  f=0.0042  <S**2>=0.000
      94 -> 95         0.68608
      94 -> 96         0.14370

 Excited state symmetry could not be determined.
 Excited State   4:      Singlet-?Sym    4.2078 eV  294.65 nm  f=0.8566  <S**2>=0.000
      93 -> 95         0.69569

 Alpha  occ. eigenvalues --  -19.17714 -19.14144 -14.43671 -14.42596 -14.40329
 Alpha  occ. eigenvalues --  -14.36848 -14.36692 -14.32956 -10.32070 -10.26081
 Alpha  occ. eigenvalues --  -10.24747 -10.24741 -10.24690 -10.23965 -10.23528
 Alpha  occ. eigenvalues --  -10.22946 -10.22852 -10.22837 -10.22641 -10.20808
 Alpha  occ. eigenvalues --  -10.20764 -10.20504 -10.20128 -10.19270 -10.18750
 Alpha  occ. eigenvalues --  -10.18546 -10.18490  -1.07386  -1.07002  -1.06297
 Alpha  occ. eigenvalues --   -1.05383  -0.96228  -0.94355  -0.87486  -0.86362
 Alpha  occ. eigenvalues --   -0.83473  -0.81461  -0.80210  -0.77816  -0.76565
 Alpha  occ. eigenvalues --   -0.75759  -0.74653  -0.69942  -0.69157  -0.65691
 Alpha  occ. eigenvalues --   -0.64354  -0.64171  -0.62435  -0.61535  -0.59503
 Alpha  occ. eigenvalues --   -0.58862  -0.57821  -0.57149  -0.55120  -0.52258
 Alpha  occ. eigenvalues --   -0.51405  -0.49632  -0.49517  -0.48664  -0.48153
 Alpha  occ. eigenvalues --   -0.47979  -0.46968  -0.46840  -0.46655  -0.46601
 Alpha  occ. eigenvalues --   -0.45254  -0.44606  -0.43806  -0.43654  -0.43310
 Alpha  occ. eigenvalues --   -0.42658  -0.42098  -0.41834  -0.40993  -0.39822
 Alpha  occ. eigenvalues --   -0.37993  -0.37184  -0.37160  -0.35832  -0.34804
 Alpha  occ. eigenvalues --   -0.33026  -0.32864  -0.31034  -0.30762  -0.30497
 Alpha  occ. eigenvalues --   -0.28757  -0.28488  -0.27262  -0.26811  -0.25927
 Alpha  occ. eigenvalues --   -0.25847  -0.23488  -0.22703  -0.21603
 Alpha virt. eigenvalues --   -0.05416  -0.03972  -0.02592  -0.01503   0.01119
 Alpha virt. eigenvalues --    0.02564   0.04857   0.05960   0.07855   0.08699
 Alpha virt. eigenvalues --    0.09048   0.09375   0.10818   0.11117   0.11421

 Mulliken charges:
               1
     1  C   -0.215231
     2  O   -0.511820
     3  C    0.385308
     4  C   -0.168134
     5  C   -0.139059
     6  C   -0.193524
     7  C    0.128619
     8  C    0.260279
     9  C   -0.326205
    10  C    0.324491
    11  C    0.611239
    12  O   -0.545845
    13  N   -0.750900
    14  C    0.203907
    15  C    0.037760
    16  N   -0.282550
    17  N   -0.406119
    18  C    0.376823
    19  C   -0.181384
    20  C    0.031866
    21  N   -0.409387
    22  C    0.033824
    23  C   -0.168474
    24  C    0.092736
    25  N   -0.449157
    26  N   -0.336476
    27  C   -0.259461
    28  H    0.155523
    29  H    0.155514
    30  H    0.168518
    31  H    0.138243
    32  H    0.130394
    33  H    0.116345
    34  H    0.140198
    35  H    0.346355
    36  H    0.151921
    37  H    0.150416
    38  H    0.146474
    39  H    0.146819
    40  H    0.177570
    41  H    0.211597
    42  H    0.360537
    43  H    0.160451
 Sum of Mulliken charges =  -0.00000

 Dipole moment (field-independent basis, Debye):
    X=             -2.4594    Y=             -0.9160    Z=              0.5580  Tot=              2.6831
 Quadrupole moment (field-independent basis, Debye-Ang):
   XX=           -187.3090   YY=           -147.7077   ZZ=           -148.3465
   XY=             -8.5474   XZ=              4.5371   YZ=            -10.9540

 Normal termination of Gaussian 16 at Sat Nov  5 11:57:13 2022.
