 Gaussian 16, Revision B.01,
 Gaussian 16:  ES64L-G16RevB.01 20-Dec-2017

 -----------------------------
 #p b3lyp/6-31g(d) opt SCF=XQC
 -----------------------------

 ------------------------------
 Gaussian input prepared by ASE
 ------------------------------
 Symbolic Z-matrix:
 Charge =  0 Multiplicity = 1

 SCF Done:  E(RB3LYP) =  -1212.57871182     A.U. after   15 cycles
 SCF Done:  E(RB3LYP) =  -1212.58363676     A.U. after   12 cycles
 SCF Done:  E(RB3LYP) =  -1212.58384431     A.U. after   11 cycles
 SCF Done:  E(RB3LYP) =  -1212.58386683     A.U. after    9 cycles
 SCF Done:  E(RB3LYP) =  -1212.58386858     A.U. after    8 cycles
 SCF Done:  E(RB3LYP) =  -1212.58386904     A.U. after    8 cycles
 SCF Done:  E(RB3LYP) =  -1212.58386932     A.U. after    8 cycles
 SCF Done:  E(RB3LYP) =  -1212.58386961     A.U. after    8 cycles
 SCF Done:  E(RB3LYP) =  -1212.58387011     A.U. after    9 cycles
 SCF Done:  E(RB3LYP) =  -1212.58387062     A.U. after    9 cycles
 SCF Done:  E(RB3LYP) =  -1212.58387095     A.U. after    9 cycles
 SCF Done:  E(RB3LYP) =  -1212.58387120     A.U. after    8 cycles
 SCF Done:  E(RB3LYP) =  -1212.58387130     A.U. after    7 cycles
 Optimization completed.
    -- Stationary point found.

                         Standard orientation:
 ---------------------------------------------------------------------
 Center     Atomic      Atomic             Coordinates (Angstroms)
 Number     Number       Type             X           Y           Z
 ---------------------------------------------------------------------
      1          6           0       -7.969944   -2.104352   -0.001639
      2          8           0       -8.114089   -0.692381   -0.001024
      3          6           0       -6.983632    0.072623   -0.000215
      4          6           0       -7.192829    1.461090    0.000758
      5          6           0       -6.099928    2.318195    0.001606
      6          6           0       -4.796619    1.815142    0.001501
      7          6           0       -4.582154    0.432156    0.000514
      8          6           0       -3.218941   -0.126347    0.000361
      9          6           0       -1.977457    0.558412    0.000413
     10          6           0       -1.010965   -0.437810    0.000193
     11          6           0        0.463948   -0.499947    0.000128
     12          8           0        1.050245   -1.582627    0.000763
     13          7           0        1.113149    0.706846   -0.000375
     14          6           0        2.501757    0.866962   -0.000548
     15          6           0        3.193007    2.106793   -0.001322
     16          7           0        4.505627    1.932611   -0.001248
     17          7           0        4.683534    0.587005   -0.000396
     18          6           0        5.990157    0.050828   -0.000077
     19          6           0        6.211536   -1.330240    0.001020
     20          6           0        7.529171   -1.784730    0.001266
     21          7           0        8.604752   -0.989257    0.000530
     22          6           0        8.367144    0.329743   -0.000507
     23          6           0        7.098989    0.903548   -0.000860
     24          6           0        3.491991   -0.094728    0.000047
     25          7           0       -1.695329   -1.612066    0.000041
     26          7           0       -3.020474   -1.457882    0.000084
     27          6           0       -5.685680   -0.439856   -0.000353
     28          1           0       -7.438870   -2.456366    0.892423
     29          1           0       -7.438738   -2.455580   -0.895936
     30          1           0       -8.984305   -2.507663   -0.001901
     31          1           0       -8.211594    1.835308    0.000833
     32          1           0       -6.262094    3.392725    0.002377
     33          1           0       -3.956543    2.502813    0.002234
     34          1           0       -1.820559    1.627398    0.000698
     35          1           0        0.556004    1.549798   -0.001369
     36          1           0        2.780330    3.108028   -0.001935
     37          1           0        5.396030   -2.044072    0.001689
     38          1           0        7.724427   -2.855756    0.002114
     39          1           0        9.245470    0.972841   -0.001101
     40          1           0        6.961736    1.977050   -0.001712
     41          1           0        3.412629   -1.166404    0.000667
     42          1           0       -1.270783   -2.529844   -0.000025
     43          1           0       -5.498500   -1.505898   -0.001125
 ---------------------------------------------------------------------

 The electronic state is 1-A.
 Alpha  occ. eigenvalues --  -19.17714 -19.14144 -14.43671 -14.42596 -14.40329
 Alpha  occ. eigenvalues --  -14.36848 -14.36692 -14.32956 -10.32070 -10.26081
 Alpha  occ. eigenvalues --  -10.24747 -10.24741 -10.24690 -10.23965 -10.23528
 Alpha  occ. eigenvalues --  -10.22946 -10.22852 -10.22837 -10.22641 -10.20808
 Alpha  occ. eigenvalues --  -10.20764 -10.20504 -10.20128 -10.19270 -10.18750
 Alpha  occ. eigenvalues --  -10.18546 -10.18490  -1.07386  -1.07002  -1.06297
 Alpha  occ. eigenvalues --   -1.05383  -0.96228  -0.94355  -0.87486  -0.86362
 Alpha  occ. eigenvalues --   -0.83473  -0.81461  -0.80210  -0.77816  -0.76565
 Alpha  occ. eigenvalues --   -0.75759  -0.74653  -0.69942  -0.69157  -0.65691
 Alpha  occ. eigenvalues --   -0.64354  -0.64171  -0.62435  -0.61535  -0.59503
 Alpha  occ. eigenvalues --   -0.58862  -0.57821  -0.57149  -0.55120  -0.52258
 Alpha  occ. eigenvalues --   -0.51405  -0.49632  -0.49517  -0.48664  -0.48153
 Alpha  occ. eigenvalues --   -0.47979  -0.46968  -0.46840  -0.46655  -0.46601
 Alpha  occ. eigenvalues --   -0.45254  -0.44606  -0.43806  -0.43654  -0.43310
 Alpha  occ. eigenvalues --   -0.42658  -0.42098  -0.41834  -0.40993  -0.39822
 Alpha  occ. eigenvalues --   -0.37993  -0.37184  -0.37160  -0.35832  -0.34804
 Alpha  occ. eigenvalues --   -0.33026  -0.32864  -0.31034  -0.30762  -0.30497
 Alpha  occ. eigenvalues --   -0.28757  -0.28488  -0.27262  -0.26811  -0.25927
 Alpha  occ. eigenvalues --   -0.25847  -0.23488  -0.22703  -0.21603
 Alpha virt. eigenvalues --   -0.05416  -0.03972  -0.02592  -0.01503   0.01119
 Alpha virt. eigenvalues --    0.02564   0.04857   0.05960   0.07855   0.08699
 Alpha virt. eigenvalues --    0.09048   0.09375   0.10818   0.11117   0.11421

 Mulliken charges:
               1
     1  C   -0.215233
     2  O   -0.511819
     3  C    0.385308
     4  C   -0.168134
     5  C   -0.139063
     6  C   -0.193515
     7  C    0.128609
     8  C    0.260279
     9  C   -0.326199
    10  C    0.324481
    11  C    0.611246
    12  O   -0.545843
    13  N   -0.750911
    14  C    0.203914
    15  C    0.037753
    16  N   -0.282550
    17  N   -0.406112
    18  C    0.376835
    19  C   -0.181393
    20  C    0.031871
    21  N   -0.409391
    22  C    0.033823
    23  C   -0.168474
    24  C    0.092729
    25  N   -0.449151
    26  N   -0.336479
    27  C   -0.259459
    28  H    0.155524
    29  H    0.155515
    30  H    0.168518
    31  H    0.138243
    32  H    0.130394
    33  H    0.116345
    34  H    0.140197
    35  H    0.346355
    36  H    0.151922
    37  H    0.150417
    38  H    0.146475
    39  H    0.146819
    40  H    0.177569
    41  H    0.211597
    42  H    0.360537
    43  H    0.160451
 Sum of Mulliken charges =  -0.00000

 Dipole moment (field-independent basis, Debye):
    X=             -2.4710    Y=              1.0457    Z=             -0.0024  Tot=              2.6831
 Quadrupole moment (field-independent basis, Debye-Ang):
   XX=           -186.1456   YY=           -137.0229   ZZ=           -158.7616
   XY=              8.9349   XZ=              0.0009   YZ=              0.0017

 Normal termination of Gaussian 16 at Fri Nov  4 19:23:02 2022.
