 Gaussian 16, Revision B.01,
 Gaussian 16:  ES64L-G16RevB.01 20-Dec-2017

 -------------------------------------------------------------------
 #p b3lyp/6-31g(d) 6D 10F nosymm GFInput td=(50-50,nstate=2) SCF=XQC
 -------------------------------------------------------------------

 ------------------------------
 Gaussian input prepared by ASE
 ------------------------------
 Symbolic Z-matrix:
 Charge =  0 Multiplicity = 1

                          Input orientation:
 ---------------------------------------------------------------------
 Center     Atomic      Atomic             Coordinates (Angstroms)
 Number     Number       Type             X           Y           Z
 ---------------------------------------------------------------------
      1          6           0        5.385266    2.369799    1.136237
      2          7           0        5.117732    1.896990   -0.221251
      3          6           0        4.316508    2.512307   -1.144926
      4          7           0        4.259944    1.832540   -2.263642
      5          7           0        5.060940    0.721672   -2.090409
      6          6           0        5.558761    0.773669   -0.873006
      7          6           0        6.405521   -0.325018   -0.294830
      8          9           0        7.039822    0.138277    0.866416
      9          6           0        5.608133   -1.599918    0.054218
     10          6           0        4.443451   -1.306355    0.970720
     11          6           0        4.605229   -1.296425    2.360257
     12          6           0        3.519889   -0.973222    3.176282
     13          6           0        2.277318   -0.646062    2.639483
     14          6           0        2.105238   -0.642763    1.241651
     15          7           0        0.873228   -0.305376    0.640622
     16          6           0        0.706012   -0.318703   -0.820766
     17          6           0       -0.729743    0.093231   -1.005776
     18          6           0       -1.305064    0.329363    0.236518
     19          6           0       -2.630583    0.727235    0.380797
     20          6           0       -3.407721    0.891655   -0.770681
     21          6           0       -4.847667    1.370285   -0.676766
     22          7           0       -5.527977    0.828382    0.493513
     23          6           0       -6.860770    1.397439    0.804091
     24          6           0       -7.790776    0.861181   -0.322368
     25          6           0       -7.176990   -0.545207   -0.597815
     26          6           0       -5.990216   -0.580826    0.408695
     27          6           0       -6.553647   -0.762262    1.833911
     28          6           0       -7.178279    0.643582    2.113216
     29          6           0       -2.830156    0.642499   -2.026238
     30          6           0       -1.495774    0.247156   -2.160710
     31          6           0       -0.892847   -0.029370   -3.510684
     32          9           0       -0.470889   -1.315063   -3.604836
     33          9           0        0.190957    0.748064   -3.734845
     34          9           0       -1.761655    0.183286   -4.518863
     35          6           0       -0.300020    0.082156    1.301357
     36          8           0       -0.468037    0.195820    2.506030
     37          6           0        3.196210   -0.983137    0.423920
     38          6           0        5.373756   -2.452348   -1.222678
     39          8           0        6.534261   -3.263553   -0.928411
     40          6           0        6.587149   -2.746638    0.417469
     41          1           0        4.811545    3.285399    1.291767
     42          1           0        5.075270    1.620796    1.866494
     43          1           0        6.448036    2.580485    1.264712
     44          1           0        3.814052    3.449522   -0.948230
     45          1           0        7.190572   -0.589780   -1.011583
     46          1           0        5.569360   -1.535609    2.799692
     47          1           0        3.639393   -0.974077    4.256579
     48          1           0        1.444464   -0.394324    3.279474
     49          1           0        1.400459    0.378379   -1.306669
     50          1           0        0.900414   -1.317728   -1.229884
     51          1           0       -3.060231    0.894307    1.362769
     52          1           0       -4.848463    2.464169   -0.568372
     53          1           0       -5.354798    1.159785   -1.634899
     54          1           0       -6.837081    2.486621    0.898690
     55          1           0       -8.838032    0.818207   -0.006444
     56          1           0       -7.747167    1.501090   -1.210472
     57          1           0       -7.883459   -1.362668   -0.422578
     58          1           0       -6.829117   -0.638946   -1.632148
     59          1           0       -5.186061   -1.271594    0.144905
     60          1           0       -7.284462   -1.575471    1.887440
     61          1           0       -5.748513   -0.983373    2.540212
     62          1           0       -8.253657    0.603306    2.314156
     63          1           0       -6.692343    1.129066    2.964226
     64          1           0       -3.433804    0.756595   -2.921212
     65          1           0        3.092768   -0.977803   -0.654714
     66          1           0        5.445216   -1.943701   -2.188542
     67          1           0        4.445989   -3.038199   -1.177228
     68          1           0        6.170573   -3.454507    1.146734
     69          1           0        7.602563   -2.464292    0.717167
 ---------------------------------------------------------------------

 SCF Done:  E(RB3LYP) =  -1946.07348791     A.U. after   16 cycles

 Excitation energies and oscillator strengths:

 Excited state symmetry could not be determined.
 Excited State   1:      Triplet-?Sym    3.2487 eV  381.64 nm  f=0.0000  <S**2>=2.000
     142 ->148         0.18451
     145 ->146         0.59537
     145 ->149        -0.22369
 This state for optimization and/or second-order correction.
 Total Energy, E(TD-HF/TD-DFT) =  -1945.95409982
 Copying the excited state density for this state as the 1-particle RhoCI density.

 Excited state symmetry could not be determined.
 Excited State   2:      Triplet-?Sym    3.5641 eV  347.87 nm  f=0.0000  <S**2>=2.000
     137 ->146        -0.44557
     137 ->147        -0.13386
     138 ->147         0.25183
     139 ->147         0.32281
     142 ->148         0.12077
     144 ->147         0.12168
     145 ->149        -0.17503

 Excited state symmetry could not be determined.
 Excited State   3:      Singlet-?Sym    3.9782 eV  311.66 nm  f=0.0068  <S**2>=0.000
     144 ->146         0.69846

 Excited state symmetry could not be determined.
 Excited State   4:      Singlet-?Sym    4.1244 eV  300.61 nm  f=0.3129  <S**2>=0.000
     145 ->146         0.70013

 Alpha  occ. eigenvalues --  -24.73341 -24.72658 -24.72610 -24.70129 -19.14579
 Alpha  occ. eigenvalues --  -19.12923 -14.41562 -14.38983 -14.34543 -14.34522
 Alpha  occ. eigenvalues --  -14.32798 -10.43911 -10.30040 -10.29267 -10.25804
 Alpha  occ. eigenvalues --  -10.25199 -10.24879 -10.24550 -10.24526 -10.24095
 Alpha  occ. eigenvalues --  -10.23763 -10.22811 -10.22659 -10.22531 -10.22117
 Alpha  occ. eigenvalues --  -10.21810 -10.21690 -10.21540 -10.21375 -10.21107
 Alpha  occ. eigenvalues --  -10.20907 -10.20819 -10.19850 -10.19798 -10.19470
 Alpha  occ. eigenvalues --  -10.18964 -10.18526 -10.18494 -10.18304 -10.18253
 Alpha  occ. eigenvalues --   -1.30602  -1.22148  -1.21513  -1.20612  -1.06596
 Alpha  occ. eigenvalues --   -1.04757  -1.04552  -0.97129  -0.95151  -0.93089
 Alpha  occ. eigenvalues --   -0.89182  -0.86630  -0.83681  -0.82061  -0.80544
 Alpha  occ. eigenvalues --   -0.79246  -0.78117  -0.75043  -0.74600  -0.74476
 Alpha  occ. eigenvalues --   -0.73997  -0.73507  -0.72816  -0.70153  -0.69988
 Alpha  occ. eigenvalues --   -0.69035  -0.68328  -0.65696  -0.63577  -0.62469
 Alpha  occ. eigenvalues --   -0.62230  -0.60731  -0.60370  -0.59349  -0.58869
 Alpha  occ. eigenvalues --   -0.58342  -0.58038  -0.56373  -0.56026  -0.55011
 Alpha  occ. eigenvalues --   -0.53852  -0.53222  -0.52650  -0.51925  -0.51547
 Alpha  occ. eigenvalues --   -0.51205  -0.50222  -0.49908  -0.49606  -0.49356
 Alpha  occ. eigenvalues --   -0.48822  -0.48352  -0.48023  -0.47195  -0.46810
 Alpha  occ. eigenvalues --   -0.46202  -0.46028  -0.45954  -0.45544  -0.44977
 Alpha  occ. eigenvalues --   -0.44241  -0.43735  -0.43603  -0.43166  -0.42757
 Alpha  occ. eigenvalues --   -0.42519  -0.42411  -0.42147  -0.41592  -0.41114
 Alpha  occ. eigenvalues --   -0.40801  -0.40741  -0.40562  -0.40212  -0.40115
 Alpha  occ. eigenvalues --   -0.39629  -0.38848  -0.38249  -0.37947  -0.37666
 Alpha  occ. eigenvalues --   -0.37130  -0.36942  -0.36649  -0.36284  -0.35877
 Alpha  occ. eigenvalues --   -0.35217  -0.34893  -0.34744  -0.33115  -0.32786
 Alpha  occ. eigenvalues --   -0.32523  -0.32027  -0.31217  -0.30270  -0.29943
 Alpha  occ. eigenvalues --   -0.29357  -0.27644  -0.26381  -0.26257  -0.26109
 Alpha  occ. eigenvalues --   -0.25985  -0.25421  -0.25111  -0.22660  -0.22437
 Alpha virt. eigenvalues --   -0.05588  -0.03507  -0.01413  -0.00216   0.00891
 Alpha virt. eigenvalues --    0.03343   0.04751   0.06625   0.07182   0.07435
 Alpha virt. eigenvalues --    0.08844   0.09123   0.09835   0.10765   0.11062

 Mulliken charges:
               1
     1  C   -0.326665
     2  N   -0.429196
     3  C    0.201122
     4  N   -0.298850
     5  N   -0.370852
     6  C    0.459408
     7  C    0.161263
     8  F   -0.324908
     9  C   -0.098779
    10  C    0.115405
    11  C   -0.181386
    12  C   -0.151787
    13  C   -0.166787
    14  C    0.348045
    15  N   -0.620994
    16  C   -0.194096
    17  C    0.060555
    18  C    0.043924
    19  C   -0.215129
    20  C    0.141114
    21  C   -0.195662
    22  N   -0.391665
    23  C    0.009056
    24  C   -0.283789
    25  C   -0.285896
    26  C    0.003756
    27  C   -0.265155
    28  C   -0.265277
    29  C   -0.236183
    30  C   -0.066656
    31  C    0.814706
    32  F   -0.271336
    33  F   -0.263822
    34  F   -0.267996
    35  C    0.586956
    36  O   -0.514728
    37  C   -0.258166
    38  C   -0.036954
    39  O   -0.495674
    40  C   -0.023038
    41  H    0.169431
    42  H    0.204848
    43  H    0.191013
    44  H    0.171788
    45  H    0.173556
    46  H    0.133331
    47  H    0.137118
    48  H    0.193383
    49  H    0.208879
    50  H    0.190896
    51  H    0.175622
    52  H    0.160962
    53  H    0.128911
    54  H    0.124350
    55  H    0.140434
    56  H    0.139061
    57  H    0.141291
    58  H    0.139814
    59  H    0.132211
    60  H    0.133719
    61  H    0.150353
    62  H    0.133444
    63  H    0.147585
    64  H    0.151192
    65  H    0.165999
    66  H    0.183302
    67  H    0.139749
    68  H    0.142200
    69  H    0.151671
 Sum of Mulliken charges =  -0.00000

 Dipole moment (field-independent basis, Debye):
    X=             -2.9100    Y=              2.4829    Z=              3.1524  Tot=              4.9568
 Quadrupole moment (field-independent basis, Debye-Ang):
   XX=           -206.4630   YY=           -223.8866   ZZ=           -247.7331
   XY=             10.3643   XZ=             27.1490   YZ=              1.1449

 Normal termination of Gaussian 16 at Sat Nov  5 12:18:29 2022.
