 Gaussian 16, Revision B.01,
 Gaussian 16:  ES64L-G16RevB.01 20-Dec-2017

 -----------------------------
 #p b3lyp/6-31g(d) opt SCF=XQC
 -----------------------------

 ------------------------------
 Gaussian input prepared by ASE
 ------------------------------
 Symbolic Z-matrix:
 Charge =  0 Multiplicity = 1

 SCF Done:  E(RB3LYP) =  -1946.05853907     A.U. after   15 cycles
 SCF Done:  E(RB3LYP) =  -1946.06892250     A.U. after   15 cycles
 SCF Done:  E(RB3LYP) =  -1946.07150080     A.U. after   13 cycles
 SCF Done:  E(RB3LYP) =  -1946.07283861     A.U. after   12 cycles
 SCF Done:  E(RB3LYP) =  -1946.07321193     A.U. after   12 cycles
 SCF Done:  E(RB3LYP) =  -1946.07336375     A.U. after   11 cycles
 SCF Done:  E(RB3LYP) =  -1946.07343177     A.U. after   11 cycles
 SCF Done:  E(RB3LYP) =  -1946.07345102     A.U. after   10 cycles
 SCF Done:  E(RB3LYP) =  -1946.07346965     A.U. after   10 cycles
 SCF Done:  E(RB3LYP) =  -1946.07347587     A.U. after    9 cycles
 SCF Done:  E(RB3LYP) =  -1946.07347779     A.U. after    8 cycles
 SCF Done:  E(RB3LYP) =  -1946.07348044     A.U. after    9 cycles
 SCF Done:  E(RB3LYP) =  -1946.07348346     A.U. after    9 cycles
 SCF Done:  E(RB3LYP) =  -1946.07348515     A.U. after    9 cycles
 SCF Done:  E(RB3LYP) =  -1946.07348603     A.U. after    9 cycles
 SCF Done:  E(RB3LYP) =  -1946.07348640     A.U. after    9 cycles
 SCF Done:  E(RB3LYP) =  -1946.07348658     A.U. after    8 cycles
 SCF Done:  E(RB3LYP) =  -1946.07348669     A.U. after    7 cycles
 SCF Done:  E(RB3LYP) =  -1946.07348670     A.U. after    7 cycles
 SCF Done:  E(RB3LYP) =  -1946.07348672     A.U. after    6 cycles
 Optimization completed.
    -- Stationary point found.

                         Standard orientation:
 ---------------------------------------------------------------------
 Center     Atomic      Atomic             Coordinates (Angstroms)
 Number     Number       Type             X           Y           Z
 ---------------------------------------------------------------------
      1          6           0        4.706694   -1.004525    2.907087
      2          7           0        4.463705    0.282055    2.256267
      3          6           0        3.607109    1.256311    2.693094
      4          7           0        3.593177    2.285451    1.882240
      5          7           0        4.481149    1.997602    0.865244
      6          6           0        4.985534    0.804786    1.100591
      7          6           0        5.922239    0.117242    0.147558
      8          9           0        6.529605   -0.968519    0.793856
      9          6           0        5.231637   -0.395571   -1.134286
     10          6           0        4.056684   -1.293335   -0.824212
     11          6           0        4.231151   -2.668539   -0.635905
     12          6           0        3.131936   -3.461505   -0.302366
     13          6           0        1.862058   -2.913985   -0.138650
     14          6           0        1.676193   -1.529181   -0.315649
     15          7           0        0.415389   -0.916479   -0.148667
     16          6           0        0.235047    0.529550   -0.349339
     17          6           0       -1.230558    0.734098   -0.074615
     18          6           0       -1.810205   -0.482468    0.263059
     19          6           0       -3.161498   -0.604360    0.571714
     20          6           0       -3.960749    0.543187    0.536878
     21          6           0       -5.432995    0.478629    0.910614
     22          7           0       -6.056543   -0.760513    0.461452
     23          6           0       -7.426940   -1.027396    0.958853
     24          6           0       -8.322956    0.009461    0.221645
     25          6           0       -7.602764    0.128466   -1.155923
     26          6           0       -6.406815   -0.851974   -0.979266
     27          6           0       -6.939773   -2.299308   -1.032145
     28          6           0       -7.670695   -2.422417    0.344508
     29          6           0       -3.377970    1.771423    0.184902
     30          6           0       -2.017943    1.884050   -0.119393
     31          6           0       -1.408670    3.203276   -0.507780
     32          9           0       -0.887409    3.152849   -1.759045
     33          9           0       -0.391998    3.538813    0.318703
     34          9           0       -2.301670    4.212485   -0.484834
     35          6           0       -0.778102   -1.549371    0.223207
     36          8           0       -0.942440   -2.735172    0.466632
     37          6           0        2.782363   -0.736442   -0.665954
     38          6           0        5.052508    0.766735   -2.148678
     39          8           0        6.276387    0.401147   -2.826827
     40          6           0        6.301809   -0.872855   -2.150318
     41          1           0        4.064014   -1.061757    3.787630
     42          1           0        4.464218   -1.824132    2.228982
     43          1           0        5.750732   -1.086531    3.213083
     44          1           0        3.034173    1.162150    3.605455
     45          1           0        6.718501    0.812740   -0.139477
     46          1           0        5.215541   -3.114392   -0.745682
     47          1           0        3.262002   -4.531795   -0.164938
     48          1           0        1.018401   -3.535742    0.122631
     49          1           0        0.867315    1.107882    0.336264
     50          1           0        0.503653    0.821313   -1.372054
     51          1           0       -3.593097   -1.567824    0.821189
     52          1           0       -5.519132    0.500399    2.006259
     53          1           0       -5.931526    1.395113    0.548627
     54          1           0       -7.488438   -0.992012    2.050088
     55          1           0       -9.360308   -0.329587    0.135937
     56          1           0       -8.338989    0.967703    0.752332
     57          1           0       -8.240631   -0.155914   -1.998718
     58          1           0       -7.259002    1.151002   -1.345384
     59          1           0       -5.553288   -0.656197   -1.632392
     60          1           0       -7.603470   -2.462826   -1.887150
     61          1           0       -6.112617   -3.011050   -1.104438
     62          1           0       -8.737450   -2.647537    0.245563
     63          1           0       -7.216098   -3.200434    0.964249
     64          1           0       -3.997725    2.661728    0.144298
     65          1           0        2.667971    0.333038   -0.797508
     66          1           0        5.073826    1.787190   -1.755055
     67          1           0        4.174439    0.634311   -2.794818
     68          1           0        5.949832   -1.688679   -2.796061
     69          1           0        7.294703   -1.117292   -1.756597
 ---------------------------------------------------------------------

 The electronic state is 1-A.
 Alpha  occ. eigenvalues --  -24.73341 -24.72658 -24.72610 -24.70129 -19.14579
 Alpha  occ. eigenvalues --  -19.12923 -14.41562 -14.38983 -14.34543 -14.34522
 Alpha  occ. eigenvalues --  -14.32798 -10.43911 -10.30040 -10.29267 -10.25804
 Alpha  occ. eigenvalues --  -10.25199 -10.24879 -10.24550 -10.24526 -10.24095
 Alpha  occ. eigenvalues --  -10.23763 -10.22811 -10.22659 -10.22531 -10.22117
 Alpha  occ. eigenvalues --  -10.21810 -10.21690 -10.21540 -10.21375 -10.21107
 Alpha  occ. eigenvalues --  -10.20907 -10.20819 -10.19850 -10.19798 -10.19470
 Alpha  occ. eigenvalues --  -10.18964 -10.18526 -10.18495 -10.18304 -10.18253
 Alpha  occ. eigenvalues --   -1.30602  -1.22148  -1.21513  -1.20612  -1.06596
 Alpha  occ. eigenvalues --   -1.04757  -1.04552  -0.97129  -0.95151  -0.93089
 Alpha  occ. eigenvalues --   -0.89182  -0.86630  -0.83681  -0.82061  -0.80544
 Alpha  occ. eigenvalues --   -0.79246  -0.78117  -0.75043  -0.74600  -0.74476
 Alpha  occ. eigenvalues --   -0.73997  -0.73507  -0.72816  -0.70153  -0.69988
 Alpha  occ. eigenvalues --   -0.69035  -0.68328  -0.65696  -0.63577  -0.62469
 Alpha  occ. eigenvalues --   -0.62230  -0.60731  -0.60370  -0.59349  -0.58869
 Alpha  occ. eigenvalues --   -0.58342  -0.58038  -0.56373  -0.56026  -0.55011
 Alpha  occ. eigenvalues --   -0.53852  -0.53222  -0.52650  -0.51925  -0.51547
 Alpha  occ. eigenvalues --   -0.51205  -0.50222  -0.49908  -0.49606  -0.49356
 Alpha  occ. eigenvalues --   -0.48822  -0.48352  -0.48023  -0.47195  -0.46810
 Alpha  occ. eigenvalues --   -0.46202  -0.46028  -0.45954  -0.45544  -0.44977
 Alpha  occ. eigenvalues --   -0.44241  -0.43735  -0.43603  -0.43166  -0.42757
 Alpha  occ. eigenvalues --   -0.42519  -0.42411  -0.42147  -0.41592  -0.41114
 Alpha  occ. eigenvalues --   -0.40801  -0.40741  -0.40562  -0.40212  -0.40115
 Alpha  occ. eigenvalues --   -0.39629  -0.38848  -0.38249  -0.37947  -0.37666
 Alpha  occ. eigenvalues --   -0.37130  -0.36942  -0.36649  -0.36284  -0.35877
 Alpha  occ. eigenvalues --   -0.35217  -0.34893  -0.34744  -0.33115  -0.32786
 Alpha  occ. eigenvalues --   -0.32523  -0.32027  -0.31217  -0.30270  -0.29943
 Alpha  occ. eigenvalues --   -0.29357  -0.27644  -0.26381  -0.26257  -0.26109
 Alpha  occ. eigenvalues --   -0.25985  -0.25421  -0.25111  -0.22660  -0.22437
 Alpha virt. eigenvalues --   -0.05588  -0.03507  -0.01413  -0.00216   0.00891
 Alpha virt. eigenvalues --    0.03343   0.04751   0.06625   0.07182   0.07435
 Alpha virt. eigenvalues --    0.08844   0.09123   0.09835   0.10765   0.11062

 Mulliken charges:
               1
     1  C   -0.326652
     2  N   -0.429195
     3  C    0.201114
     4  N   -0.298841
     5  N   -0.370854
     6  C    0.459406
     7  C    0.161233
     8  F   -0.324910
     9  C   -0.098694
    10  C    0.115330
    11  C   -0.181348
    12  C   -0.151792
    13  C   -0.166797
    14  C    0.348048
    15  N   -0.621003
    16  C   -0.194106
    17  C    0.060523
    18  C    0.043918
    19  C   -0.215131
    20  C    0.141113
    21  C   -0.195662
    22  N   -0.391669
    23  C    0.009072
    24  C   -0.283808
    25  C   -0.285892
    26  C    0.003753
    27  C   -0.265163
    28  C   -0.265270
    29  C   -0.236178
    30  C   -0.066646
    31  C    0.814740
    32  F   -0.271347
    33  F   -0.263832
    34  F   -0.267996
    35  C    0.586973
    36  O   -0.514732
    37  C   -0.258149
    38  C   -0.036964
    39  O   -0.495675
    40  C   -0.023044
    41  H    0.169429
    42  H    0.204848
    43  H    0.191010
    44  H    0.171786
    45  H    0.173557
    46  H    0.133327
    47  H    0.137118
    48  H    0.193386
    49  H    0.208889
    50  H    0.190900
    51  H    0.175624
    52  H    0.160961
    53  H    0.128911
    54  H    0.124349
    55  H    0.140436
    56  H    0.139064
    57  H    0.141292
    58  H    0.139815
    59  H    0.132211
    60  H    0.133721
    61  H    0.150356
    62  H    0.133443
    63  H    0.147583
    64  H    0.151192
    65  H    0.166001
    66  H    0.183301
    67  H    0.139747
    68  H    0.142198
    69  H    0.151669
 Sum of Mulliken charges =  -0.00000

 Dipole moment (field-independent basis, Debye):
    X=             -3.0652    Y=             -2.8924    Z=              2.6094  Tot=              4.9569
 Quadrupole moment (field-independent basis, Debye-Ang):
   XX=           -204.6885   YY=           -247.1395   ZZ=           -221.7158
   XY=            -22.7842   XZ=             13.4339   YZ=             -0.6901

 Normal termination of Gaussian 16 at Fri Nov  4 20:03:54 2022.
