 Gaussian 16, Revision B.01,
 Gaussian 16:  ES64L-G16RevB.01 20-Dec-2017

 -----------------------------
 #p b3lyp/6-31g(d) opt SCF=XQC
 -----------------------------

 ------------------------------
 Gaussian input prepared by ASE
 ------------------------------
 Symbolic Z-matrix:
 Charge =  0 Multiplicity = 1

 SCF Done:  E(RB3LYP) =  -954.192769253     A.U. after   14 cycles
 SCF Done:  E(RB3LYP) =  -954.197083922     A.U. after   12 cycles
 SCF Done:  E(RB3LYP) =  -954.197458368     A.U. after   11 cycles
 SCF Done:  E(RB3LYP) =  -954.197538546     A.U. after   10 cycles
 SCF Done:  E(RB3LYP) =  -954.197546788     A.U. after    9 cycles
 SCF Done:  E(RB3LYP) =  -954.197547957     A.U. after    7 cycles
 SCF Done:  E(RB3LYP) =  -954.197548858     A.U. after    8 cycles
 SCF Done:  E(RB3LYP) =  -954.197551647     A.U. after    9 cycles
 SCF Done:  E(RB3LYP) =  -954.197555595     A.U. after   10 cycles
 SCF Done:  E(RB3LYP) =  -954.197563342     A.U. after   11 cycles
 SCF Done:  E(RB3LYP) =  -954.197646919     A.U. after    9 cycles
 SCF Done:  E(RB3LYP) =  -954.197647563     A.U. after    9 cycles
 SCF Done:  E(RB3LYP) =  -954.197649612     A.U. after    9 cycles
 SCF Done:  E(RB3LYP) =  -954.197652258     A.U. after    9 cycles
 SCF Done:  E(RB3LYP) =  -954.197653762     A.U. after    9 cycles
 SCF Done:  E(RB3LYP) =  -954.197655369     A.U. after    9 cycles
 SCF Done:  E(RB3LYP) =  -954.197655995     A.U. after    8 cycles
 SCF Done:  E(RB3LYP) =  -954.197656098     A.U. after    7 cycles
 SCF Done:  E(RB3LYP) =  -954.197656121     A.U. after    7 cycles
 SCF Done:  E(RB3LYP) =  -954.197656123     A.U. after    6 cycles
 Optimization completed.
    -- Stationary point found.

                         Standard orientation:
 ---------------------------------------------------------------------
 Center     Atomic      Atomic             Coordinates (Angstroms)
 Number     Number       Type             X           Y           Z
 ---------------------------------------------------------------------
      1          6           0       -4.576391    2.750428   -0.347117
      2          6           0       -3.975323    1.373396   -0.179933
      3          6           0       -4.795253    0.251846   -0.010872
      4          6           0       -4.258511   -1.028571    0.166310
      5          6           0       -5.163472   -2.229174    0.324603
      6          6           0       -2.868251   -1.174849    0.176509
      7          6           0       -2.015552   -0.073511    0.005742
      8          6           0       -0.540456   -0.246241    0.014342
      9          6           0        0.299104    0.705551    0.614703
     10          6           0        1.685017    0.556212    0.635084
     11          6           0        2.248261   -0.565066    0.028705
     12          8           0        3.621613   -0.842863    0.018815
     13          6           0        4.526489    0.163320   -0.017026
     14          9           0        4.611048    0.829318    1.157501
     15          9           0        4.253563    1.073580   -0.968657
     16          9           0        5.719083   -0.377400   -0.266460
     17          6           0        1.446317   -1.530075   -0.575161
     18          6           0        0.064282   -1.368938   -0.576525
     19          6           0       -2.588764    1.194651   -0.173657
     20          1           0       -3.894846    3.423561   -0.877552
     21          1           0       -4.796007    3.208948    0.626428
     22          1           0       -5.517820    2.712556   -0.905884
     23          1           0       -5.876658    0.378418   -0.017393
     24          1           0       -5.479528   -2.620032   -0.651916
     25          1           0       -6.072777   -1.976165    0.880623
     26          1           0       -4.659055   -3.044308    0.853814
     27          1           0       -2.439798   -2.159702    0.345785
     28          1           0       -0.139250    1.568934    1.106267
     29          1           0        2.305819    1.294171    1.127344
     30          1           0        1.914957   -2.388298   -1.045602
     31          1           0       -0.553738   -2.112119   -1.071323
     32          1           0       -1.942436    2.053587   -0.336821
 ---------------------------------------------------------------------

 The electronic state is 1-A.
 Alpha  occ. eigenvalues --  -24.73686 -24.73549 -24.73386 -19.21542 -10.48767
 Alpha  occ. eigenvalues --  -10.26617 -10.20521 -10.20251 -10.20123 -10.20100
 Alpha  occ. eigenvalues --  -10.20064 -10.19957 -10.19795 -10.19792 -10.18548
 Alpha  occ. eigenvalues --  -10.18539 -10.18529 -10.18523 -10.18391  -1.32510
 Alpha  occ. eigenvalues --   -1.23209  -1.22637  -1.10397  -0.87484  -0.85498
 Alpha  occ. eigenvalues --   -0.79356  -0.78111  -0.76071  -0.74695  -0.70076
 Alpha  occ. eigenvalues --   -0.68771  -0.68200  -0.64626  -0.62992  -0.60351
 Alpha  occ. eigenvalues --   -0.60151  -0.59109  -0.57184  -0.56828  -0.51245
 Alpha  occ. eigenvalues --   -0.49202  -0.48545  -0.47897  -0.47026  -0.46127
 Alpha  occ. eigenvalues --   -0.45944  -0.44762  -0.44378  -0.43475  -0.42644
 Alpha  occ. eigenvalues --   -0.42359  -0.42085  -0.41419  -0.40855  -0.40822
 Alpha  occ. eigenvalues --   -0.40216  -0.39852  -0.39086  -0.38357  -0.37513
 Alpha  occ. eigenvalues --   -0.36523  -0.34850  -0.33767  -0.33674  -0.33291
 Alpha  occ. eigenvalues --   -0.26663  -0.26261  -0.23810  -0.22235
 Alpha virt. eigenvalues --   -0.02983  -0.01372   0.00036   0.02532   0.08763
 Alpha virt. eigenvalues --    0.09979   0.11638   0.12423   0.12876   0.13623
 Alpha virt. eigenvalues --    0.14146   0.15518   0.15790   0.15887   0.16860

 Mulliken charges:
               1
     1  C   -0.531028
     2  C    0.183569
     3  C   -0.233150
     4  C    0.183763
     5  C   -0.531049
     6  C   -0.239581
     7  C    0.102887
     8  C    0.095532
     9  C   -0.189047
    10  C   -0.165475
    11  C    0.333190
    12  O   -0.534846
    13  C    0.974783
    14  F   -0.269304
    15  F   -0.262376
    16  F   -0.247899
    17  C   -0.168862
    18  C   -0.181366
    19  C   -0.239268
    20  H    0.157568
    21  H    0.166083
    22  H    0.158187
    23  H    0.114774
    24  H    0.166017
    25  H    0.158320
    26  H    0.157319
    27  H    0.122774
    28  H    0.142728
    29  H    0.159542
    30  H    0.151141
    31  H    0.141861
    32  H    0.123211
 Sum of Mulliken charges =  -0.00000

 Dipole moment (field-independent basis, Debye):
    X=             -2.7903    Y=              0.0160    Z=             -0.0385  Tot=              2.7906
 Quadrupole moment (field-independent basis, Debye-Ang):
   XX=           -107.0983   YY=            -99.6652   ZZ=           -109.5708
   XY=              0.2326   XZ=              0.0839   YZ=              2.4188

 Normal termination of Gaussian 16 at Fri Nov  4 19:36:11 2022.
