 Gaussian 16, Revision B.01,
 Gaussian 16:  ES64L-G16RevB.01 20-Dec-2017

 -------------------------------------------------------------------
 #p b3lyp/6-31g(d) 6D 10F nosymm GFInput td=(50-50,nstate=2) SCF=XQC
 -------------------------------------------------------------------

 ------------------------------
 Gaussian input prepared by ASE
 ------------------------------
 Symbolic Z-matrix:
 Charge =  0 Multiplicity = 1

                          Input orientation:
 ---------------------------------------------------------------------
 Center     Atomic      Atomic             Coordinates (Angstroms)
 Number     Number       Type             X           Y           Z
 ---------------------------------------------------------------------
      1          6           0       -3.470877   -2.458343   -0.838746
      2          6           0       -2.800512   -1.223634   -0.280577
      3          6           0       -3.560296   -0.186824    0.273043
      4          6           0       -2.960644    0.973463    0.776138
      5          6           0       -3.799390    2.071110    1.390253
      6          6           0       -1.568710    1.087253    0.713743
      7          6           0       -0.774941    0.066035    0.169461
      8          6           0        0.703177    0.200160    0.114712
      9          6           0        1.435223   -0.270809   -0.986876
     10          6           0        2.822257   -0.148805   -1.055633
     11          6           0        3.497273    0.446240    0.008548
     12          8           0        4.881972    0.658805    0.036584
     13          6           0        5.723403   -0.209140   -0.572640
     14          9           0        5.678515   -0.117500   -1.921642
     15          9           0        5.467174   -1.490565   -0.254898
     16          9           0        6.962332    0.092359   -0.184015
     17          6           0        2.803740    0.925924    1.116666
     18          6           0        1.418415    0.804533    1.162781
     19          6           0       -1.409970   -1.084893   -0.321555
     20          1           0       -2.794148   -3.319144   -0.832955
     21          1           0       -3.790674   -2.301509   -1.877685
     22          1           0       -4.363627   -2.725637   -0.262990
     23          1           0       -4.643896   -0.285224    0.313391
     24          1           0       -4.016677    1.861534    2.446243
     25          1           0       -4.761670    2.175876    0.877371
     26          1           0       -3.286925    3.037865    1.348921
     27          1           0       -1.094417    1.997753    1.071792
     28          1           0        0.908978   -0.715347   -1.826323
     29          1           0        3.357833   -0.498892   -1.929071
     30          1           0        3.358228    1.377510    1.932815
     31          1           0        0.886119    1.157548    2.040924
     32          1           0       -0.807264   -1.897698   -0.719332
 ---------------------------------------------------------------------

 SCF Done:  E(RB3LYP) =  -954.197655726     A.U. after   13 cycles

 Excitation energies and oscillator strengths:

 Excited state symmetry could not be determined.
 Excited State   1:      Triplet-?Sym    3.2484 eV  381.67 nm  f=0.0000  <S**2>=2.000
      66 -> 73         0.17661
      67 -> 71        -0.19509
      68 -> 72         0.23004
      69 -> 70         0.61492
 This state for optimization and/or second-order correction.
 Total Energy, E(TD-HF/TD-DFT) =  -954.078278147
 Copying the excited state density for this state as the 1-particle RhoCI density.

 Excited state symmetry could not be determined.
 Excited State   2:      Triplet-?Sym    3.8594 eV  321.25 nm  f=0.0000  <S**2>=2.000
      66 -> 70         0.33835
      67 -> 71         0.34295
      68 -> 72         0.39692
      69 -> 73         0.30507

 Excited state symmetry could not be determined.
 Excited State   3:      Singlet-?Sym    4.8295 eV  256.72 nm  f=0.0068  <S**2>=0.000
      68 -> 70         0.53351
      69 -> 71         0.26911
      69 -> 72        -0.34380

 Excited state symmetry could not be determined.
 Excited State   4:      Singlet-?Sym    4.8905 eV  253.52 nm  f=0.4925  <S**2>=0.000
      69 -> 70         0.66522
      69 -> 71         0.15254

 Alpha  occ. eigenvalues --  -24.73686 -24.73549 -24.73386 -19.21542 -10.48767
 Alpha  occ. eigenvalues --  -10.26617 -10.20521 -10.20251 -10.20123 -10.20100
 Alpha  occ. eigenvalues --  -10.20064 -10.19957 -10.19795 -10.19792 -10.18548
 Alpha  occ. eigenvalues --  -10.18539 -10.18529 -10.18523 -10.18391  -1.32510
 Alpha  occ. eigenvalues --   -1.23209  -1.22637  -1.10397  -0.87484  -0.85498
 Alpha  occ. eigenvalues --   -0.79356  -0.78111  -0.76071  -0.74695  -0.70076
 Alpha  occ. eigenvalues --   -0.68771  -0.68199  -0.64626  -0.62992  -0.60351
 Alpha  occ. eigenvalues --   -0.60151  -0.59109  -0.57184  -0.56828  -0.51245
 Alpha  occ. eigenvalues --   -0.49202  -0.48545  -0.47897  -0.47026  -0.46127
 Alpha  occ. eigenvalues --   -0.45944  -0.44762  -0.44378  -0.43475  -0.42644
 Alpha  occ. eigenvalues --   -0.42359  -0.42085  -0.41419  -0.40855  -0.40822
 Alpha  occ. eigenvalues --   -0.40216  -0.39852  -0.39086  -0.38357  -0.37513
 Alpha  occ. eigenvalues --   -0.36523  -0.34850  -0.33767  -0.33674  -0.33291
 Alpha  occ. eigenvalues --   -0.26663  -0.26261  -0.23810  -0.22235
 Alpha virt. eigenvalues --   -0.02983  -0.01372   0.00036   0.02532   0.08763
 Alpha virt. eigenvalues --    0.09979   0.11638   0.12423   0.12876   0.13623
 Alpha virt. eigenvalues --    0.14146   0.15518   0.15790   0.15887   0.16860

 Mulliken charges:
               1
     1  C   -0.531028
     2  C    0.183573
     3  C   -0.233153
     4  C    0.183767
     5  C   -0.531049
     6  C   -0.239584
     7  C    0.102886
     8  C    0.095533
     9  C   -0.189046
    10  C   -0.165455
    11  C    0.333163
    12  O   -0.534826
    13  C    0.974751
    14  F   -0.269298
    15  F   -0.262367
    16  F   -0.247891
    17  C   -0.168863
    18  C   -0.181367
    19  C   -0.239266
    20  H    0.157568
    21  H    0.166082
    22  H    0.158186
    23  H    0.114774
    24  H    0.166017
    25  H    0.158320
    26  H    0.157319
    27  H    0.122773
    28  H    0.142729
    29  H    0.159539
    30  H    0.151141
    31  H    0.141862
    32  H    0.123211
 Sum of Mulliken charges =  -0.00000

 Dipole moment (field-independent basis, Debye):
    X=             -2.7752    Y=             -0.0068    Z=              0.2924  Tot=              2.7906
 Quadrupole moment (field-independent basis, Debye-Ang):
   XX=           -113.9131   YY=           -104.9030   ZZ=           -104.3637
   XY=              0.4489   XZ=              0.6521   YZ=              5.4875

 Normal termination of Gaussian 16 at Sat Nov  5 11:47:26 2022.
