 Gaussian 16, Revision B.01,
 Gaussian 16:  ES64L-G16RevB.01 20-Dec-2017

 -------------------------------------------------------------------
 #p b3lyp/6-31g(d) 6D 10F nosymm GFInput td=(50-50,nstate=2) SCF=XQC
 -------------------------------------------------------------------

 ------------------------------
 Gaussian input prepared by ASE
 ------------------------------
 Symbolic Z-matrix:
 Charge =  0 Multiplicity = 1

                          Input orientation:
 ---------------------------------------------------------------------
 Center     Atomic      Atomic             Coordinates (Angstroms)
 Number     Number       Type             X           Y           Z
 ---------------------------------------------------------------------
      1          6           0        0.588443    0.584780   -4.241000
      2          6           0        0.670921    0.281432   -2.973714
      3          6           0        0.799292   -0.098567   -1.705637
      4          7           0        2.005173    0.260982   -1.064463
      5          6           0        2.339498   -0.324979    0.033791
      6          6           0        3.549947   -0.060458    0.808328
      7          6           0        4.516179    0.870693    0.629030
      8          6           0        4.532958    1.877107   -0.491296
      9          6           0        5.700065    0.979846    1.570447
     10          6           0        5.795539   -0.018964    2.725540
     11          7           0       -0.189195   -0.855452   -1.016470
     12          6           0       -0.777477   -2.005453   -1.708673
     13          6           0       -1.975254   -1.776251   -2.646520
     14          6           0       -0.925960   -0.111890    0.036325
     15          6           0       -1.972963    0.889693   -0.508968
     16          6           0       -2.410055    1.937329    0.527364
     17          6           0       -3.424102    2.967334   -0.000605
     18          6           0       -2.880613    3.894674   -1.094117
     19          6           0       -1.446471   -1.038672    1.167754
     20          6           0       -2.844553   -1.666113    1.025909
     21          6           0       -3.253540   -2.522431    2.238517
     22          6           0       -2.443817   -3.813158    2.412773
     23          1           0        0.212001    1.551268   -4.578051
     24          1           0        0.896276   -0.108042   -5.025727
     25          1           0        1.693716   -1.109110    0.450756
     26          1           0        3.651149   -0.729143    1.659828
     27          1           0        3.624720    1.835768   -1.090551
     28          1           0        5.392479    1.688833   -1.151313
     29          1           0        4.669976    2.891289   -0.090335
     30          1           0        5.710739    2.004084    1.975693
     31          1           0        6.615894    0.917063    0.961691
     32          1           0        4.935833    0.058942    3.400390
     33          1           0        5.847627   -1.051809    2.363545
     34          1           0        6.698360    0.172691    3.315370
     35          1           0        0.036997   -2.455743   -2.286652
     36          1           0       -1.055098   -2.746612   -0.948789
     37          1           0       -2.866839   -1.446265   -2.105159
     38          1           0       -2.226033   -2.717971   -3.151367
     39          1           0       -1.742529   -1.031031   -3.411563
     40          1           0       -0.148669    0.503723    0.505740
     41          1           0       -1.521732    1.394492   -1.370964
     42          1           0       -2.857848    0.363903   -0.886735
     43          1           0       -2.851447    1.433059    1.397825
     44          1           0       -1.521085    2.467486    0.901840
     45          1           0       -3.770980    3.579208    0.843216
     46          1           0       -4.312225    2.439308   -0.376860
     47          1           0       -1.992888    4.437097   -0.745156
     48          1           0       -2.596896    3.342228   -1.996616
     49          1           0       -3.630877    4.638316   -1.386689
     50          1           0       -0.693577   -1.821985    1.318069
     51          1           0       -1.449986   -0.448410    2.094542
     52          1           0       -3.587943   -0.868052    0.904119
     53          1           0       -2.910881   -2.282307    0.120665
     54          1           0       -3.175234   -1.915228    3.152022
     55          1           0       -4.315816   -2.782791    2.138293
     56          1           0       -2.817207   -4.399573    3.260150
     57          1           0       -2.511330   -4.444406    1.517584
     58          1           0       -1.382663   -3.611762    2.596870
 ---------------------------------------------------------------------

 SCF Done:  E(RB3LYP) =  -893.222348645     A.U. after   14 cycles

 Excitation energies and oscillator strengths:

 Excited state symmetry could not be determined.
 Excited State   1:      Triplet-?Sym    2.1878 eV  566.70 nm  f=0.0000  <S**2>=2.000
      84 -> 86        -0.39471
      85 -> 86         0.57442
 This state for optimization and/or second-order correction.
 Total Energy, E(TD-HF/TD-DFT) =  -893.141947422
 Copying the excited state density for this state as the 1-particle RhoCI density.

 Excited state symmetry could not be determined.
 Excited State   2:      Triplet-?Sym    3.2687 eV  379.30 nm  f=0.0000  <S**2>=2.000
      81 -> 86        -0.14389
      82 -> 86         0.11119
      84 -> 86         0.53175
      85 -> 86         0.36930
      85 -> 88         0.17223

 Excited state symmetry could not be determined.
 Excited State   3:      Singlet-?Sym    3.4547 eV  358.88 nm  f=0.0559  <S**2>=0.000
      84 -> 86         0.31640
      85 -> 86         0.62802

 Excited state symmetry could not be determined.
 Excited State   4:      Singlet-?Sym    3.9943 eV  310.40 nm  f=0.1226  <S**2>=0.000
      83 -> 86         0.53639
      84 -> 86         0.38732
      85 -> 86        -0.22740

 Alpha  occ. eigenvalues --  -14.32642 -14.31562 -10.23886 -10.21616 -10.21210
 Alpha  occ. eigenvalues --  -10.20716 -10.20045 -10.18830 -10.18822 -10.18642
 Alpha  occ. eigenvalues --  -10.18002 -10.17799 -10.17762 -10.17718 -10.17674
 Alpha  occ. eigenvalues --  -10.17584 -10.17527 -10.17260 -10.16913 -10.16839
 Alpha  occ. eigenvalues --  -10.16604 -10.16474  -0.94251  -0.88573  -0.81405
 Alpha  occ. eigenvalues --   -0.80353  -0.78652  -0.77173  -0.75533  -0.73880
 Alpha  occ. eigenvalues --   -0.72923  -0.70978  -0.70563  -0.67760  -0.66003
 Alpha  occ. eigenvalues --   -0.63827  -0.62986  -0.61530  -0.58793  -0.57752
 Alpha  occ. eigenvalues --   -0.56866  -0.54531  -0.52476  -0.50594  -0.48380
 Alpha  occ. eigenvalues --   -0.47533  -0.46543  -0.45465  -0.45167  -0.45103
 Alpha  occ. eigenvalues --   -0.44092  -0.43744  -0.43467  -0.43088  -0.42093
 Alpha  occ. eigenvalues --   -0.41746  -0.41149  -0.40470  -0.40262  -0.39915
 Alpha  occ. eigenvalues --   -0.39521  -0.39213  -0.37750  -0.37063  -0.36485
 Alpha  occ. eigenvalues --   -0.36333  -0.35645  -0.35378  -0.34738  -0.34700
 Alpha  occ. eigenvalues --   -0.34626  -0.34362  -0.33478  -0.32940  -0.32736
 Alpha  occ. eigenvalues --   -0.32442  -0.32103  -0.31283  -0.30762  -0.30517
 Alpha  occ. eigenvalues --   -0.27501  -0.26070  -0.24109  -0.21523  -0.19166
 Alpha virt. eigenvalues --   -0.04373   0.02604   0.04552   0.07417   0.09422
 Alpha virt. eigenvalues --    0.09648   0.09838   0.10301   0.10591   0.11112
 Alpha virt. eigenvalues --    0.12021   0.12721   0.13226   0.14113   0.14183

 Mulliken charges:
               1
     1  C   -0.549815
     2  C    0.330843
     3  C    0.205263
     4  N   -0.441905
     5  C    0.088765
     6  C   -0.211066
     7  C    0.191715
     8  C   -0.532559
     9  C   -0.315490
    10  C   -0.450879
    11  N   -0.461850
    12  C   -0.132100
    13  C   -0.456354
    14  C    0.037082
    15  C   -0.269156
    16  C   -0.261319
    17  C   -0.248578
    18  C   -0.443461
    19  C   -0.287122
    20  C   -0.265103
    21  C   -0.250494
    22  C   -0.444529
    23  H    0.160644
    24  H    0.161703
    25  H    0.130054
    26  H    0.117747
    27  H    0.211970
    28  H    0.152462
    29  H    0.143602
    30  H    0.148199
    31  H    0.148817
    32  H    0.151183
    33  H    0.152532
    34  H    0.145458
    35  H    0.146379
    36  H    0.139874
    37  H    0.149005
    38  H    0.134720
    39  H    0.159988
    40  H    0.136786
    41  H    0.145874
    42  H    0.133826
    43  H    0.131089
    44  H    0.129202
    45  H    0.129438
    46  H    0.128697
    47  H    0.142367
    48  H    0.148914
    49  H    0.140595
    50  H    0.146623
    51  H    0.135359
    52  H    0.135392
    53  H    0.137951
    54  H    0.129506
    55  H    0.131306
    56  H    0.143129
    57  H    0.140987
    58  H    0.146733
 Sum of Mulliken charges =  -0.00000

 Dipole moment (field-independent basis, Debye):
    X=             -0.2781    Y=             -0.4620    Z=              1.1521  Tot=              1.2721
 Quadrupole moment (field-independent basis, Debye-Ang):
   XX=           -132.8859   YY=           -138.1238   ZZ=           -136.6701
   XY=              1.6583   XZ=              4.5073   YZ=              1.1818

 Normal termination of Gaussian 16 at Sat Nov  5 11:55:14 2022.
