 Gaussian 16, Revision B.01,
 Gaussian 16:  ES64L-G16RevB.01 20-Dec-2017

 -----------------------------
 #p b3lyp/6-31g(d) opt SCF=XQC
 -----------------------------

 ------------------------------
 Gaussian input prepared by ASE
 ------------------------------
 Symbolic Z-matrix:
 Charge =  0 Multiplicity = 1

 SCF Done:  E(RB3LYP) =  -893.212473971     A.U. after   14 cycles
 SCF Done:  E(RB3LYP) =  -893.218806337     A.U. after   12 cycles
 SCF Done:  E(RB3LYP) =  -893.220741787     A.U. after   12 cycles
 SCF Done:  E(RB3LYP) =  -893.220539056     A.U. after   12 cycles
 SCF Done:  E(RB3LYP) =  -893.219691489     A.U. after   12 cycles
 SCF Done:  E(RB3LYP) =  -893.218966915     A.U. after   12 cycles
 SCF Done:  E(RB3LYP) =  -893.220927995     A.U. after    9 cycles
 SCF Done:  E(RB3LYP) =  -893.221843992     A.U. after   12 cycles
 SCF Done:  E(RB3LYP) =  -893.222050568     A.U. after   12 cycles
 SCF Done:  E(RB3LYP) =  -893.222020134     A.U. after   12 cycles
 SCF Done:  E(RB3LYP) =  -893.222350271     A.U. after   11 cycles
 SCF Done:  E(RB3LYP) =  -893.222356039     A.U. after   10 cycles
 SCF Done:  E(RB3LYP) =  -893.222359745     A.U. after   10 cycles
 SCF Done:  E(RB3LYP) =  -893.222350910     A.U. after   11 cycles
 SCF Done:  E(RB3LYP) =  -893.222360299     A.U. after   11 cycles
 SCF Done:  E(RB3LYP) =  -893.222353229     A.U. after   11 cycles
 SCF Done:  E(RB3LYP) =  -893.222360441     A.U. after   11 cycles
 SCF Done:  E(RB3LYP) =  -893.222360563     A.U. after    8 cycles
 SCF Done:  E(RB3LYP) =  -893.222360551     A.U. after    7 cycles
 SCF Done:  E(RB3LYP) =  -893.222360559     A.U. after    6 cycles
 Optimization completed.
    -- Stationary point found.

                         Standard orientation:
 ---------------------------------------------------------------------
 Center     Atomic      Atomic             Coordinates (Angstroms)
 Number     Number       Type             X           Y           Z
 ---------------------------------------------------------------------
      1          6           0       -0.075060    3.225494    2.631490
      2          6           0       -0.238156    2.131955    1.936934
      3          6           0       -0.435728    0.980603    1.301126
      4          7           0       -1.737420    0.758587    0.800291
      5          6           0       -2.092126   -0.432933    0.460071
      6          6           0       -3.398030   -0.815693   -0.072070
      7          6           0       -4.463576   -0.050749   -0.407131
      8          6           0       -4.511879    1.448742   -0.274948
      9          6           0       -5.737809   -0.659978   -0.959338
     10          6           0       -5.804579   -2.181800   -1.102788
     11          7           0        0.577017   -0.007234    1.147965
     12          6           0        1.386822   -0.345858    2.321538
     13          6           0        2.626663    0.507043    2.641085
     14          6           0        1.094390   -0.164456   -0.234675
     15          6           0        2.038151    0.974216   -0.692351
     16          6           0        2.219044    1.038446   -2.217385
     17          6           0        3.124628    2.184687   -2.701122
     18          6           0        2.565976    3.589724   -2.446392
     19          6           0        1.626598   -1.595943   -0.513220
     20          6           0        3.106307   -1.904559   -0.223991
     21          6           0        3.510729   -3.344593   -0.589660
     22          6           0        2.877987   -4.429941    0.289914
     23          1           0        0.192599    4.171940    2.160311
     24          1           0       -0.203410    3.250610    3.714751
     25          1           0       -1.386367   -1.265718    0.578941
     26          1           0       -3.487148   -1.889544   -0.218138
     27          1           0       -3.552403    1.862446    0.031593
     28          1           0       -5.267131    1.734971    0.471720
     29          1           0       -4.829341    1.904764   -1.223301
     30          1           0       -5.932649   -0.195130   -1.938805
     31          1           0       -6.571273   -0.319847   -0.324580
     32          1           0       -5.035037   -2.558333   -1.785879
     33          1           0       -5.674607   -2.684822   -0.138113
     34          1           0       -6.778995   -2.479714   -1.504633
     35          1           0        0.704835   -0.304597    3.177914
     36          1           0        1.690116   -1.395997    2.226484
     37          1           0        3.405183    0.406323    1.879082
     38          1           0        3.056187    0.179003    3.596332
     39          1           0        2.367531    1.565262    2.729565
     40          1           0        0.195678   -0.067448   -0.856301
     41          1           0        1.607214    1.916757   -0.335451
     42          1           0        3.021172    0.883277   -0.215291
     43          1           0        2.639381    0.090127   -2.579081
     44          1           0        1.231707    1.134671   -2.694326
     45          1           0        3.297048    2.061599   -3.779023
     46          1           0        4.111005    2.091199   -2.224191
     47          1           0        1.580646    3.712422   -2.913425
     48          1           0        2.453166    3.798489   -1.376865
     49          1           0        3.228948    4.357067   -2.862505
     50          1           0        0.980621   -2.294474    0.032484
     51          1           0        1.455656   -1.803851   -1.578542
     52          1           0        3.738035   -1.215249   -0.798564
     53          1           0        3.347590   -1.727803    0.831518
     54          1           0        3.258103   -3.533974   -1.643051
     55          1           0        4.603764   -3.427188   -0.520985
     56          1           0        3.245192   -5.424446    0.011577
     57          1           0        3.121571   -4.270978    1.348116
     58          1           0        1.786126   -4.447718    0.200339
 ---------------------------------------------------------------------

 The electronic state is 1-A.
 Alpha  occ. eigenvalues --  -14.32642 -14.31561 -10.23886 -10.21616 -10.21210
 Alpha  occ. eigenvalues --  -10.20716 -10.20045 -10.18830 -10.18822 -10.18642
 Alpha  occ. eigenvalues --  -10.18002 -10.17799 -10.17762 -10.17718 -10.17674
 Alpha  occ. eigenvalues --  -10.17584 -10.17527 -10.17260 -10.16914 -10.16839
 Alpha  occ. eigenvalues --  -10.16604 -10.16474  -0.94251  -0.88573  -0.81405
 Alpha  occ. eigenvalues --   -0.80353  -0.78652  -0.77173  -0.75533  -0.73880
 Alpha  occ. eigenvalues --   -0.72923  -0.70978  -0.70563  -0.67760  -0.66003
 Alpha  occ. eigenvalues --   -0.63827  -0.62986  -0.61530  -0.58793  -0.57752
 Alpha  occ. eigenvalues --   -0.56866  -0.54531  -0.52476  -0.50594  -0.48380
 Alpha  occ. eigenvalues --   -0.47533  -0.46543  -0.45465  -0.45167  -0.45103
 Alpha  occ. eigenvalues --   -0.44092  -0.43744  -0.43467  -0.43088  -0.42093
 Alpha  occ. eigenvalues --   -0.41746  -0.41149  -0.40470  -0.40262  -0.39915
 Alpha  occ. eigenvalues --   -0.39521  -0.39213  -0.37750  -0.37063  -0.36485
 Alpha  occ. eigenvalues --   -0.36333  -0.35645  -0.35378  -0.34738  -0.34700
 Alpha  occ. eigenvalues --   -0.34626  -0.34362  -0.33478  -0.32940  -0.32736
 Alpha  occ. eigenvalues --   -0.32442  -0.32103  -0.31283  -0.30762  -0.30517
 Alpha  occ. eigenvalues --   -0.27501  -0.26071  -0.24109  -0.21523  -0.19166
 Alpha virt. eigenvalues --   -0.04373   0.02604   0.04552   0.07417   0.09422
 Alpha virt. eigenvalues --    0.09648   0.09838   0.10301   0.10591   0.11112
 Alpha virt. eigenvalues --    0.12021   0.12721   0.13226   0.14113   0.14183

 Mulliken charges:
               1
     1  C   -0.549814
     2  C    0.330845
     3  C    0.205250
     4  N   -0.441902
     5  C    0.088765
     6  C   -0.211059
     7  C    0.191719
     8  C   -0.532569
     9  C   -0.315498
    10  C   -0.450880
    11  N   -0.461849
    12  C   -0.132115
    13  C   -0.456327
    14  C    0.037107
    15  C   -0.269189
    16  C   -0.261310
    17  C   -0.248565
    18  C   -0.443476
    19  C   -0.287149
    20  C   -0.265093
    21  C   -0.250475
    22  C   -0.444550
    23  H    0.160647
    24  H    0.161703
    25  H    0.130056
    26  H    0.117749
    27  H    0.211973
    28  H    0.152464
    29  H    0.143603
    30  H    0.148200
    31  H    0.148817
    32  H    0.151184
    33  H    0.152533
    34  H    0.145459
    35  H    0.146378
    36  H    0.139876
    37  H    0.149001
    38  H    0.134715
    39  H    0.159983
    40  H    0.136785
    41  H    0.145873
    42  H    0.133832
    43  H    0.131090
    44  H    0.129201
    45  H    0.129437
    46  H    0.128695
    47  H    0.142370
    48  H    0.148917
    49  H    0.140597
    50  H    0.146628
    51  H    0.135364
    52  H    0.135389
    53  H    0.137950
    54  H    0.129503
    55  H    0.131304
    56  H    0.143132
    57  H    0.140990
    58  H    0.146736
 Sum of Mulliken charges =  -0.00000

 Dipole moment (field-independent basis, Debye):
    X=              0.2258    Y=             -1.1168    Z=             -0.5655  Tot=              1.2720
 Quadrupole moment (field-independent basis, Debye-Ang):
   XX=           -131.5829   YY=           -138.2724   ZZ=           -137.3992
   XY=              1.9882   XZ=              3.4911   YZ=              0.6468

 1\1\GINC-NODE75\FOpt\RB3LYP\6-31G(d)\C20H36N2\WYKGROUP\04-Nov-2022\0\\
 #p b3lyp/6-31g(d) opt SCF=XQC\\Gaussian input prepared by ASE\\0,1\C,0
 .5884429815,0.5847802246,-4.2410002488\C,0.6709205212,0.2814320829,-2.
 9737140621\C,0.799292227,-0.098567282,-1.7056374411\N,2.0051732224,0.2
 609818646,-1.0644630628\C,2.3394981168,-0.324979016,0.0337914377\C,3.5
 499470113,-0.0604580022,0.8083278741\C,4.5161793866,0.8706928162,0.629
 0301418\C,4.5329581634,1.8771067961,-0.4912957635\C,5.7000645194,0.979
 8456322,1.5704467059\C,5.7955385601,-0.018963993,2.7255404277\N,-0.189

 Normal termination of Gaussian 16 at Fri Nov  4 20:25:44 2022.
