 Gaussian 16, Revision B.01,
 Gaussian 16:  ES64L-G16RevB.01 20-Dec-2017

 -------------------------------------------------------------------
 #p b3lyp/6-31g(d) 6D 10F nosymm GFInput td=(50-50,nstate=2) SCF=XQC
 -------------------------------------------------------------------

 ------------------------------
 Gaussian input prepared by ASE
 ------------------------------
 Symbolic Z-matrix:
 Charge =  0 Multiplicity = 1

                          Input orientation:
 ---------------------------------------------------------------------
 Center     Atomic      Atomic             Coordinates (Angstroms)
 Number     Number       Type             X           Y           Z
 ---------------------------------------------------------------------
      1          6           0        4.700692   -0.681557   -5.467864
      2          6           0        3.411832   -1.464704   -5.698064
      3          8           0        3.050759   -2.270449   -4.574780
      4          6           0        2.417714   -1.706178   -3.502759
      5          6           0        2.026283   -0.360001   -3.417028
      6          6           0        1.367864    0.069944   -2.265740
      7          6           0        1.096090   -0.785673   -1.194688
      8          6           0        1.501796   -2.146752   -1.294810
      9          6           0        2.158394   -2.588378   -2.447139
     10          7           0        1.173822   -3.005629   -0.271428
     11          6           0        0.869141   -2.551365    1.085539
     12          6           0        0.236391   -1.174460    1.074564
     13          6           0       -0.436429   -0.745803    2.313586
     14          7           0       -0.289543   -1.527115    3.333746
     15          6           0       -0.915418   -1.242840    4.607883
     16          6           0       -1.207871    0.554876    2.312638
     17          6           0       -0.764387    1.598185    3.071132
     18          6           0       -1.507234    2.891855    3.279563
     19          7           0        0.407462    1.521333    3.823770
     20          6           0       -2.450562    0.585244    1.505331
     21          7           0       -3.218671   -0.596431    1.604668
     22          6           0       -2.800574    1.560474    0.639723
     23          6           0       -2.098840    2.765675    0.036829
     24          6           0       -3.139485    2.726344   -1.123804
     25          6           0       -3.965923    1.661105   -0.338822
     26          6           0        0.391949   -0.368364   -0.001724
     27          1           0        4.594247    0.035657   -4.648536
     28          1           0        5.519154   -1.364968   -5.219630
     29          1           0        4.973658   -0.130325   -6.375477
     30          1           0        3.545502   -2.182642   -6.512915
     31          1           0        2.580718   -0.804067   -5.975463
     32          1           0        2.221779    0.341490   -4.218337
     33          1           0        1.054226    1.109298   -2.192476
     34          1           0        2.472382   -3.623496   -2.549493
     35          1           0        1.568558   -3.934197   -0.334863
     36          1           0        1.770851   -2.539212    1.725785
     37          1           0        0.183922   -3.265304    1.553569
     38          1           0       -1.721725   -0.495955    4.570776
     39          1           0       -1.308696   -2.180457    5.019906
     40          1           0       -0.160841   -0.873559    5.315441
     41          1           0       -1.497218    3.152412    4.345318
     42          1           0       -1.033186    3.719815    2.734939
     43          1           0       -2.539585    2.814047    2.938329
     44          1           0        1.066169    0.802714    3.547321
     45          1           0        0.858006    2.407945    4.012220
     46          1           0       -4.127241   -0.531434    1.160005
     47          1           0       -3.305407   -0.952722    2.550242
     48          1           0       -1.044210    2.643018   -0.244301
     49          1           0       -2.171328    3.685263    0.634903
     50          1           0       -2.721120    2.327245   -2.052186
     51          1           0       -3.651489    3.667594   -1.346567
     52          1           0       -4.894708    2.064431    0.091358
     53          1           0       -4.224450    0.753281   -0.900888
     54          1           0       -0.023221    0.634796    0.016854
 ---------------------------------------------------------------------

 SCF Done:  E(RB3LYP) =  -1111.23915392     A.U. after   14 cycles

 Excitation energies and oscillator strengths:

 Excited state symmetry could not be determined.
 Excited State   1:      Triplet-?Sym    2.1687 eV  571.70 nm  f=0.0000  <S**2>=2.000
      90 -> 96         0.14455
      93 -> 96         0.20363
      95 -> 96         0.64435
 This state for optimization and/or second-order correction.
 Total Energy, E(TD-HF/TD-DFT) =  -1111.15945627
 Copying the excited state density for this state as the 1-particle RhoCI density.

 Excited state symmetry could not be determined.
 Excited State   2:      Triplet-?Sym    2.9946 eV  414.03 nm  f=0.0000  <S**2>=2.000
      92 -> 96         0.11004
      92 -> 97        -0.15191
      94 -> 96        -0.38525
      94 -> 97         0.50690
      94 -> 99         0.10624
      95 -> 97        -0.11008

 Excited state symmetry could not be determined.
 Excited State   3:      Singlet-?Sym    3.1190 eV  397.51 nm  f=0.0764  <S**2>=0.000
      94 -> 96         0.52535
      95 -> 96        -0.46073

 Excited state symmetry could not be determined.
 Excited State   4:      Singlet-?Sym    3.1962 eV  387.91 nm  f=0.1665  <S**2>=0.000
      93 -> 96        -0.15281
      94 -> 96         0.46672
      95 -> 96         0.50376

 Alpha  occ. eigenvalues --  -19.16608 -14.34061 -14.33569 -14.32101 -14.30458
 Alpha  occ. eigenvalues --  -10.23853 -10.23815 -10.22963 -10.21922 -10.21732
 Alpha  occ. eigenvalues --  -10.20614 -10.20528 -10.18763 -10.18356 -10.18048
 Alpha  occ. eigenvalues --  -10.17961 -10.17833 -10.17691 -10.17491 -10.17475
 Alpha  occ. eigenvalues --  -10.17458 -10.17213 -10.17124 -10.16779 -10.16513
 Alpha  occ. eigenvalues --  -10.15934  -1.05108  -0.93017  -0.92165  -0.89794
 Alpha  occ. eigenvalues --   -0.88902  -0.82964  -0.82445  -0.79347  -0.76870
 Alpha  occ. eigenvalues --   -0.76303  -0.73466  -0.72611  -0.71178  -0.68635
 Alpha  occ. eigenvalues --   -0.66816  -0.65264  -0.64792  -0.63972  -0.60743
 Alpha  occ. eigenvalues --   -0.59874  -0.59121  -0.56491  -0.53805  -0.52825
 Alpha  occ. eigenvalues --   -0.52693  -0.50873  -0.50012  -0.49851  -0.49134
 Alpha  occ. eigenvalues --   -0.47351  -0.46526  -0.46085  -0.45752  -0.45577
 Alpha  occ. eigenvalues --   -0.44299  -0.44142  -0.43679  -0.43079  -0.42175
 Alpha  occ. eigenvalues --   -0.41322  -0.41102  -0.41012  -0.40624  -0.39284
 Alpha  occ. eigenvalues --   -0.39050  -0.38637  -0.38207  -0.37535  -0.36805
 Alpha  occ. eigenvalues --   -0.36574  -0.35902  -0.34757  -0.34303  -0.33630
 Alpha  occ. eigenvalues --   -0.32837  -0.32387  -0.32090  -0.31918  -0.31122
 Alpha  occ. eigenvalues --   -0.30863  -0.30189  -0.29544  -0.27378  -0.24809
 Alpha  occ. eigenvalues --   -0.22936  -0.20810  -0.20144  -0.17421  -0.16821
 Alpha virt. eigenvalues --   -0.03264   0.01197   0.02474   0.03908   0.06501
 Alpha virt. eigenvalues --    0.07395   0.08851   0.09340   0.09865   0.10319
 Alpha virt. eigenvalues --    0.10551   0.11841   0.12236   0.12602   0.13300

 Mulliken charges:
               1
     1  C   -0.461916
     2  C   -0.033795
     3  O   -0.525530
     4  C    0.388353
     5  C   -0.209826
     6  C   -0.230333
     7  C    0.136829
     8  C    0.342771
     9  C   -0.268050
    10  N   -0.691966
    11  C   -0.154560
    12  C    0.088000
    13  C    0.203353
    14  N   -0.450442
    15  C   -0.313624
    16  C   -0.093605
    17  C    0.301023
    18  C   -0.529579
    19  N   -0.765916
    20  C    0.160667
    21  N   -0.767041
    22  C    0.086266
    23  C   -0.324290
    24  C   -0.279163
    25  C   -0.337614
    26  C   -0.206110
    27  H    0.164840
    28  H    0.161564
    29  H    0.144814
    30  H    0.152927
    31  H    0.143182
    32  H    0.121798
    33  H    0.122526
    34  H    0.119394
    35  H    0.314200
    36  H    0.139327
    37  H    0.166445
    38  H    0.128511
    39  H    0.147102
    40  H    0.157439
    41  H    0.158756
    42  H    0.158630
    43  H    0.181775
    44  H    0.334605
    45  H    0.320877
    46  H    0.314540
    47  H    0.316020
    48  H    0.138751
    49  H    0.130002
    50  H    0.145784
    51  H    0.130392
    52  H    0.133926
    53  H    0.139281
    54  H    0.148692
 Sum of Mulliken charges =  -0.00000

 Dipole moment (field-independent basis, Debye):
    X=              0.5242    Y=              2.3812    Z=              0.4707  Tot=              2.4832
 Quadrupole moment (field-independent basis, Debye-Ang):
   XX=           -144.0220   YY=           -147.2131   ZZ=           -141.0339
   XY=              1.0496   XZ=             -7.0415   YZ=              2.7074

 Normal termination of Gaussian 16 at Sat Nov  5 11:51:59 2022.
