 Gaussian 16, Revision B.01,
 Gaussian 16:  ES64L-G16RevB.01 20-Dec-2017

 -----------------------------
 #p b3lyp/6-31g(d) opt SCF=XQC
 -----------------------------

 ------------------------------
 Gaussian input prepared by ASE
 ------------------------------
 Symbolic Z-matrix:
 Charge =  0 Multiplicity = 1

 SCF Done:  E(RB3LYP) =  -1111.23223609     A.U. after   14 cycles
 SCF Done:  E(RB3LYP) =  -1111.23788625     A.U. after   13 cycles
 SCF Done:  E(RB3LYP) =  -1111.23786092     A.U. after   13 cycles
 SCF Done:  E(RB3LYP) =  -1111.23865426     A.U. after   12 cycles
 SCF Done:  E(RB3LYP) =  -1111.23897300     A.U. after   12 cycles
 SCF Done:  E(RB3LYP) =  -1111.23889497     A.U. after   11 cycles
 SCF Done:  E(RB3LYP) =  -1111.23907529     A.U. after   11 cycles
 SCF Done:  E(RB3LYP) =  -1111.23910840     A.U. after   10 cycles
 SCF Done:  E(RB3LYP) =  -1111.23912744     A.U. after   10 cycles
 SCF Done:  E(RB3LYP) =  -1111.23913706     A.U. after    9 cycles
 SCF Done:  E(RB3LYP) =  -1111.23914948     A.U. after   10 cycles
 SCF Done:  E(RB3LYP) =  -1111.23915350     A.U. after    9 cycles
 SCF Done:  E(RB3LYP) =  -1111.23915499     A.U. after    8 cycles
 SCF Done:  E(RB3LYP) =  -1111.23915555     A.U. after    8 cycles
 SCF Done:  E(RB3LYP) =  -1111.23915571     A.U. after    7 cycles
 SCF Done:  E(RB3LYP) =  -1111.23915583     A.U. after    7 cycles
 SCF Done:  E(RB3LYP) =  -1111.23915590     A.U. after    7 cycles
 SCF Done:  E(RB3LYP) =  -1111.23915596     A.U. after    7 cycles
 Optimization completed.
    -- Stationary point found.

                         Standard orientation:
 ---------------------------------------------------------------------
 Center     Atomic      Atomic             Coordinates (Angstroms)
 Number     Number       Type             X           Y           Z
 ---------------------------------------------------------------------
      1          6           0        6.881102    0.762245    1.548285
      2          6           0        6.561609    0.916879    0.064545
      3          8           0        5.723127   -0.129588   -0.428627
      4          6           0        4.373306   -0.081637   -0.218718
      5          6           0        3.695651    0.969485    0.420569
      6          6           0        2.309225    0.890046    0.544441
      7          6           0        1.575899   -0.199734    0.067254
      8          6           0        2.277053   -1.259081   -0.575648
      9          6           0        3.666654   -1.186314   -0.708809
     10          7           0        1.549951   -2.299089   -1.106923
     11          6           0        0.196296   -2.634774   -0.664789
     12          6           0       -0.551214   -1.401309   -0.199866
     13          6           0       -2.013272   -1.525936   -0.063995
     14          7           0       -2.493238   -2.717851   -0.211386
     15          6           0       -3.914119   -2.982930   -0.129000
     16          6           0       -2.824432   -0.290339    0.255703
     17          6           0       -3.465051   -0.200818    1.456570
     18          6           0       -4.420141    0.896727    1.846497
     19          7           0       -3.365919   -1.199502    2.425283
     20          6           0       -2.907606    0.738696   -0.807837
     21          7           0       -3.073384    0.200736   -2.103728
     22          6           0       -2.717881    2.064100   -0.634150
     23          6           0       -2.206540    2.937634    0.498939
     24          6           0       -1.882320    4.034046   -0.561402
     25          6           0       -2.645416    3.206624   -1.641674
     26          6           0        0.135162   -0.291966    0.161567
     27          1           0        5.978717    0.831598    2.163035
     28          1           0        7.348007   -0.210190    1.735158
     29          1           0        7.577024    1.547063    1.867476
     30          1           0        7.476057    0.832558   -0.530401
     31          1           0        6.116776    1.895927   -0.153927
     32          1           0        4.222057    1.830600    0.812720
     33          1           0        1.774121    1.702503    1.031852
     34          1           0        4.223240   -1.979226   -1.200781
     35          1           0        2.090892   -3.076114   -1.461453
     36          1           0        0.204569   -3.389240    0.143823
     37          1           0       -0.344082   -3.098498   -1.496196
     38          1           0       -4.556032   -2.093703   -0.210044
     39          1           0       -4.181912   -3.696295   -0.918274
     40          1           0       -4.144473   -3.465342    0.830484
     41          1           0       -5.315070    0.457782    2.305032
     42          1           0       -3.972417    1.575557    2.585137
     43          1           0       -4.714274    1.490485    0.980944
     44          1           0       -2.572578   -1.823971    2.339370
     45          1           0       -3.515842   -0.892592    3.378128
     46          1           0       -3.259305    0.898706   -2.814869
     47          1           0       -3.750537   -0.552656   -2.153132
     48          1           0       -1.359940    2.554564    1.084471
     49          1           0       -2.977363    3.259491    1.213663
     50          1           0       -0.812444    4.111071   -0.775022
     51          1           0       -2.271416    5.036051   -0.355696
     52          1           0       -3.618106    3.642634   -1.913955
     53          1           0       -2.092122    3.016654   -2.571554
     54          1           0       -0.404227    0.571357    0.539418
 ---------------------------------------------------------------------

 The electronic state is 1-A.
 Alpha  occ. eigenvalues --  -19.16608 -14.34061 -14.33569 -14.32101 -14.30458
 Alpha  occ. eigenvalues --  -10.23853 -10.23815 -10.22963 -10.21922 -10.21732
 Alpha  occ. eigenvalues --  -10.20614 -10.20528 -10.18763 -10.18356 -10.18048
 Alpha  occ. eigenvalues --  -10.17961 -10.17833 -10.17691 -10.17491 -10.17475
 Alpha  occ. eigenvalues --  -10.17458 -10.17213 -10.17124 -10.16779 -10.16513
 Alpha  occ. eigenvalues --  -10.15934  -1.05108  -0.93017  -0.92165  -0.89794
 Alpha  occ. eigenvalues --   -0.88902  -0.82964  -0.82445  -0.79347  -0.76870
 Alpha  occ. eigenvalues --   -0.76303  -0.73466  -0.72611  -0.71178  -0.68635
 Alpha  occ. eigenvalues --   -0.66816  -0.65264  -0.64792  -0.63972  -0.60743
 Alpha  occ. eigenvalues --   -0.59874  -0.59121  -0.56491  -0.53805  -0.52825
 Alpha  occ. eigenvalues --   -0.52693  -0.50873  -0.50012  -0.49851  -0.49134
 Alpha  occ. eigenvalues --   -0.47351  -0.46526  -0.46085  -0.45752  -0.45577
 Alpha  occ. eigenvalues --   -0.44299  -0.44142  -0.43679  -0.43079  -0.42175
 Alpha  occ. eigenvalues --   -0.41322  -0.41102  -0.41012  -0.40624  -0.39284
 Alpha  occ. eigenvalues --   -0.39050  -0.38637  -0.38207  -0.37535  -0.36805
 Alpha  occ. eigenvalues --   -0.36574  -0.35902  -0.34757  -0.34303  -0.33630
 Alpha  occ. eigenvalues --   -0.32837  -0.32387  -0.32090  -0.31918  -0.31122
 Alpha  occ. eigenvalues --   -0.30863  -0.30189  -0.29544  -0.27378  -0.24809
 Alpha  occ. eigenvalues --   -0.22935  -0.20810  -0.20144  -0.17421  -0.16821
 Alpha virt. eigenvalues --   -0.03264   0.01197   0.02474   0.03908   0.06501
 Alpha virt. eigenvalues --    0.07395   0.08851   0.09340   0.09865   0.10319
 Alpha virt. eigenvalues --    0.10551   0.11841   0.12236   0.12601   0.13300

 Mulliken charges:
               1
     1  C   -0.461921
     2  C   -0.033786
     3  O   -0.525533
     4  C    0.388345
     5  C   -0.209818
     6  C   -0.230332
     7  C    0.136849
     8  C    0.342750
     9  C   -0.268052
    10  N   -0.691946
    11  C   -0.154579
    12  C    0.087993
    13  C    0.203369
    14  N   -0.450437
    15  C   -0.313635
    16  C   -0.093530
    17  C    0.300981
    18  C   -0.529582
    19  N   -0.765904
    20  C    0.160580
    21  N   -0.767025
    22  C    0.086302
    23  C   -0.324302
    24  C   -0.279167
    25  C   -0.337615
    26  C   -0.206117
    27  H    0.164841
    28  H    0.161565
    29  H    0.144814
    30  H    0.152926
    31  H    0.143180
    32  H    0.121797
    33  H    0.122527
    34  H    0.119395
    35  H    0.314200
    36  H    0.139329
    37  H    0.166446
    38  H    0.128511
    39  H    0.147103
    40  H    0.157441
    41  H    0.158758
    42  H    0.158631
    43  H    0.181774
    44  H    0.334603
    45  H    0.320876
    46  H    0.314539
    47  H    0.316021
    48  H    0.138752
    49  H    0.130002
    50  H    0.145789
    51  H    0.130392
    52  H    0.133926
    53  H    0.139281
    54  H    0.148694
 Sum of Mulliken charges =  -0.00000

 Dipole moment (field-independent basis, Debye):
    X=             -0.7611    Y=              1.1442    Z=              2.0683  Tot=              2.4832
 Quadrupole moment (field-independent basis, Debye-Ang):
   XX=           -135.1995   YY=           -150.5814   ZZ=           -145.3487
   XY=              1.1032   XZ=              0.8808   YZ=              1.8288

 Normal termination of Gaussian 16 at Fri Nov  4 19:43:40 2022.
