 Gaussian 16, Revision B.01,
 Gaussian 16:  ES64L-G16RevB.01 20-Dec-2017

 -------------------------------------------------------------------
 #p b3lyp/6-31g(d) 6D 10F nosymm GFInput td=(50-50,nstate=2) SCF=XQC
 -------------------------------------------------------------------

 ------------------------------
 Gaussian input prepared by ASE
 ------------------------------
 Symbolic Z-matrix:
 Charge =  0 Multiplicity = 1

                          Input orientation:
 ---------------------------------------------------------------------
 Center     Atomic      Atomic             Coordinates (Angstroms)
 Number     Number       Type             X           Y           Z
 ---------------------------------------------------------------------
      1          6           0       10.194268    0.633141   -2.011461
      2          6           0        9.756131    0.141253   -0.850696
      3          6           0        8.503572   -0.654666   -0.787877
      4          8           0        7.789473   -0.923573   -1.734337
      5          8           0        8.260004   -1.051841    0.484478
      6          6           0        7.070656   -1.845281    0.695468
      7          6           0        5.833147   -0.969989    0.871908
      8          6           0        4.584988   -1.806489    1.189893
      9          6           0        3.313589   -0.977503    1.437528
     10          6           0        2.799057   -0.214692    0.208161
     11          6           0        1.490495    0.539053    0.483227
     12          6           0        0.999333    1.310160   -0.741674
     13          8           0       -0.178169    2.081163   -0.473155
     14          6           0       -1.403690    1.492485   -0.493754
     15          6           0       -2.483645    2.346381   -0.214891
     16          6           0       -3.782027    1.857702   -0.215977
     17          6           0       -4.045656    0.504918   -0.493861
     18          6           0       -5.413134   -0.106213   -0.525252
     19          8           0       -5.637759   -1.149372   -1.132684
     20          7           0       -6.377742    0.578719    0.187075
     21          6           0       -7.748089    0.278844    0.335218
     22          6           0       -8.385905   -0.782473   -0.328313
     23          6           0       -9.749369   -1.001217   -0.134273
     24          6           0      -10.468682   -0.170086    0.714281
     25          9           0      -11.789884   -0.390657    0.897380
     26          6           0       -9.859756    0.885270    1.382107
     27          6           0       -8.499205    1.104880    1.187447
     28          6           0       -2.962906   -0.330399   -0.791861
     29          6           0       -1.653763    0.142943   -0.785763
     30          1           0       11.108324    1.215520   -2.076636
     31          1           0        9.637955    0.456857   -2.927740
     32          1           0       10.285878    0.296506    0.084468
     33          1           0        7.282908   -2.419870    1.601531
     34          1           0        6.948141   -2.530564   -0.147941
     35          1           0        6.018237   -0.251932    1.682236
     36          1           0        5.686580   -0.393616   -0.047648
     37          1           0        4.781843   -2.418047    2.081837
     38          1           0        4.400568   -2.514455    0.368762
     39          1           0        3.497181   -0.266164    2.255892
     40          1           0        2.520661   -1.650598    1.791882
     41          1           0        2.648577   -0.924824   -0.618661
     42          1           0        3.560440    0.497824   -0.136909
     43          1           0        1.632176    1.253589    1.304446
     44          1           0        0.716832   -0.165853    0.813256
     45          1           0        0.830753    0.645693   -1.598941
     46          1           0        1.743961    2.052611   -1.044508
     47          1           0       -2.276313    3.392964   -0.016152
     48          1           0       -4.594206    2.558613   -0.038403
     49          1           0       -6.049287    1.345558    0.756356
     50          1           0       -7.809240   -1.423817   -0.978942
     51          1           0      -10.256492   -1.817140   -0.639026
     52          1           0      -10.445318    1.519268    2.039529
     53          1           0       -8.014759    1.930482    1.704939
     54          1           0       -3.167336   -1.369331   -1.028717
     55          1           0       -0.843393   -0.541736   -1.006733
 ---------------------------------------------------------------------

 SCF Done:  E(RB3LYP) =  -1347.60036735     A.U. after   15 cycles

 Excitation energies and oscillator strengths:

 Excited state symmetry could not be determined.
 Excited State   1:      Triplet-?Sym    3.3414 eV  371.05 nm  f=0.0000  <S**2>=2.000
     102 ->109         0.17092
     103 ->110         0.17217
     105 ->108        -0.26239
     105 ->111        -0.16994
     106 ->108         0.54991
     106 ->111        -0.15486
 This state for optimization and/or second-order correction.
 Total Energy, E(TD-HF/TD-DFT) =  -1347.47757194
 Copying the excited state density for this state as the 1-particle RhoCI density.

 Excited state symmetry could not be determined.
 Excited State   2:      Triplet-?Sym    3.4660 eV  357.71 nm  f=0.0000  <S**2>=2.000
     102 ->109        -0.17823
     103 ->110         0.19474
     105 ->108         0.53585
     106 ->108         0.19215
     106 ->111        -0.29090

 Excited state symmetry could not be determined.
 Excited State   3:      Singlet-?Sym    4.3016 eV  288.23 nm  f=0.0003  <S**2>=0.000
     106 ->107         0.70543

 Excited state symmetry could not be determined.
 Excited State   4:      Singlet-?Sym    4.3433 eV  285.46 nm  f=0.5537  <S**2>=0.000
     106 ->108         0.69832

 Alpha  occ. eigenvalues --  -24.69640 -19.19200 -19.18629 -19.13448 -19.11585
 Alpha  occ. eigenvalues --  -14.37684 -10.31654 -10.29376 -10.26356 -10.26187
 Alpha  occ. eigenvalues --  -10.24995 -10.24355 -10.23779 -10.20884 -10.20816
 Alpha  occ. eigenvalues --  -10.20721 -10.20089 -10.20031 -10.19952 -10.19767
 Alpha  occ. eigenvalues --  -10.19648 -10.19602 -10.19501 -10.19451 -10.19315
 Alpha  occ. eigenvalues --  -10.19220 -10.19212 -10.19016 -10.18846  -1.20723
 Alpha  occ. eigenvalues --   -1.09906  -1.07178  -1.03543  -1.01236  -0.94147
 Alpha  occ. eigenvalues --   -0.86390  -0.85115  -0.82333  -0.80302  -0.79016
 Alpha  occ. eigenvalues --   -0.76999  -0.76007  -0.75513  -0.74644  -0.73347
 Alpha  occ. eigenvalues --   -0.69982  -0.66506  -0.64565  -0.63096  -0.62610
 Alpha  occ. eigenvalues --   -0.61281  -0.60725  -0.59688  -0.58051  -0.57308
 Alpha  occ. eigenvalues --   -0.55363  -0.54854  -0.53789  -0.52934  -0.51904
 Alpha  occ. eigenvalues --   -0.51186  -0.49677  -0.48760  -0.47895  -0.47455
 Alpha  occ. eigenvalues --   -0.46697  -0.46353  -0.45475  -0.45244  -0.45059
 Alpha  occ. eigenvalues --   -0.44595  -0.44142  -0.43482  -0.43302  -0.43149
 Alpha  occ. eigenvalues --   -0.42531  -0.42058  -0.42009  -0.40837  -0.40493
 Alpha  occ. eigenvalues --   -0.40011  -0.39392  -0.38870  -0.38530  -0.38087
 Alpha  occ. eigenvalues --   -0.37941  -0.37308  -0.36440  -0.36182  -0.35552
 Alpha  occ. eigenvalues --   -0.34458  -0.34316  -0.34089  -0.33520  -0.33108
 Alpha  occ. eigenvalues --   -0.32789  -0.31627  -0.29850  -0.29598  -0.28477
 Alpha  occ. eigenvalues --   -0.27530  -0.26296  -0.25731  -0.25415  -0.22917
 Alpha  occ. eigenvalues --   -0.21156
 Alpha virt. eigenvalues --   -0.04700  -0.03506  -0.01284  -0.00702   0.01619
 Alpha virt. eigenvalues --    0.06629   0.06937   0.07462   0.08333   0.09041
 Alpha virt. eigenvalues --    0.09585   0.10093   0.10644   0.11109   0.11401

 Mulliken charges:
               1
     1  C   -0.302566
     2  C   -0.133443
     3  C    0.608295
     4  O   -0.494960
     5  O   -0.476957
     6  C   -0.043090
     7  C   -0.283333
     8  C   -0.268017
     9  C   -0.254569
    10  C   -0.267205
    11  C   -0.283975
    12  C   -0.042393
    13  O   -0.523289
    14  C    0.389256
    15  C   -0.182322
    16  C   -0.189741
    17  C    0.060097
    18  C    0.575809
    19  O   -0.518091
    20  N   -0.744979
    21  C    0.364757
    22  C   -0.159218
    23  C   -0.213241
    24  C    0.379132
    25  F   -0.301905
    26  C   -0.200379
    27  C   -0.201776
    28  C   -0.165988
    29  C   -0.195169
    30  H    0.158050
    31  H    0.180570
    32  H    0.154148
    33  H    0.149828
    34  H    0.167545
    35  H    0.141592
    36  H    0.166397
    37  H    0.133074
    38  H    0.138399
    39  H    0.133437
    40  H    0.134789
    41  H    0.135322
    42  H    0.142196
    43  H    0.150575
    44  H    0.148862
    45  H    0.146467
    46  H    0.158274
    47  H    0.143469
    48  H    0.129664
    49  H    0.332869
    50  H    0.194668
    51  H    0.149286
    52  H    0.145969
    53  H    0.127434
    54  H    0.165749
    55  H    0.140633
 Sum of Mulliken charges =  -0.00000

 Dipole moment (field-independent basis, Debye):
    X=              5.0565    Y=              2.3352    Z=              2.6623  Tot=              6.1733
 Quadrupole moment (field-independent basis, Debye-Ang):
   XX=           -186.9080   YY=           -163.5372   ZZ=           -171.5100
   XY=             -9.8626   XZ=             -3.2423   YZ=             -0.2158

 Normal termination of Gaussian 16 at Sat Nov  5 12:01:58 2022.
