 Gaussian 16, Revision B.01,
 Gaussian 16:  ES64L-G16RevB.01 20-Dec-2017

 -----------------------------
 #p b3lyp/6-31g(d) opt SCF=XQC
 -----------------------------

 ------------------------------
 Gaussian input prepared by ASE
 ------------------------------
 Symbolic Z-matrix:
 Charge =  0 Multiplicity = 1

 SCF Done:  E(RB3LYP) =  -1347.59556159     A.U. after   15 cycles
 SCF Done:  E(RB3LYP) =  -1347.59982716     A.U. after   12 cycles
 SCF Done:  E(RB3LYP) =  -1347.60021726     A.U. after   12 cycles
 SCF Done:  E(RB3LYP) =  -1347.60027784     A.U. after   11 cycles
 SCF Done:  E(RB3LYP) =  -1347.60034285     A.U. after   10 cycles
 SCF Done:  E(RB3LYP) =  -1347.60035239     A.U. after   10 cycles
 SCF Done:  E(RB3LYP) =  -1347.60035860     A.U. after    9 cycles
 SCF Done:  E(RB3LYP) =  -1347.60036261     A.U. after    9 cycles
 SCF Done:  E(RB3LYP) =  -1347.60036456     A.U. after    9 cycles
 SCF Done:  E(RB3LYP) =  -1347.60036534     A.U. after    8 cycles
 SCF Done:  E(RB3LYP) =  -1347.60036578     A.U. after    8 cycles
 SCF Done:  E(RB3LYP) =  -1347.60036589     A.U. after    7 cycles
 SCF Done:  E(RB3LYP) =  -1347.60036586     A.U. after    7 cycles
 Optimization completed.
    -- Stationary point found.

                         Standard orientation:
 ---------------------------------------------------------------------
 Center     Atomic      Atomic             Coordinates (Angstroms)
 Number     Number       Type             X           Y           Z
 ---------------------------------------------------------------------
      1          6           0      -11.031966    1.583046    1.007730
      2          6           0      -10.569868    0.669095    0.151896
      3          6           0       -9.350009   -0.117710    0.466889
      4          8           0       -8.685057   -0.014673    1.479438
      5          8           0       -9.073886   -0.983192   -0.538426
      6          6           0       -7.911271   -1.823759   -0.364107
      7          6           0       -6.632497   -1.114647   -0.800677
      8          6           0       -5.408797   -2.037787   -0.705170
      9          6           0       -4.095346   -1.399762   -1.187629
     10          6           0       -3.597719   -0.231751   -0.323868
     11          6           0       -2.249228    0.325442   -0.800561
     12          6           0       -1.774413    1.499906    0.054665
     13          8           0       -0.556306    2.078590   -0.429484
     14          6           0        0.641936    1.515725   -0.119216
     15          6           0        1.766504    2.169032   -0.650010
     16          6           0        3.042408    1.689024   -0.392586
     17          6           0        3.238528    0.544451    0.400026
     18          6           0        4.577143   -0.038213    0.736290
     19          8           0        4.734389   -0.768701    1.710596
     20          7           0        5.596377    0.293851   -0.134288
     21          6           0        6.957786   -0.071815   -0.083529
     22          6           0        7.524616   -0.806869    0.970927
     23          6           0        8.884312   -1.115446    0.947699
     24          6           0        9.670028   -0.695862   -0.117587
     25          9           0       10.987030   -1.000892   -0.132230
     26          6           0        9.131961    0.031361   -1.172190
     27          6           0        7.775184    0.340909   -1.148575
     28          6           0        2.111198   -0.084245    0.941112
     29          6           0        0.824108    0.379938    0.684444
     30          1           0      -11.922846    2.166155    0.795062
     31          1           0      -10.519518    1.763372    1.948478
     32          1           0      -11.055934    0.461444   -0.796728
     33          1           0       -8.111850   -2.699897   -0.987246
     34          1           0       -7.850258   -2.130561    0.683801
     35          1           0       -6.755906   -0.763353   -1.834049
     36          1           0       -6.497945   -0.230099   -0.169217
     37          1           0       -5.596092   -2.942862   -1.300215
     38          1           0       -5.286057   -2.375575    0.334213
     39          1           0       -4.217227   -1.057811   -2.225725
     40          1           0       -3.317928   -2.175882   -1.212447
     41          1           0       -3.509174   -0.568536    0.719828
     42          1           0       -4.341642    0.576349   -0.321200
     43          1           0       -2.329022    0.668255   -1.840345
     44          1           0       -1.493312   -0.470095   -0.791684
     45          1           0       -1.667082    1.216589    1.109679
     46          1           0       -2.498722    2.318800    0.007740
     47          1           0        1.610774    3.060917   -1.248431
     48          1           0        3.889332    2.246937   -0.784883
     49          1           0        5.322492    0.786993   -0.972025
     50          1           0        6.896907   -1.131755    1.788003
     51          1           0        9.337043   -1.683015    1.754284
     52          1           0        9.768511    0.346635   -1.992219
     53          1           0        7.345993    0.911922   -1.969454
     54          1           0        2.262866   -0.954218    1.571521
     55          1           0       -0.022023   -0.146218    1.110515
 ---------------------------------------------------------------------

 The electronic state is 1-A.
 Alpha  occ. eigenvalues --  -24.69639 -19.19200 -19.18629 -19.13448 -19.11585
 Alpha  occ. eigenvalues --  -14.37684 -10.31654 -10.29376 -10.26356 -10.26187
 Alpha  occ. eigenvalues --  -10.24995 -10.24355 -10.23779 -10.20884 -10.20816
 Alpha  occ. eigenvalues --  -10.20721 -10.20089 -10.20031 -10.19952 -10.19767
 Alpha  occ. eigenvalues --  -10.19647 -10.19602 -10.19501 -10.19451 -10.19315
 Alpha  occ. eigenvalues --  -10.19220 -10.19212 -10.19016 -10.18845  -1.20723
 Alpha  occ. eigenvalues --   -1.09906  -1.07178  -1.03543  -1.01236  -0.94147
 Alpha  occ. eigenvalues --   -0.86390  -0.85115  -0.82333  -0.80302  -0.79016
 Alpha  occ. eigenvalues --   -0.76999  -0.76007  -0.75513  -0.74644  -0.73347
 Alpha  occ. eigenvalues --   -0.69982  -0.66506  -0.64565  -0.63096  -0.62610
 Alpha  occ. eigenvalues --   -0.61281  -0.60725  -0.59688  -0.58051  -0.57308
 Alpha  occ. eigenvalues --   -0.55363  -0.54854  -0.53789  -0.52934  -0.51904
 Alpha  occ. eigenvalues --   -0.51186  -0.49677  -0.48760  -0.47895  -0.47455
 Alpha  occ. eigenvalues --   -0.46697  -0.46353  -0.45475  -0.45244  -0.45059
 Alpha  occ. eigenvalues --   -0.44595  -0.44142  -0.43482  -0.43302  -0.43149
 Alpha  occ. eigenvalues --   -0.42531  -0.42058  -0.42009  -0.40837  -0.40493
 Alpha  occ. eigenvalues --   -0.40011  -0.39392  -0.38870  -0.38530  -0.38087
 Alpha  occ. eigenvalues --   -0.37941  -0.37308  -0.36440  -0.36182  -0.35552
 Alpha  occ. eigenvalues --   -0.34458  -0.34316  -0.34089  -0.33520  -0.33108
 Alpha  occ. eigenvalues --   -0.32789  -0.31627  -0.29850  -0.29598  -0.28477
 Alpha  occ. eigenvalues --   -0.27530  -0.26296  -0.25731  -0.25415  -0.22917
 Alpha  occ. eigenvalues --   -0.21156
 Alpha virt. eigenvalues --   -0.04700  -0.03506  -0.01284  -0.00702   0.01619
 Alpha virt. eigenvalues --    0.06629   0.06937   0.07462   0.08333   0.09041
 Alpha virt. eigenvalues --    0.09585   0.10093   0.10644   0.11109   0.11401

 Mulliken charges:
               1
     1  C   -0.302564
     2  C   -0.133442
     3  C    0.608287
     4  O   -0.494957
     5  O   -0.476952
     6  C   -0.043098
     7  C   -0.283328
     8  C   -0.268043
     9  C   -0.254553
    10  C   -0.267199
    11  C   -0.283977
    12  C   -0.042385
    13  O   -0.523296
    14  C    0.389262
    15  C   -0.182321
    16  C   -0.189728
    17  C    0.060088
    18  C    0.575817
    19  O   -0.518096
    20  N   -0.744989
    21  C    0.364770
    22  C   -0.159228
    23  C   -0.213240
    24  C    0.379129
    25  F   -0.301905
    26  C   -0.200376
    27  C   -0.201776
    28  C   -0.165990
    29  C   -0.195167
    30  H    0.158050
    31  H    0.180569
    32  H    0.154148
    33  H    0.149829
    34  H    0.167547
    35  H    0.141594
    36  H    0.166398
    37  H    0.133078
    38  H    0.138403
    39  H    0.133434
    40  H    0.134787
    41  H    0.135320
    42  H    0.142193
    43  H    0.150574
    44  H    0.148860
    45  H    0.146464
    46  H    0.158272
    47  H    0.143468
    48  H    0.129663
    49  H    0.332869
    50  H    0.194668
    51  H    0.149287
    52  H    0.145968
    53  H    0.127434
    54  H    0.165748
    55  H    0.140632
 Sum of Mulliken charges =  -0.00000

 Dipole moment (field-independent basis, Debye):
    X=             -4.8477    Y=              1.2355    Z=             -3.6170  Tot=              6.1733
 Quadrupole moment (field-independent basis, Debye-Ang):
   XX=           -177.9944   YY=           -165.0064   ZZ=           -170.7155
   XY=              7.5591   XZ=             -4.4352   YZ=             -2.1256

 Normal termination of Gaussian 16 at Fri Nov  4 19:25:34 2022.
