 Gaussian 16, Revision B.01,
 Gaussian 16:  ES64L-G16RevB.01 20-Dec-2017

 -------------------------------------------------------------------
 #p b3lyp/6-31g(d) 6D 10F nosymm GFInput td=(50-50,nstate=2) SCF=XQC
 -------------------------------------------------------------------

 ------------------------------
 Gaussian input prepared by ASE
 ------------------------------
 Symbolic Z-matrix:
 Charge =  0 Multiplicity = 1

                          Input orientation:
 ---------------------------------------------------------------------
 Center     Atomic      Atomic             Coordinates (Angstroms)
 Number     Number       Type             X           Y           Z
 ---------------------------------------------------------------------
      1          6           0       -6.674077    4.272734    2.405475
      2          8           0       -5.942527    3.054314    2.177221
      3          6           0       -5.462780    2.896974    0.919786
      4          8           0       -5.635528    3.710800    0.039859
      5          6           0       -4.647378    1.597179    0.739533
      6          6           0       -5.518036    0.423943    0.273594
      7          6           0       -6.894803    0.411298    0.528533
      8          6           0       -7.707180   -0.631776    0.085599
      9          6           0       -7.139494   -1.685553   -0.626278
     10          6           0       -5.767249   -1.688880   -0.872355
     11          6           0       -4.930574   -0.655752   -0.427278
     12          6           0       -3.434627   -0.728877   -0.704118
     13          6           0       -2.786989   -2.050985   -0.243757
     14          6           0       -1.252156   -1.914528   -0.330378
     15          8           0       -0.835798   -0.965838   -1.320673
     16          6           0       -1.649842   -1.016665   -2.487049
     17          6           0       -3.080007   -0.504658   -2.197244
     18          7           0       -3.775568    1.218282    1.833361
     19          6           0       -4.280306    0.640308    3.078974
     20          6           0       -2.993134    0.458055    3.921352
     21          6           0       -1.892705    1.290491    3.210838
     22          8           0       -0.987133    0.373862    2.605590
     23          6           0        0.332320    0.839136    2.328807
     24          6           0        0.483934    1.551992    0.977876
     25          6           0        1.936647    1.638696    0.475019
     26          6           0        2.541933    0.271399    0.080429
     27          6           0        3.879922    0.397117   -0.634466
     28          6           0        4.007979    0.463501   -1.979546
     29          6           0        2.872407    0.308926   -2.962584
     30          6           0        5.345808    0.759440   -2.624005
     31          6           0        6.112963   -0.493955   -3.055036
     32          6           0        6.683784   -1.403996   -1.984890
     33          6           0        6.756626   -1.214684   -0.636955
     34          6           0        6.229771   -0.125728    0.196805
     35          6           0        5.040017    0.516521    0.256305
     36          6           0        7.516427   -2.230812    0.225192
     37          6           0        7.753537   -3.575150   -0.468758
     38          6           0        8.233864   -3.338711   -1.896054
     39          7           0        7.230337   -2.547057   -2.591823
     40          6           0       -2.696776    2.123532    2.193991
     41          1           0       -7.548907    4.323146    1.752093
     42          1           0       -6.976563    4.240212    3.452420
     43          1           0       -6.038870    5.141235    2.213717
     44          1           0       -3.990201    1.864320   -0.097170
     45          1           0       -7.341820    1.227355    1.087828
     46          1           0       -8.773220   -0.616190    0.295467
     47          1           0       -7.757494   -2.504357   -0.985510
     48          1           0       -5.333450   -2.518743   -1.424508
     49          1           0       -2.941324    0.047465   -0.119159
     50          1           0       -3.138449   -2.884270   -0.865923
     51          1           0       -3.072864   -2.283258    0.787715
     52          1           0       -0.859235   -1.532089    0.614967
     53          1           0       -0.784921   -2.890646   -0.537845
     54          1           0       -1.677740   -2.047711   -2.876261
     55          1           0       -1.147266   -0.398257   -3.236286
     56          1           0       -3.793304   -1.031393   -2.844192
     57          1           0       -3.166137    0.561953   -2.436807
     58          1           0       -4.797385   -0.302847    2.878837
     59          1           0       -4.986146    1.308838    3.595614
     60          1           0       -3.144321    0.790846    4.952808
     61          1           0       -2.662194   -0.582879    3.948941
     62          1           0       -1.339760    1.936202    3.908750
     63          1           0        0.684046    1.485509    3.150203
     64          1           0        0.948816   -0.065634    2.341604
     65          1           0       -0.115406    1.009805    0.235881
     66          1           0        0.072955    2.567724    1.047437
     67          1           0        1.956724    2.291224   -0.406645
     68          1           0        2.571829    2.129122    1.227344
     69          1           0        2.680576   -0.345486    0.977096
     70          1           0        1.814338   -0.258078   -0.542777
     71          1           0        1.940198   -0.042274   -2.515017
     72          1           0        2.663637    1.262513   -3.470043
     73          1           0        3.147727   -0.402569   -3.755191
     74          1           0        5.972385    1.356862   -1.956304
     75          1           0        5.177221    1.361166   -3.528699
     76          1           0        6.955565   -0.189554   -3.700024
     77          1           0        5.464371   -1.106956   -3.699531
     78          1           0        6.897641    0.093986    1.034960
     79          1           0        4.893049    1.159172    1.126961
     80          1           0        6.957565   -2.401994    1.154437
     81          1           0        8.480763   -1.797338    0.536865
     82          1           0        6.818608   -4.147297   -0.504815
     83          1           0        8.485863   -4.173618    0.085907
     84          1           0        8.362583   -4.285002   -2.434457
     85          1           0        9.215728   -2.832383   -1.874591
     86          1           0        7.421707   -2.421258   -3.578324
     87          1           0       -2.114707    2.404955    1.312757
     88          1           0       -3.055823    3.053580    2.681229
 ---------------------------------------------------------------------

 SCF Done:  E(RB3LYP) =  -1734.84651577     A.U. after   15 cycles

 Excitation energies and oscillator strengths:

 Excited state symmetry could not be determined.
 Excited State   1:      Triplet-?Sym    2.6740 eV  463.67 nm  f=0.0000  <S**2>=2.000
     147 ->151         0.15602
     147 ->154         0.12169
     149 ->151         0.65371
     149 ->154        -0.13673
 This state for optimization and/or second-order correction.
 Total Energy, E(TD-HF/TD-DFT) =  -1734.74824937
 Copying the excited state density for this state as the 1-particle RhoCI density.

 Excited state symmetry could not be determined.
 Excited State   2:      Triplet-?Sym    3.5318 eV  351.05 nm  f=0.0000  <S**2>=2.000
     147 ->151         0.55019
     147 ->154         0.16283
     149 ->154         0.35823

 Excited state symmetry could not be determined.
 Excited State   3:      Singlet-?Sym    4.0894 eV  303.19 nm  f=0.2241  <S**2>=0.000
     149 ->151         0.69516

 Excited state symmetry could not be determined.
 Excited State   4:      Singlet-?Sym    4.1798 eV  296.63 nm  f=0.0001  <S**2>=0.000
     149 ->150         0.70668

 Alpha  occ. eigenvalues --  -19.19533 -19.14072 -19.13828 -19.13467 -14.33027
 Alpha  occ. eigenvalues --  -14.32406 -10.30908 -10.24223 -10.23323 -10.23020
 Alpha  occ. eigenvalues --  -10.22471 -10.22067 -10.21914 -10.21033 -10.20929
 Alpha  occ. eigenvalues --  -10.20288 -10.19989 -10.19733 -10.19282 -10.18676
 Alpha  occ. eigenvalues --  -10.18609 -10.18520 -10.18413 -10.18389 -10.18376
 Alpha  occ. eigenvalues --  -10.17846 -10.17801 -10.17773 -10.17656 -10.17397
 Alpha  occ. eigenvalues --  -10.17273 -10.17228 -10.17097 -10.17005 -10.16792
 Alpha  occ. eigenvalues --  -10.16743 -10.16658 -10.16590 -10.16421 -10.16349
 Alpha  occ. eigenvalues --   -1.10135  -1.02123  -1.01968  -1.01247  -0.93141
 Alpha  occ. eigenvalues --   -0.92305  -0.85641  -0.82147  -0.79997  -0.79839
 Alpha  occ. eigenvalues --   -0.78745  -0.78490  -0.76530  -0.75308  -0.75064
 Alpha  occ. eigenvalues --   -0.74329  -0.73384  -0.73114  -0.72173  -0.70574
 Alpha  occ. eigenvalues --   -0.70365  -0.68166  -0.65764  -0.64617  -0.64168
 Alpha  occ. eigenvalues --   -0.63468  -0.63033  -0.62112  -0.60254  -0.59120
 Alpha  occ. eigenvalues --   -0.58601  -0.57890  -0.57095  -0.56239  -0.56043
 Alpha  occ. eigenvalues --   -0.55888  -0.53416  -0.51772  -0.51140  -0.51011
 Alpha  occ. eigenvalues --   -0.49790  -0.49437  -0.49323  -0.48435  -0.48004
 Alpha  occ. eigenvalues --   -0.47686  -0.46930  -0.46741  -0.46368  -0.45826
 Alpha  occ. eigenvalues --   -0.45463  -0.45128  -0.44862  -0.44582  -0.44308
 Alpha  occ. eigenvalues --   -0.43759  -0.43370  -0.42943  -0.42068  -0.41707
 Alpha  occ. eigenvalues --   -0.41384  -0.41026  -0.40886  -0.40755  -0.40444
 Alpha  occ. eigenvalues --   -0.40326  -0.39865  -0.39360  -0.39094  -0.38766
 Alpha  occ. eigenvalues --   -0.38496  -0.38004  -0.37969  -0.37603  -0.36863
 Alpha  occ. eigenvalues --   -0.36656  -0.36410  -0.36073  -0.35890  -0.35612
 Alpha  occ. eigenvalues --   -0.35136  -0.34853  -0.34719  -0.34664  -0.34280
 Alpha  occ. eigenvalues --   -0.33762  -0.33423  -0.32994  -0.32726  -0.32560
 Alpha  occ. eigenvalues --   -0.32281  -0.31889  -0.31753  -0.31513  -0.31058
 Alpha  occ. eigenvalues --   -0.30277  -0.29740  -0.29629  -0.28861  -0.28252
 Alpha  occ. eigenvalues --   -0.27771  -0.25190  -0.24488  -0.24258  -0.24206
 Alpha  occ. eigenvalues --   -0.23547  -0.20763  -0.20326  -0.16789
 Alpha virt. eigenvalues --   -0.00573   0.00123   0.00145   0.01394   0.04752
 Alpha virt. eigenvalues --    0.07198   0.07929   0.08621   0.09048   0.09135
 Alpha virt. eigenvalues --    0.09415   0.10177   0.10584   0.10851   0.11029

 Mulliken charges:
               1
     1  C   -0.221848
     2  O   -0.445103
     3  C    0.588430
     4  O   -0.470481
     5  C   -0.120010
     6  C    0.081498
     7  C   -0.175432
     8  C   -0.136153
     9  C   -0.124148
    10  C   -0.192060
    11  C    0.135340
    12  C   -0.176246
    13  C   -0.316044
    14  C   -0.032466
    15  O   -0.475454
    16  C   -0.034154
    17  C   -0.288530
    18  N   -0.399087
    19  C   -0.114942
    20  C   -0.315356
    21  C    0.155859
    22  O   -0.494805
    23  C   -0.026111
    24  C   -0.300177
    25  C   -0.261564
    26  C   -0.362280
    27  C    0.105989
    28  C    0.117568
    29  C   -0.532233
    30  C   -0.330242
    31  C   -0.353278
    32  C    0.309823
    33  C    0.055194
    34  C   -0.187156
    35  C   -0.197100
    36  C   -0.330596
    37  C   -0.270218
    38  C   -0.123387
    39  N   -0.617586
    40  C   -0.138144
    41  H    0.171735
    42  H    0.164308
    43  H    0.172188
    44  H    0.170276
    45  H    0.134968
    46  H    0.127923
    47  H    0.127519
    48  H    0.124434
    49  H    0.183839
    50  H    0.132970
    51  H    0.154693
    52  H    0.170411
    53  H    0.122258
    54  H    0.121195
    55  H    0.147358
    56  H    0.135778
    57  H    0.145021
    58  H    0.149610
    59  H    0.134607
    60  H    0.138709
    61  H    0.165989
    62  H    0.111845
    63  H    0.117150
    64  H    0.146910
    65  H    0.177240
    66  H    0.125428
    67  H    0.139030
    68  H    0.128470
    69  H    0.138058
    70  H    0.170534
    71  H    0.173629
    72  H    0.148577
    73  H    0.145627
    74  H    0.159080
    75  H    0.125447
    76  H    0.133636
    77  H    0.150836
    78  H    0.109588
    79  H    0.112818
    80  H    0.145089
    81  H    0.136582
    82  H    0.152007
    83  H    0.131383
    84  H    0.136889
    85  H    0.128005
    86  H    0.307887
    87  H    0.154537
    88  H    0.110619
 Sum of Mulliken charges =  -0.00000

 Dipole moment (field-independent basis, Debye):
    X=             -0.0358    Y=             -0.8416    Z=              0.7098  Tot=              1.1015
 Quadrupole moment (field-independent basis, Debye-Ang):
   XX=           -216.3340   YY=           -233.6557   ZZ=           -224.1151
   XY=             -5.4542   XZ=            -20.6133   YZ=             16.2125

 Normal termination of Gaussian 16 at Sat Nov  5 12:25:27 2022.
