 Gaussian 16, Revision B.01,
 Gaussian 16:  ES64L-G16RevB.01 20-Dec-2017

 -----------------------------
 #p b3lyp/6-31g(d) opt SCF=XQC
 -----------------------------

 ------------------------------
 Gaussian input prepared by ASE
 ------------------------------
 Symbolic Z-matrix:
 Charge =  0 Multiplicity = 1

 SCF Done:  E(RB3LYP) =  -1734.83420285     A.U. after   14 cycles
 SCF Done:  E(RB3LYP) =  -1734.83769646     A.U. after   14 cycles
 SCF Done:  E(RB3LYP) =  -1734.84228513     A.U. after   15 cycles
 SCF Done:  E(RB3LYP) =  -1734.83993778     A.U. after   14 cycles
 SCF Done:  E(RB3LYP) =  -1734.84111802     A.U. after   13 cycles
 SCF Done:  E(RB3LYP) =  -1734.84419644     A.U. after   11 cycles
 SCF Done:  E(RB3LYP) =  -1734.84413094     A.U. after   12 cycles
 SCF Done:  E(RB3LYP) =  -1734.84583756     A.U. after   12 cycles
 SCF Done:  E(RB3LYP) =  -1734.84578539     A.U. after   12 cycles
 SCF Done:  E(RB3LYP) =  -1734.84599522     A.U. after   13 cycles
 SCF Done:  E(RB3LYP) =  -1734.84652259     A.U. after    9 cycles
 SCF Done:  E(RB3LYP) =  -1734.84652050     A.U. after   10 cycles
 SCF Done:  E(RB3LYP) =  -1734.84652113     A.U. after   10 cycles
 SCF Done:  E(RB3LYP) =  -1734.84652310     A.U. after    9 cycles
 SCF Done:  E(RB3LYP) =  -1734.84652321     A.U. after    7 cycles
 SCF Done:  E(RB3LYP) =  -1734.84652319     A.U. after    7 cycles
 SCF Done:  E(RB3LYP) =  -1734.84652326     A.U. after    7 cycles
 SCF Done:  E(RB3LYP) =  -1734.84652326     A.U. after    6 cycles
 SCF Done:  E(RB3LYP) =  -1734.84652328     A.U. after    6 cycles
 SCF Done:  E(RB3LYP) =  -1734.84652328     A.U. after    6 cycles
 Optimization completed.
    -- Stationary point found.

                         Standard orientation:
 ---------------------------------------------------------------------
 Center     Atomic      Atomic             Coordinates (Angstroms)
 Number     Number       Type             X           Y           Z
 ---------------------------------------------------------------------
      1          6           0       -7.410133   -2.662959    1.383987
      2          8           0       -6.424219   -1.911815    0.652161
      3          6           0       -5.691187   -1.046682    1.393960
      4          8           0       -5.848198   -0.900404    2.585755
      5          6           0       -4.617884   -0.299931    0.571025
      6          6           0       -5.136222    1.029241    0.008658
      7          6           0       -6.506676    1.232622   -0.194154
      8          6           0       -6.998862    2.445218   -0.675317
      9          6           0       -6.110168    3.478607   -0.961345
     10          6           0       -4.742632    3.280499   -0.776359
     11          6           0       -4.225540    2.066173   -0.303597
     12          6           0       -2.719472    1.901306   -0.147319
     13          6           0       -1.925834    2.252687   -1.422469
     14          6           0       -0.459845    1.806181   -1.239868
     15          8           0       -0.055559    1.782531    0.134920
     16          6           0       -0.605130    2.867781    0.873763
     17          6           0       -2.136373    2.721284    1.032972
     18          7           0       -3.914698   -1.071151   -0.434373
     19          6           0       -4.525487   -1.444967   -1.710133
     20          6           0       -3.413184   -2.278236   -2.394292
     21          6           0       -2.381806   -2.612732   -1.283843
     22          8           0       -1.215433   -1.836399   -1.535787
     23          6           0        0.015434   -2.301618   -0.985711
     24          6           0        0.280359   -1.843632    0.455201
     25          6           0        1.756829   -1.939378    0.881375
     26          6           0        2.682323   -0.938988    0.150448
     27          6           0        4.081426   -0.877783    0.746988
     28          6           0        4.449188    0.001036    1.707443
     29          6           0        3.575593    1.110977    2.240966
     30          6           0        5.801309   -0.098028    2.381721
     31          6           0        6.867151    0.810269    1.761807
     32          6           0        7.389423    0.482099    0.376614
     33          6           0        7.164249   -0.619245   -0.394369
     34          6           0        6.284592   -1.773279   -0.164228
     35          6           0        5.003165   -1.906025    0.250332
     36          6           0        7.928884   -0.782455   -1.714144
     37          6           0        8.553121    0.516717   -2.231364
     38          6           0        9.242118    1.247573   -1.084663
     39          7           0        8.255179    1.504423   -0.046464
     40          6           0       -3.123533   -2.208830    0.005020
     41          1           0       -8.136241   -1.991550    1.849554
     42          1           0       -7.895186   -3.303917    0.647409
     43          1           0       -6.932596   -3.262585    2.163064
     44          1           0       -3.877922   -0.057438    1.343664
     45          1           0       -7.203537    0.428679    0.021820
     46          1           0       -8.067371    2.577399   -0.822096
     47          1           0       -6.475365    4.433297   -1.330953
     48          1           0       -4.057148    4.091916   -1.007532
     49          1           0       -2.509116    0.847642    0.036458
     50          1           0       -1.981494    3.330891   -1.620852
     51          1           0       -2.352827    1.747520   -2.295449
     52          1           0       -0.337903    0.778640   -1.591455
     53          1           0        0.220427    2.457952   -1.811341
     54          1           0       -0.355487    3.819818    0.377150
     55          1           0       -0.099404    2.862913    1.843600
     56          1           0       -2.595322    3.717607    1.071583
     57          1           0       -2.382226    2.224686    1.979235
     58          1           0       -4.799738   -0.550541   -2.277369
     59          1           0       -5.434208   -2.052266   -1.577938
     60          1           0       -3.821307   -3.186074   -2.849016
     61          1           0       -2.896316   -1.714430   -3.174546
     62          1           0       -2.110138   -3.678482   -1.271748
     63          1           0        0.069801   -3.400603   -1.059717
     64          1           0        0.783100   -1.893548   -1.651299
     65          1           0       -0.047764   -0.800862    0.548453
     66          1           0       -0.327157   -2.438339    1.149970
     67          1           0        1.817192   -1.740171    1.958502
     68          1           0        2.127582   -2.965789    0.743564
     69          1           0        2.764755   -1.215354   -0.908140
     70          1           0        2.205612    0.046131    0.170766
     71          1           0        2.662109    1.274939    1.665350
     72          1           0        3.285233    0.911665    3.283268
     73          1           0        4.131529    2.060148    2.257148
     74          1           0        6.159037   -1.131161    2.379808
     75          1           0        5.694584    0.202053    3.434112
     76          1           0        7.741432    0.841547    2.435086
     77          1           0        6.486857    1.843001    1.736215
     78          1           0        6.723364   -2.694414   -0.558965
     79          1           0        4.569207   -2.901249    0.132631
     80          1           0        7.246959   -1.179794   -2.477181
     81          1           0        8.711746   -1.548557   -1.590870
     82          1           0        7.772915    1.168499   -2.642705
     83          1           0        9.268419    0.309337   -3.036012
     84          1           0        9.654361    2.208029   -1.415562
     85          1           0       10.083150    0.635948   -0.711210
     86          1           0        8.603523    2.072383    0.716236
     87          1           0       -2.450075   -1.923365    0.817142
     88          1           0       -3.744313   -3.059378    0.355027
 ---------------------------------------------------------------------

 The electronic state is 1-A.
 Alpha  occ. eigenvalues --  -19.19533 -19.14072 -19.13828 -19.13466 -14.33027
 Alpha  occ. eigenvalues --  -14.32406 -10.30908 -10.24223 -10.23323 -10.23020
 Alpha  occ. eigenvalues --  -10.22471 -10.22067 -10.21914 -10.21033 -10.20929
 Alpha  occ. eigenvalues --  -10.20288 -10.19989 -10.19733 -10.19282 -10.18676
 Alpha  occ. eigenvalues --  -10.18610 -10.18520 -10.18413 -10.18389 -10.18376
 Alpha  occ. eigenvalues --  -10.17846 -10.17801 -10.17773 -10.17656 -10.17397
 Alpha  occ. eigenvalues --  -10.17273 -10.17229 -10.17097 -10.17005 -10.16792
 Alpha  occ. eigenvalues --  -10.16744 -10.16658 -10.16590 -10.16421 -10.16349
 Alpha  occ. eigenvalues --   -1.10135  -1.02123  -1.01968  -1.01247  -0.93141
 Alpha  occ. eigenvalues --   -0.92305  -0.85641  -0.82147  -0.79997  -0.79839
 Alpha  occ. eigenvalues --   -0.78745  -0.78490  -0.76530  -0.75308  -0.75064
 Alpha  occ. eigenvalues --   -0.74329  -0.73384  -0.73114  -0.72173  -0.70574
 Alpha  occ. eigenvalues --   -0.70365  -0.68166  -0.65764  -0.64617  -0.64169
 Alpha  occ. eigenvalues --   -0.63468  -0.63033  -0.62112  -0.60254  -0.59120
 Alpha  occ. eigenvalues --   -0.58601  -0.57890  -0.57095  -0.56239  -0.56043
 Alpha  occ. eigenvalues --   -0.55888  -0.53416  -0.51772  -0.51140  -0.51011
 Alpha  occ. eigenvalues --   -0.49790  -0.49437  -0.49322  -0.48435  -0.48004
 Alpha  occ. eigenvalues --   -0.47686  -0.46930  -0.46741  -0.46368  -0.45826
 Alpha  occ. eigenvalues --   -0.45463  -0.45128  -0.44862  -0.44583  -0.44308
 Alpha  occ. eigenvalues --   -0.43759  -0.43370  -0.42943  -0.42068  -0.41707
 Alpha  occ. eigenvalues --   -0.41384  -0.41026  -0.40886  -0.40755  -0.40444
 Alpha  occ. eigenvalues --   -0.40326  -0.39865  -0.39360  -0.39094  -0.38766
 Alpha  occ. eigenvalues --   -0.38496  -0.38004  -0.37969  -0.37603  -0.36863
 Alpha  occ. eigenvalues --   -0.36656  -0.36410  -0.36073  -0.35890  -0.35612
 Alpha  occ. eigenvalues --   -0.35136  -0.34853  -0.34719  -0.34664  -0.34280
 Alpha  occ. eigenvalues --   -0.33762  -0.33423  -0.32994  -0.32726  -0.32560
 Alpha  occ. eigenvalues --   -0.32281  -0.31889  -0.31753  -0.31513  -0.31058
 Alpha  occ. eigenvalues --   -0.30277  -0.29740  -0.29629  -0.28861  -0.28251
 Alpha  occ. eigenvalues --   -0.27771  -0.25190  -0.24488  -0.24259  -0.24206
 Alpha  occ. eigenvalues --   -0.23547  -0.20764  -0.20326  -0.16789
 Alpha virt. eigenvalues --   -0.00573   0.00123   0.00145   0.01394   0.04752
 Alpha virt. eigenvalues --    0.07198   0.07929   0.08621   0.09048   0.09135
 Alpha virt. eigenvalues --    0.09415   0.10177   0.10584   0.10851   0.11029

 Mulliken charges:
               1
     1  C   -0.221841
     2  O   -0.445103
     3  C    0.588412
     4  O   -0.470484
     5  C   -0.119969
     6  C    0.081491
     7  C   -0.175428
     8  C   -0.136158
     9  C   -0.124146
    10  C   -0.192061
    11  C    0.135330
    12  C   -0.176266
    13  C   -0.316038
    14  C   -0.032469
    15  O   -0.475460
    16  C   -0.034138
    17  C   -0.288534
    18  N   -0.399104
    19  C   -0.114938
    20  C   -0.315374
    21  C    0.155922
    22  O   -0.494829
    23  C   -0.026110
    24  C   -0.300160
    25  C   -0.261576
    26  C   -0.362283
    27  C    0.106011
    28  C    0.117522
    29  C   -0.532254
    30  C   -0.330218
    31  C   -0.353287
    32  C    0.309863
    33  C    0.055169
    34  C   -0.187168
    35  C   -0.197085
    36  C   -0.330594
    37  C   -0.270208
    38  C   -0.123391
    39  N   -0.617590
    40  C   -0.138157
    41  H    0.171734
    42  H    0.164306
    43  H    0.172188
    44  H    0.170274
    45  H    0.134962
    46  H    0.127924
    47  H    0.127519
    48  H    0.124436
    49  H    0.183864
    50  H    0.132971
    51  H    0.154692
    52  H    0.170412
    53  H    0.122257
    54  H    0.121193
    55  H    0.147357
    56  H    0.135779
    57  H    0.145019
    58  H    0.149607
    59  H    0.134611
    60  H    0.138712
    61  H    0.165984
    62  H    0.111841
    63  H    0.117149
    64  H    0.146909
    65  H    0.177233
    66  H    0.125428
    67  H    0.139032
    68  H    0.128471
    69  H    0.138059
    70  H    0.170537
    71  H    0.173639
    72  H    0.148579
    73  H    0.145631
    74  H    0.159077
    75  H    0.125447
    76  H    0.133636
    77  H    0.150837
    78  H    0.109588
    79  H    0.112816
    80  H    0.145088
    81  H    0.136583
    82  H    0.152006
    83  H    0.131382
    84  H    0.136888
    85  H    0.128004
    86  H    0.307888
    87  H    0.154535
    88  H    0.110618
 Sum of Mulliken charges =  -0.00000

 Dipole moment (field-independent basis, Debye):
    X=             -0.0057    Y=              0.0497    Z=             -1.1003  Tot=              1.1015
 Quadrupole moment (field-independent basis, Debye-Ang):
   XX=           -206.4234   YY=           -222.5519   ZZ=           -245.0597
   XY=             17.1547   XZ=             10.6346   YZ=              0.6962

 Normal termination of Gaussian 16 at Fri Nov  4 20:58:06 2022.
