 Gaussian 16, Revision B.01,
 Gaussian 16:  ES64L-G16RevB.01 20-Dec-2017

 -------------------------------------------------------------------
 #p b3lyp/6-31g(d) 6D 10F nosymm GFInput td=(50-50,nstate=2) SCF=XQC
 -------------------------------------------------------------------

 ------------------------------
 Gaussian input prepared by ASE
 ------------------------------
 Symbolic Z-matrix:
 Charge =  0 Multiplicity = 1

                          Input orientation:
 ---------------------------------------------------------------------
 Center     Atomic      Atomic             Coordinates (Angstroms)
 Number     Number       Type             X           Y           Z
 ---------------------------------------------------------------------
      1          6           0        6.956189    2.784852    4.809298
      2          8           0        6.984820    2.261466    3.469777
      3          6           0        7.565835    1.052262    3.330654
      4          8           0        8.027168    0.417710    4.255263
      5          6           0        7.539061    0.587303    1.884155
      6          6           0        8.137662    1.600622    0.879106
      7          6           0        7.701697    1.222817   -0.554165
      8          8           0        6.773333    1.862344   -1.072479
      9          7           0        8.294631    0.192551   -1.209325
     10          6           0        9.430122   -0.646680   -0.772334
     11          6           0        9.537465   -1.707487   -1.875605
     12          6           0        9.070383   -0.959962   -3.132383
     13          6           0        7.906048   -0.096739   -2.621717
     14          6           0        6.576560   -0.804146   -2.716161
     15          7           0        6.374153   -2.043298   -3.143847
     16          6           0        5.024865   -2.243545   -3.059207
     17          6           0        4.383881   -1.111153   -2.570916
     18          6           0        3.030425   -0.834313   -2.307073
     19          6           0        1.858287   -0.596758   -2.076713
     20          6           0        0.485436   -0.337037   -1.814800
     21          6           0       -0.493953   -1.346753   -2.075688
     22          6           0       -1.823091   -1.113735   -1.827417
     23          6           0       -2.269769    0.132505   -1.304676
     24          6           0       -3.637549    0.390413   -1.044917
     25          6           0       -4.061304    1.611385   -0.538854
     26          6           0       -5.466463    1.910938   -0.273484
     27          6           0       -6.115404    3.120007   -0.091053
     28          7           0       -7.454918    2.935804    0.114596
     29          6           0       -7.646669    1.626922    0.065578
     30          6           0       -9.001007    0.964575    0.227595
     31          6           0      -10.073589    1.984973    0.652359
     32          6           0       -9.885854    2.074129    2.177140
     33          6           0       -9.489884    0.645868    2.601264
     34          7           0       -9.045655   -0.002295    1.348846
     35          6           0       -8.939074   -1.354657    1.305647
     36          8           0       -9.061057   -2.050382    2.316975
     37          6           0       -8.684472   -2.040716   -0.051943
     38          7           0       -7.764485   -3.152608    0.160916
     39          6           0       -6.422713   -2.936315    0.063862
     40          8           0       -5.899741   -1.942838   -0.437907
     41          8           0       -5.727122   -3.977903    0.558501
     42          6           0       -4.296977   -3.856519    0.496403
     43          6           0      -10.011509   -2.505481   -0.717039
     44          6           0       -9.760858   -2.940692   -2.168172
     45          6           0      -10.738028   -3.603585    0.075166
     46          7           0       -6.474263    0.962999   -0.175437
     47          6           0       -3.080001    2.617826   -0.281039
     48          6           0       -1.749380    2.395734   -0.528160
     49          6           0       -1.295678    1.150328   -1.046210
     50          6           0        0.068714    0.889800   -1.306939
     51          7           0        5.409430   -0.199833   -2.367134
     52          6           0        9.627385    1.902501    1.020176
     53          6           0       10.181033    2.882770    0.179867
     54          6           0       11.530548    3.218637    0.259694
     55          6           0       12.356279    2.584453    1.192064
     56          6           0       11.816373    1.618252    2.038918
     57          6           0       10.462860    1.277298    1.953957
     58          1           0        6.393448    2.118377    5.467898
     59          1           0        7.972052    2.895774    5.197014
     60          1           0        6.465059    3.754994    4.732586
     61          1           0        6.487758    0.433319    1.610841
     62          1           0        8.034813   -0.384899    1.852638
     63          1           0        7.598011    2.538508    1.038511
     64          1           0        9.245851   -1.083593    0.212294
     65          1           0       10.343027   -0.044968   -0.709052
     66          1           0       10.553907   -2.102923   -1.959958
     67          1           0        8.857924   -2.541676   -1.674489
     68          1           0        8.749678   -1.631494   -3.929699
     69          1           0        9.866397   -0.308678   -3.511000
     70          1           0        7.832881    0.861745   -3.145936
     71          1           0        4.565592   -3.178123   -3.350722
     72          1           0       -0.164473   -2.300486   -2.476172
     73          1           0       -2.560881   -1.885503   -2.034058
     74          1           0       -4.352479   -0.398081   -1.255547
     75          1           0       -5.687652    4.112932   -0.121017
     76          1           0       -9.282972    0.458899   -0.701080
     77          1           0       -9.942462    2.944810    0.152346
     78          1           0      -11.060748    1.577904    0.404514
     79          1           0       -9.082277    2.781047    2.400121
     80          1           0      -10.788949    2.414025    2.692470
     81          1           0      -10.326562    0.069333    3.008438
     82          1           0       -8.690236    0.626902    3.348654
     83          1           0       -8.179818   -1.369456   -0.746417
     84          1           0       -8.041568   -3.807139    0.884105
     85          1           0       -3.956833   -3.853204   -0.542693
     86          1           0       -3.963528   -2.939618    0.987761
     87          1           0       -3.912278   -4.733416    1.017397
     88          1           0      -10.662046   -1.618298   -0.734466
     89          1           0      -10.699471   -3.239103   -2.648425
     90          1           0       -9.076354   -3.795243   -2.204653
     91          1           0       -9.321355   -2.131126   -2.763185
     92          1           0      -10.171751   -4.542981    0.053836
     93          1           0      -11.715468   -3.806117   -0.376468
     94          1           0      -10.888998   -3.322121    1.120628
     95          1           0       -6.334863   -0.047985   -0.217635
     96          1           0       -3.396683    3.569281    0.135090
     97          1           0       -1.019265    3.174407   -0.320636
     98          1           0        0.804083    1.664466   -1.107800
     99          1           0        5.367304    0.731192   -1.960438
    100          1           0        9.542009    3.386735   -0.542397
    101          1           0       11.936872    3.979209   -0.401887
    102          1           0       13.408634    2.846648    1.259250
    103          1           0       12.445822    1.123024    2.773552
    104          1           0       10.068673    0.528094    2.632851
 ---------------------------------------------------------------------

 SCF Done:  E(RB3LYP) =  -2539.65240010     A.U. after   15 cycles

 Excitation energies and oscillator strengths:

 Excited state symmetry could not be determined.
 Excited State   1:      Triplet-?Sym    2.1833 eV  567.87 nm  f=0.0000  <S**2>=2.000
     202 ->205        -0.14637
     202 ->206         0.15187
     203 ->209        -0.11937
     204 ->205         0.65014
 This state for optimization and/or second-order correction.
 Total Energy, E(TD-HF/TD-DFT) =  -2539.57216473
 Copying the excited state density for this state as the 1-particle RhoCI density.

 Excited state symmetry could not be determined.
 Excited State   2:      Triplet-?Sym    2.9670 eV  417.87 nm  f=0.0000  <S**2>=2.000
     202 ->205         0.15667
     202 ->206        -0.11995
     203 ->205         0.50862
     204 ->206         0.25631
     204 ->209        -0.28155
     204 ->211        -0.10799

 Excited state symmetry could not be determined.
 Excited State   3:      Singlet-?Sym    3.3139 eV  374.14 nm  f=1.2802  <S**2>=0.000
     204 ->205         0.69484

 Excited state symmetry could not be determined.
 Excited State   4:      Singlet-?Sym    3.7269 eV  332.67 nm  f=0.2102  <S**2>=0.000
     202 ->205        -0.35360
     204 ->206         0.58907

 Alpha  occ. eigenvalues --  -19.20351 -19.20026 -19.14458 -19.14263 -19.12322
 Alpha  occ. eigenvalues --  -19.11581 -14.37807 -14.37745 -14.37478 -14.37136
 Alpha  occ. eigenvalues --  -14.36973 -14.31220 -14.30918 -10.35143 -10.32255
 Alpha  occ. eigenvalues --  -10.29646 -10.28738 -10.24943 -10.24734 -10.24550
 Alpha  occ. eigenvalues --  -10.24178 -10.24137 -10.24083 -10.24049 -10.23085
 Alpha  occ. eigenvalues --  -10.22919 -10.21894 -10.21751 -10.21603 -10.21406
 Alpha  occ. eigenvalues --  -10.21219 -10.20927 -10.20842 -10.20359 -10.19983
 Alpha  occ. eigenvalues --  -10.19797 -10.19707 -10.19633 -10.19630 -10.19596
 Alpha  occ. eigenvalues --  -10.19583 -10.19506 -10.19440 -10.19296 -10.19289
 Alpha  occ. eigenvalues --  -10.19268 -10.19240 -10.19116 -10.19043 -10.19023
 Alpha  occ. eigenvalues --  -10.18943 -10.18900 -10.18784 -10.18632 -10.18461
 Alpha  occ. eigenvalues --  -10.18278 -10.17922  -1.12106  -1.10888  -1.04240
 Alpha  occ. eigenvalues --   -1.03788  -1.02668  -1.02014  -1.01020  -1.00740
 Alpha  occ. eigenvalues --   -0.94786  -0.94689  -0.94197  -0.87509  -0.86684
 Alpha  occ. eigenvalues --   -0.86605  -0.86443  -0.83113  -0.82205  -0.81646
 Alpha  occ. eigenvalues --   -0.79879  -0.79694  -0.78791  -0.77774  -0.77427
 Alpha  occ. eigenvalues --   -0.76100  -0.75918  -0.75033  -0.74694  -0.74449
 Alpha  occ. eigenvalues --   -0.72406  -0.72342  -0.71722  -0.70344  -0.69521
 Alpha  occ. eigenvalues --   -0.69105  -0.68157  -0.65345  -0.64854  -0.63525
 Alpha  occ. eigenvalues --   -0.62206  -0.61209  -0.61095  -0.60969  -0.60830
 Alpha  occ. eigenvalues --   -0.60122  -0.60041  -0.59681  -0.59329  -0.58725
 Alpha  occ. eigenvalues --   -0.58308  -0.57672  -0.57160  -0.57073  -0.56560
 Alpha  occ. eigenvalues --   -0.55776  -0.54071  -0.53697  -0.53191  -0.52564
 Alpha  occ. eigenvalues --   -0.51773  -0.50703  -0.50310  -0.50093  -0.49740
 Alpha  occ. eigenvalues --   -0.49673  -0.49431  -0.49215  -0.48468  -0.47977
 Alpha  occ. eigenvalues --   -0.47237  -0.46630  -0.46404  -0.46255  -0.46027
 Alpha  occ. eigenvalues --   -0.45845  -0.45627  -0.45354  -0.44762  -0.44555
 Alpha  occ. eigenvalues --   -0.44537  -0.44028  -0.43831  -0.43411  -0.43376
 Alpha  occ. eigenvalues --   -0.43277  -0.42818  -0.42598  -0.42320  -0.42195
 Alpha  occ. eigenvalues --   -0.42005  -0.41756  -0.41644  -0.41322  -0.41284
 Alpha  occ. eigenvalues --   -0.41234  -0.40961  -0.40906  -0.40760  -0.40349
 Alpha  occ. eigenvalues --   -0.39820  -0.39420  -0.39074  -0.38941  -0.38505
 Alpha  occ. eigenvalues --   -0.38006  -0.37955  -0.37460  -0.37121  -0.37076
 Alpha  occ. eigenvalues --   -0.36967  -0.36376  -0.35880  -0.35854  -0.35823
 Alpha  occ. eigenvalues --   -0.35362  -0.35232  -0.34992  -0.34785  -0.34708
 Alpha  occ. eigenvalues --   -0.34638  -0.34408  -0.34236  -0.33979  -0.33955
 Alpha  occ. eigenvalues --   -0.33332  -0.32917  -0.31502  -0.30834  -0.30658
 Alpha  occ. eigenvalues --   -0.30023  -0.28673  -0.28388  -0.28137  -0.28048
 Alpha  occ. eigenvalues --   -0.27915  -0.27296  -0.26706  -0.26330  -0.26063
 Alpha  occ. eigenvalues --   -0.25787  -0.25697  -0.25094  -0.24998  -0.24586
 Alpha  occ. eigenvalues --   -0.24504  -0.22303  -0.21024  -0.18374
 Alpha virt. eigenvalues --   -0.05157  -0.02247  -0.01590  -0.01222  -0.00080
 Alpha virt. eigenvalues --    0.00372   0.01264   0.01563   0.02645   0.03297
 Alpha virt. eigenvalues --    0.04218   0.04372   0.05106   0.06868   0.07376

 Mulliken charges:
               1
     1  C   -0.220081
     2  O   -0.441575
     3  C    0.627870
     4  O   -0.481556
     5  C   -0.379900
     6  C   -0.251496
     7  C    0.592376
     8  O   -0.564721
     9  N   -0.436134
    10  C   -0.133308
    11  C   -0.304318
    12  C   -0.292269
    13  C   -0.065879
    14  C    0.522256
    15  N   -0.496740
    16  C   -0.035162
    17  C    0.085898
    18  C    0.232819
    19  C   -0.185628
    20  C    0.026756
    21  C   -0.143586
    22  C   -0.200196
    23  C    0.131711
    24  C   -0.285386
    25  C    0.121878
    26  C    0.257501
    27  C   -0.076990
    28  N   -0.494159
    29  C    0.528754
    30  C   -0.111476
    31  C   -0.268916
    32  C   -0.316828
    33  C   -0.108506
    34  N   -0.437820
    35  C    0.602381
    36  O   -0.542297
    37  C   -0.077477
    38  N   -0.597542
    39  C    0.804805
    40  O   -0.536667
    41  O   -0.466499
    42  C   -0.218327
    43  C   -0.079478
    44  C   -0.448342
    45  C   -0.469468
    46  N   -0.726104
    47  C   -0.176456
    48  C   -0.204491
    49  C    0.158822
    50  C   -0.231582
    51  N   -0.648603
    52  C    0.146547
    53  C   -0.182057
    54  C   -0.131525
    55  C   -0.128561
    56  C   -0.134472
    57  C   -0.205729
    58  H    0.173296
    59  H    0.174291
    60  H    0.168898
    61  H    0.191617
    62  H    0.177923
    63  H    0.199073
    64  H    0.161271
    65  H    0.175811
    66  H    0.151080
    67  H    0.178143
    68  H    0.187595
    69  H    0.143536
    70  H    0.174594
    71  H    0.140402
    72  H    0.137566
    73  H    0.134703
    74  H    0.170340
    75  H    0.135228
    76  H    0.164370
    77  H    0.186702
    78  H    0.138004
    79  H    0.177918
    80  H    0.148936
    81  H    0.167164
    82  H    0.166939
    83  H    0.157680
    84  H    0.357080
    85  H    0.170126
    86  H    0.181037
    87  H    0.172746
    88  H    0.134288
    89  H    0.148502
    90  H    0.160161
    91  H    0.143420
    92  H    0.143958
    93  H    0.146651
    94  H    0.179077
    95  H    0.398632
    96  H    0.134377
    97  H    0.132416
    98  H    0.138319
    99  H    0.368990
   100  H    0.144692
   101  H    0.134612
   102  H    0.132976
   103  H    0.136366
   104  H    0.156423
 Sum of Mulliken charges =  -0.00000

 Dipole moment (field-independent basis, Debye):
    X=              1.3246    Y=             -0.0468    Z=              0.6663  Tot=              1.4835
 Quadrupole moment (field-independent basis, Debye-Ang):
   XX=           -256.3027   YY=           -322.0576   ZZ=           -340.1179
   XY=             25.1296   XZ=             11.5029   YZ=             11.9809

 Normal termination of Gaussian 16 at Sat Nov  5 12:25:28 2022.
