 Gaussian 16, Revision B.01,
 Gaussian 16:  ES64L-G16RevB.01 20-Dec-2017

 -----------------------------
 #p b3lyp/6-31g(d) opt SCF=XQC
 -----------------------------

 ------------------------------
 Gaussian input prepared by ASE
 ------------------------------
 Symbolic Z-matrix:
 Charge =  0 Multiplicity = 1

 SCF Done:  E(RB3LYP) =  -1795.81041872     A.U. after   14 cycles
 SCF Done:  E(RB3LYP) =  -1795.81683415     A.U. after   14 cycles
 SCF Done:  E(RB3LYP) =  -1795.81950731     A.U. after   12 cycles
 SCF Done:  E(RB3LYP) =  -1795.82044091     A.U. after   11 cycles
 SCF Done:  E(RB3LYP) =  -1795.82090306     A.U. after   12 cycles
 SCF Done:  E(RB3LYP) =  -1795.82114121     A.U. after   11 cycles
 SCF Done:  E(RB3LYP) =  -1795.82127869     A.U. after   11 cycles
 SCF Done:  E(RB3LYP) =  -1795.82136812     A.U. after   11 cycles
 SCF Done:  E(RB3LYP) =  -1795.82143878     A.U. after   11 cycles
 SCF Done:  E(RB3LYP) =  -1795.82153298     A.U. after   10 cycles
 SCF Done:  E(RB3LYP) =  -1795.82181495     A.U. after   10 cycles
 SCF Done:  E(RB3LYP) =  -1795.82181584     A.U. after    7 cycles
 SCF Done:  E(RB3LYP) =  -1795.82182109     A.U. after   10 cycles
 SCF Done:  E(RB3LYP) =  -1795.82182800     A.U. after   10 cycles
 SCF Done:  E(RB3LYP) =  -1795.82183056     A.U. after    9 cycles
 SCF Done:  E(RB3LYP) =  -1795.82183171     A.U. after    7 cycles
 SCF Done:  E(RB3LYP) =  -1795.82183255     A.U. after    9 cycles
 SCF Done:  E(RB3LYP) =  -1795.82183275     A.U. after    7 cycles
 SCF Done:  E(RB3LYP) =  -1795.82183286     A.U. after    7 cycles
 SCF Done:  E(RB3LYP) =  -1795.82183289     A.U. after    6 cycles
 Optimization completed.
    -- Stationary point found.

                         Standard orientation:
 ---------------------------------------------------------------------
 Center     Atomic      Atomic             Coordinates (Angstroms)
 Number     Number       Type             X           Y           Z
 ---------------------------------------------------------------------
      1          6           0        7.093611   -2.445325    1.661788
      2          8           0        5.933401   -1.729796    1.276122
      3          6           0        5.999162   -0.919953    0.175182
      4          6           0        7.167058   -0.746054   -0.583334
      5          6           0        7.141590    0.103311   -1.687259
      6          6           0        5.982063    0.783761   -2.054030
      7          6           0        4.827046    0.598084   -1.285626
      8          8           0        3.628655    1.197805   -1.547129
      9          6           0        3.486691    2.023345   -2.690979
     10          6           0        4.813043   -0.246408   -0.160741
     11          6           0        3.537787   -0.400061    0.637730
     12          7           0        2.530988   -1.159278   -0.138550
     13          7           0        1.289072   -1.223556    0.574617
     14         15           0        0.009404   -0.183151    0.158161
     15          8           0        0.402813    0.788734   -0.916030
     16          6           0       -0.616141    0.601176    1.692141
     17          6           0        0.327277    1.643230    2.334568
     18          6           0        0.382085    2.951130    1.531168
     19          6           0       -0.101623    1.908334    3.786261
     20          7           0       -1.198272   -1.342679   -0.218970
     21          7           0       -2.492335   -0.902844   -0.656918
     22          6           0       -3.497828   -0.989508    0.416931
     23          6           0       -4.823134   -0.445318   -0.066584
     24          6           0       -5.911312   -1.288217   -0.354847
     25          8           0       -5.693396   -2.623976   -0.167108
     26          6           0       -6.744966   -3.531256   -0.450921
     27          6           0       -7.135445   -0.762581   -0.793748
     28          6           0       -7.265892    0.614710   -0.951742
     29          6           0       -6.207383    1.479928   -0.682935
     30          6           0       -4.992998    0.938485   -0.245313
     31          8           0       -3.882595    1.696767    0.033844
     32          6           0       -3.958413    3.105034   -0.136648
     33          1           0        6.808740   -3.021684    2.544289
     34          1           0        7.426647   -3.132893    0.873091
     35          1           0        7.919674   -1.770093    1.922358
     36          1           0        8.083220   -1.262446   -0.324324
     37          1           0        8.045988    0.236585   -2.275207
     38          1           0        5.981483    1.438627   -2.917271
     39          1           0        2.436293    2.317071   -2.700718
     40          1           0        4.124711    2.914801   -2.625377
     41          1           0        3.724892    1.476510   -3.612811
     42          1           0        3.160588    0.597599    0.911118
     43          1           0        3.735174   -0.953388    1.556400
     44          1           0        2.355513   -0.634435   -0.996610
     45          1           0        1.033126   -2.183843    0.778014
     46          1           0       -1.584610    1.063684    1.460296
     47          1           0       -0.812395   -0.216544    2.396184
     48          1           0        1.337212    1.210643    2.359759
     49          1           0       -0.602847    3.439454    1.526043
     50          1           0        1.094284    3.652271    1.982706
     51          1           0        0.676367    2.767530    0.494708
     52          1           0       -1.121458    2.313228    3.827097
     53          1           0       -0.081531    0.990954    4.386653
     54          1           0        0.564196    2.637374    4.263463
     55          1           0       -0.838940   -2.008754   -0.901697
     56          1           0       -2.433821    0.053741   -1.004913
     57          1           0       -3.601508   -2.042183    0.681875
     58          1           0       -3.197498   -0.444159    1.323830
     59          1           0       -6.344683   -4.525006   -0.241399
     60          1           0       -7.619578   -3.351184    0.188195
     61          1           0       -7.050788   -3.478959   -1.503976
     62          1           0       -7.975083   -1.410686   -1.012571
     63          1           0       -8.213084    1.023288   -1.293612
     64          1           0       -6.331784    2.547270   -0.817951
     65          1           0       -4.190146    3.371103   -1.175599
     66          1           0       -4.709946    3.549631    0.528245
     67          1           0       -2.970329    3.489315    0.122073
 ---------------------------------------------------------------------

 The electronic state is 1-A.
 Alpha  occ. eigenvalues --  -77.16767 -19.18277 -19.17631 -19.16964 -19.16732
 Alpha  occ. eigenvalues --  -19.08124 -14.34428 -14.33991 -14.33899 -14.33037
 Alpha  occ. eigenvalues --  -10.24747 -10.24716 -10.24247 -10.24046 -10.23906
 Alpha  occ. eigenvalues --  -10.23701 -10.23530 -10.22784 -10.19775 -10.19221
 Alpha  occ. eigenvalues --  -10.18778 -10.18595 -10.18498 -10.18432 -10.18210
 Alpha  occ. eigenvalues --  -10.18127 -10.17951 -10.17538 -10.17337 -10.17314
 Alpha  occ. eigenvalues --  -10.16771 -10.15726  -6.62037  -4.78432  -4.78305
 Alpha  occ. eigenvalues --   -4.78160  -1.06614  -1.06245  -1.05617  -1.05373
 Alpha  occ. eigenvalues --   -0.97446  -0.94536  -0.92363  -0.84993  -0.84096
 Alpha  occ. eigenvalues --   -0.80732  -0.79450  -0.78390  -0.75451  -0.75279
 Alpha  occ. eigenvalues --   -0.74440  -0.73837  -0.70388  -0.69626  -0.69420
 Alpha  occ. eigenvalues --   -0.68911  -0.68094  -0.67068  -0.64816  -0.63806
 Alpha  occ. eigenvalues --   -0.58953  -0.58520  -0.58053  -0.57698  -0.57377
 Alpha  occ. eigenvalues --   -0.55092  -0.53820  -0.52906  -0.50951  -0.49932
 Alpha  occ. eigenvalues --   -0.49528  -0.49175  -0.48598  -0.48186  -0.47681
 Alpha  occ. eigenvalues --   -0.47288  -0.46754  -0.46654  -0.46543  -0.46039
 Alpha  occ. eigenvalues --   -0.45530  -0.45173  -0.44663  -0.44420  -0.43517
 Alpha  occ. eigenvalues --   -0.43360  -0.42597  -0.42041  -0.41358  -0.40798
 Alpha  occ. eigenvalues --   -0.40600  -0.39796  -0.39406  -0.38631  -0.38264
 Alpha  occ. eigenvalues --   -0.37910  -0.37751  -0.37411  -0.37140  -0.36704
 Alpha  occ. eigenvalues --   -0.36647  -0.35900  -0.35193  -0.34641  -0.34236
 Alpha  occ. eigenvalues --   -0.33794  -0.33322  -0.32847  -0.32608  -0.32312
 Alpha  occ. eigenvalues --   -0.31809  -0.31702  -0.30781  -0.30276  -0.29363
 Alpha  occ. eigenvalues --   -0.28841  -0.26557  -0.25265  -0.24109  -0.22191
 Alpha  occ. eigenvalues --   -0.21904  -0.21606  -0.21469  -0.20717  -0.20629
 Alpha virt. eigenvalues --    0.00007   0.00827   0.02243   0.03150   0.06577
 Alpha virt. eigenvalues --    0.08089   0.08656   0.08784   0.09685   0.09782
 Alpha virt. eigenvalues --    0.10429   0.11064   0.11354   0.11399   0.12117

 Mulliken charges:
               1
     1  C   -0.211534
     2  O   -0.511748
     3  C    0.325742
     4  C   -0.196683
     5  C   -0.145957
     6  C   -0.192074
     7  C    0.328703
     8  O   -0.506654
     9  C   -0.218691
    10  C    0.032951
    11  C   -0.166367
    12  N   -0.463549
    13  N   -0.590334
    14  P    1.050843
    15  O   -0.592583
    16  C   -0.471956
    17  C   -0.082440
    18  C   -0.460593
    19  C   -0.443482
    20  N   -0.572444
    21  N   -0.470131
    22  C   -0.157354
    23  C    0.029206
    24  C    0.329879
    25  O   -0.510305
    26  C   -0.213461
    27  C   -0.194307
    28  C   -0.145836
    29  C   -0.193154
    30  C    0.329706
    31  O   -0.523170
    32  C   -0.222254
    33  H    0.166934
    34  H    0.152011
    35  H    0.149818
    36  H    0.124747
    37  H    0.126582
    38  H    0.127097
    39  H    0.194470
    40  H    0.145007
    41  H    0.147547
    42  H    0.147153
    43  H    0.160915
    44  H    0.348512
    45  H    0.335970
    46  H    0.182654
    47  H    0.167936
    48  H    0.148630
    49  H    0.124039
    50  H    0.133497
    51  H    0.197404
    52  H    0.136691
    53  H    0.140066
    54  H    0.142318
    55  H    0.335022
    56  H    0.335487
    57  H    0.169247
    58  H    0.134198
    59  H    0.170066
    60  H    0.151153
    61  H    0.154108
    62  H    0.128594
    63  H    0.130442
    64  H    0.129701
    65  H    0.157511
    66  H    0.153477
    67  H    0.181026
 Sum of Mulliken charges =  -0.00000

 Dipole moment (field-independent basis, Debye):
    X=             -1.6960    Y=              0.0937    Z=              0.3728  Tot=              1.7390
 Quadrupole moment (field-independent basis, Debye-Ang):
   XX=           -152.2283   YY=           -177.9691   ZZ=           -192.8119
   XY=             -2.4423   XZ=              2.9387   YZ=             -6.2006

 Normal termination of Gaussian 16 at Fri Nov  4 20:20:53 2022.
