 Gaussian 16, Revision B.01,
 Gaussian 16:  ES64L-G16RevB.01 20-Dec-2017

 -------------------------------------------------------------------
 #p b3lyp/6-31g(d) 6D 10F nosymm GFInput td=(50-50,nstate=2) SCF=XQC
 -------------------------------------------------------------------

 ------------------------------
 Gaussian input prepared by ASE
 ------------------------------
 Symbolic Z-matrix:
 Charge =  0 Multiplicity = 1

                          Input orientation:
 ---------------------------------------------------------------------
 Center     Atomic      Atomic             Coordinates (Angstroms)
 Number     Number       Type             X           Y           Z
 ---------------------------------------------------------------------
      1          6           0       -7.103374    0.971240   -2.868276
      2          8           0       -5.943281    0.654095   -2.119670
      3          6           0       -5.927398   -0.507812   -1.397201
      4          6           0       -7.013009   -1.395613   -1.344029
      5          6           0       -6.908080   -2.554038   -0.577373
      6          6           0       -5.749058   -2.849770    0.137643
      7          6           0       -4.676752   -1.952588    0.072751
      8          8           0       -3.486747   -2.133558    0.717209
      9          6           0       -3.260684   -3.317511    1.463676
     10          6           0       -4.744992   -0.769638   -0.685339
     11          6           0       -3.558067    0.167416   -0.709491
     12          7           0       -2.438247   -0.437329   -1.466427
     13          7           0       -1.279396    0.404654   -1.409650
     14         15           0       -0.012694    0.043987   -0.333166
     15          8           0       -0.332715   -1.138384    0.534477
     16          6           0        0.404965    1.568688    0.594419
     17          6           0       -0.650761    2.025167    1.626744
     18          6           0       -0.679815    1.120316    2.867492
     19          6           0       -0.394903    3.488458    2.020400
     20          7           0        1.282200   -0.112618   -1.448487
     21          7           0        2.593904   -0.445967   -0.970821
     22          6           0        3.479919    0.730630   -0.923106
     23          6           0        4.822658    0.347186   -0.343119
     24          6           0        5.974292    0.241345   -1.143272
     25          8           0        5.800652    0.509482   -2.471780
     26          6           0        6.918494    0.409276   -3.337744
     27          6           0        7.212606   -0.106994   -0.584105
     28          6           0        7.294202   -0.358048    0.783090
     29          6           0        6.173086   -0.270145    1.605690
     30          6           0        4.945336    0.079186    1.031230
     31          8           0        3.776620    0.180313    1.745226
     32          6           0        3.803863   -0.091276    3.139331
     33          1           0       -6.889020    1.921182   -3.362051
     34          1           0       -7.316013    0.208427   -3.628937
     35          1           0       -7.983807    1.090196   -2.222597
     36          1           0       -7.926435   -1.194134   -1.890067
     37          1           0       -7.748630   -3.241988   -0.537623
     38          1           0       -5.685766   -3.756920    0.726801
     39          1           0       -2.230489   -3.240348    1.813603
     40          1           0       -3.943459   -3.389147    2.320854
     41          1           0       -3.371359   -4.213440    0.838691
     42          1           0       -3.260319    0.399634    0.324803
     43          1           0       -3.827595    1.100968   -1.204389
     44          1           0       -2.195708   -1.310849   -0.996685
     45          1           0       -1.001943    0.708417   -2.336892
     46          1           0        1.369931    1.403840    1.091677
     47          1           0        0.562092    2.351371   -0.157629
     48          1           0       -1.635892    1.978451    1.141907
     49          1           0        0.275679    1.179938    3.407912
     50          1           0       -1.469128    1.438476    3.559209
     51          1           0       -0.850903    0.076378    2.592748
     52          1           0        0.594204    3.603843    2.483026
     53          1           0       -0.436648    4.153571    1.149571
     54          1           0       -1.142264    3.834725    2.744338
     55          1           0        1.030937   -0.774808   -2.181468
     56          1           0        2.528359   -0.872147   -0.046887
     57          1           0        3.603863    1.086735   -1.946285
     58          1           0        3.057536    1.555544   -0.330502
     59          1           0        6.545246    0.653101   -4.334188
     60          1           0        7.709111    1.120255   -3.063381
     61          1           0        7.333948   -0.606856   -3.345575
     62          1           0        8.100709   -0.185269   -1.198974
     63          1           0        8.252525   -0.629971    1.217439
     64          1           0        6.260829   -0.474733    2.665581
     65          1           0        4.134117   -1.117947    3.341302
     66          1           0        4.456970    0.611631    3.672176
     67          1           0        2.776495    0.031728    3.486178
 ---------------------------------------------------------------------

 SCF Done:  E(RB3LYP) =  -1795.82183822     A.U. after   15 cycles

 Excitation energies and oscillator strengths:

 Excited state symmetry could not be determined.
 Excited State   1:      Triplet-?Sym    3.6365 eV  340.94 nm  f=0.0000  <S**2>=2.000
     115 ->127         0.11875
     121 ->127        -0.16336
     122 ->127         0.29491
     123 ->127        -0.23230
     124 ->127        -0.23265
     124 ->129        -0.31854
     125 ->127         0.36512
     125 ->129        -0.12719
 This state for optimization and/or second-order correction.
 Total Energy, E(TD-HF/TD-DFT) =  -1795.68819874
 Copying the excited state density for this state as the 1-particle RhoCI density.

 Excited state symmetry could not be determined.
 Excited State   2:      Triplet-?Sym    3.6497 eV  339.71 nm  f=0.0000  <S**2>=2.000
     114 ->126         0.11730
     119 ->126         0.10293
     120 ->126         0.49339
     121 ->126         0.23397
     121 ->128         0.17805
     122 ->128         0.24991
     123 ->126        -0.19472
     123 ->128         0.18261

 Excited state symmetry could not be determined.
 Excited State   3:      Singlet-?Sym    5.0087 eV  247.54 nm  f=0.0246  <S**2>=0.000
     122 ->129         0.16131
     123 ->129        -0.12771
     124 ->127         0.52278
     124 ->129        -0.13562
     125 ->127         0.30517
     125 ->129         0.23213

 Excited state symmetry could not be determined.
 Excited State   4:      Singlet-?Sym    5.0266 eV  246.65 nm  f=0.0255  <S**2>=0.000
     120 ->128        -0.27841
     121 ->126         0.16064
     121 ->128        -0.14970
     122 ->126         0.42209
     123 ->126         0.40652
     123 ->128         0.11528

 Alpha  occ. eigenvalues --  -77.16767 -19.18277 -19.17631 -19.16964 -19.16732
 Alpha  occ. eigenvalues --  -19.08124 -14.34428 -14.33991 -14.33899 -14.33037
 Alpha  occ. eigenvalues --  -10.24747 -10.24716 -10.24247 -10.24046 -10.23906
 Alpha  occ. eigenvalues --  -10.23701 -10.23530 -10.22784 -10.19775 -10.19221
 Alpha  occ. eigenvalues --  -10.18778 -10.18595 -10.18498 -10.18432 -10.18210
 Alpha  occ. eigenvalues --  -10.18126 -10.17951 -10.17538 -10.17337 -10.17314
 Alpha  occ. eigenvalues --  -10.16771 -10.15726  -6.62037  -4.78432  -4.78305
 Alpha  occ. eigenvalues --   -4.78160  -1.06614  -1.06245  -1.05617  -1.05373
 Alpha  occ. eigenvalues --   -0.97446  -0.94536  -0.92363  -0.84993  -0.84096
 Alpha  occ. eigenvalues --   -0.80732  -0.79450  -0.78390  -0.75451  -0.75279
 Alpha  occ. eigenvalues --   -0.74440  -0.73837  -0.70388  -0.69626  -0.69420
 Alpha  occ. eigenvalues --   -0.68911  -0.68094  -0.67068  -0.64816  -0.63806
 Alpha  occ. eigenvalues --   -0.58953  -0.58520  -0.58053  -0.57698  -0.57377
 Alpha  occ. eigenvalues --   -0.55092  -0.53820  -0.52906  -0.50951  -0.49932
 Alpha  occ. eigenvalues --   -0.49528  -0.49175  -0.48598  -0.48186  -0.47681
 Alpha  occ. eigenvalues --   -0.47288  -0.46754  -0.46654  -0.46543  -0.46039
 Alpha  occ. eigenvalues --   -0.45530  -0.45173  -0.44663  -0.44420  -0.43517
 Alpha  occ. eigenvalues --   -0.43360  -0.42597  -0.42041  -0.41358  -0.40798
 Alpha  occ. eigenvalues --   -0.40600  -0.39796  -0.39406  -0.38631  -0.38264
 Alpha  occ. eigenvalues --   -0.37910  -0.37751  -0.37411  -0.37140  -0.36704
 Alpha  occ. eigenvalues --   -0.36647  -0.35900  -0.35193  -0.34641  -0.34236
 Alpha  occ. eigenvalues --   -0.33794  -0.33322  -0.32847  -0.32608  -0.32312
 Alpha  occ. eigenvalues --   -0.31809  -0.31702  -0.30781  -0.30276  -0.29363
 Alpha  occ. eigenvalues --   -0.28841  -0.26557  -0.25265  -0.24109  -0.22191
 Alpha  occ. eigenvalues --   -0.21904  -0.21606  -0.21469  -0.20717  -0.20629
 Alpha virt. eigenvalues --    0.00007   0.00827   0.02243   0.03150   0.06577
 Alpha virt. eigenvalues --    0.08089   0.08656   0.08784   0.09685   0.09782
 Alpha virt. eigenvalues --    0.10429   0.11063   0.11354   0.11399   0.12117

 Mulliken charges:
               1
     1  C   -0.211539
     2  O   -0.511741
     3  C    0.325713
     4  C   -0.196665
     5  C   -0.145955
     6  C   -0.192078
     7  C    0.328711
     8  O   -0.506642
     9  C   -0.218697
    10  C    0.032961
    11  C   -0.166396
    12  N   -0.463543
    13  N   -0.590338
    14  P    1.050858
    15  O   -0.592588
    16  C   -0.471942
    17  C   -0.082438
    18  C   -0.460607
    19  C   -0.443487
    20  N   -0.572449
    21  N   -0.470127
    22  C   -0.157350
    23  C    0.029213
    24  C    0.329888
    25  O   -0.510311
    26  C   -0.213462
    27  C   -0.194315
    28  C   -0.145830
    29  C   -0.193162
    30  C    0.329711
    31  O   -0.523179
    32  C   -0.222256
    33  H    0.166934
    34  H    0.152012
    35  H    0.149820
    36  H    0.124745
    37  H    0.126583
    38  H    0.127097
    39  H    0.194467
    40  H    0.145007
    41  H    0.147549
    42  H    0.147155
    43  H    0.160919
    44  H    0.348521
    45  H    0.335970
    46  H    0.182644
    47  H    0.167931
    48  H    0.148629
    49  H    0.124039
    50  H    0.133497
    51  H    0.197413
    52  H    0.136690
    53  H    0.140067
    54  H    0.142319
    55  H    0.335023
    56  H    0.335486
    57  H    0.169245
    58  H    0.134197
    59  H    0.170066
    60  H    0.151153
    61  H    0.154108
    62  H    0.128596
    63  H    0.130441
    64  H    0.129703
    65  H    0.157513
    66  H    0.153479
    67  H    0.181025
 Sum of Mulliken charges =  -0.00000

 Dipole moment (field-independent basis, Debye):
    X=              1.6391    Y=              0.5396    Z=              0.2143  Tot=              1.7389
 Quadrupole moment (field-independent basis, Debye-Ang):
   XX=           -152.4059   YY=           -192.0977   ZZ=           -178.6941
   XY=              1.2415   XZ=              4.1730   YZ=             -7.0651

 Normal termination of Gaussian 16 at Sat Nov  5 12:15:43 2022.
