 Gaussian 16, Revision B.01,
 Gaussian 16:  ES64L-G16RevB.01 20-Dec-2017

 -----------------------------
 #p b3lyp/6-31g(d) opt SCF=XQC
 -----------------------------

 ------------------------------
 Gaussian input prepared by ASE
 ------------------------------
 Symbolic Z-matrix:
 Charge =  0 Multiplicity = 1

 SCF Done:  E(RB3LYP) =  -751.310802698     A.U. after   13 cycles
 SCF Done:  E(RB3LYP) =  -751.313802460     A.U. after   12 cycles
 SCF Done:  E(RB3LYP) =  -751.313806346     A.U. after   12 cycles
 SCF Done:  E(RB3LYP) =  -751.314586055     A.U. after   11 cycles
 SCF Done:  E(RB3LYP) =  -751.314741609     A.U. after   11 cycles
 SCF Done:  E(RB3LYP) =  -751.314864079     A.U. after   11 cycles
 SCF Done:  E(RB3LYP) =  -751.314903129     A.U. after   10 cycles
 SCF Done:  E(RB3LYP) =  -751.314964896     A.U. after   11 cycles
 SCF Done:  E(RB3LYP) =  -751.315002454     A.U. after   10 cycles
 SCF Done:  E(RB3LYP) =  -751.315019535     A.U. after    9 cycles
 SCF Done:  E(RB3LYP) =  -751.315026337     A.U. after    9 cycles
 SCF Done:  E(RB3LYP) =  -751.315028086     A.U. after    9 cycles
 SCF Done:  E(RB3LYP) =  -751.315028604     A.U. after    9 cycles
 SCF Done:  E(RB3LYP) =  -751.315028032     A.U. after    9 cycles
 SCF Done:  E(RB3LYP) =  -751.315028233     A.U. after    8 cycles
 SCF Done:  E(RB3LYP) =  -751.315028769     A.U. after    8 cycles
 SCF Done:  E(RB3LYP) =  -751.315028914     A.U. after    9 cycles
 SCF Done:  E(RB3LYP) =  -751.315028802     A.U. after    7 cycles
 SCF Done:  E(RB3LYP) =  -751.315028850     A.U. after    7 cycles
 SCF Done:  E(RB3LYP) =  -751.315028959     A.U. after    6 cycles
 Optimization completed.
    -- Stationary point found.

                         Standard orientation:
 ---------------------------------------------------------------------
 Center     Atomic      Atomic             Coordinates (Angstroms)
 Number     Number       Type             X           Y           Z
 ---------------------------------------------------------------------
      1          6           0        1.747294    3.396635    0.471575
      2          6           0        0.807196    2.335019   -0.077987
      3          8           0        1.178965    1.085945    0.506580
      4          6           0        0.523338   -0.088210    0.011324
      5          8           0        0.927412   -1.116821    0.899650
      6          6           0        2.289036   -1.539057    0.887196
      7          6           0        2.443468   -2.584341    1.981544
      8          6           0       -0.990422   -0.018504    0.242380
      9          6           0       -1.450156    0.523748    1.448281
     10          6           0       -2.812173    0.554755    1.737127
     11          6           0       -3.728536    0.032656    0.820647
     12          6           0       -3.272099   -0.520519   -0.373634
     13          6           0       -1.904305   -0.558815   -0.669878
     14          6           0       -1.373982   -1.171661   -1.939468
     15          6           0       -0.140402   -0.407176   -2.405635
     16          7           0        0.884233   -0.364610   -1.371079
     17          6           0        2.175056    0.081485   -1.876153
     18          1           0        1.484659    4.382340    0.071323
     19          1           0        1.682697    3.437878    1.563797
     20          1           0        2.785047    3.176726    0.199640
     21          1           0       -0.234745    2.573150    0.174341
     22          1           0        0.876712    2.288927   -1.172513
     23          1           0        2.540094   -1.970318   -0.091611
     24          1           0        2.956270   -0.687003    1.072931
     25          1           0        1.771261   -3.429810    1.802256
     26          1           0        3.473535   -2.957931    2.009428
     27          1           0        2.201068   -2.156799    2.959723
     28          1           0       -0.725213    0.916197    2.154025
     29          1           0       -3.158324    0.982181    2.674424
     30          1           0       -4.793620    0.057484    1.036072
     31          1           0       -3.980970   -0.931010   -1.089610
     32          1           0       -2.138327   -1.165454   -2.725335
     33          1           0       -1.094811   -2.220086   -1.762711
     34          1           0        0.297173   -0.907590   -3.279261
     35          1           0       -0.438404    0.606523   -2.738773
     36          1           0        2.871046    0.256630   -1.057512
     37          1           0        2.104318    1.016472   -2.458933
     38          1           0        2.600006   -0.685339   -2.537907
 ---------------------------------------------------------------------

 The electronic state is 1-A.
 Alpha  occ. eigenvalues --  -19.14227 -19.13248 -14.32473 -10.31165 -10.22594
 Alpha  occ. eigenvalues --  -10.21713 -10.21306 -10.20307 -10.19148 -10.18671
 Alpha  occ. eigenvalues --  -10.18631 -10.18511 -10.18302 -10.18253 -10.18076
 Alpha  occ. eigenvalues --  -10.17542 -10.16702  -1.05970  -0.99158  -0.91308
 Alpha  occ. eigenvalues --   -0.85112  -0.78103  -0.77408  -0.74291  -0.73403
 Alpha  occ. eigenvalues --   -0.71874  -0.68561  -0.64106  -0.62495  -0.61163
 Alpha  occ. eigenvalues --   -0.59514  -0.58139  -0.54221  -0.51553  -0.50788
 Alpha  occ. eigenvalues --   -0.50082  -0.46948  -0.46628  -0.46101  -0.45289
 Alpha  occ. eigenvalues --   -0.44539  -0.42585  -0.41835  -0.41440  -0.40226
 Alpha  occ. eigenvalues --   -0.39614  -0.39169  -0.38852  -0.37823  -0.37177
 Alpha  occ. eigenvalues --   -0.36891  -0.36357  -0.35973  -0.35065  -0.34360
 Alpha  occ. eigenvalues --   -0.33978  -0.32699  -0.31008  -0.30477  -0.26766
 Alpha  occ. eigenvalues --   -0.25550  -0.24116  -0.23653  -0.20624
 Alpha virt. eigenvalues --   -0.00091   0.00611   0.08176   0.10391   0.10654
 Alpha virt. eigenvalues --    0.11620   0.12591   0.13437   0.13545   0.14244
 Alpha virt. eigenvalues --    0.14864   0.15013   0.15771   0.16648   0.16920

 Mulliken charges:
               1
     1  C   -0.454245
     2  C   -0.023072
     3  O   -0.517861
     4  C    0.670019
     5  O   -0.499641
     6  C   -0.015634
     7  C   -0.453468
     8  C    0.039120
     9  C   -0.159885
    10  C   -0.139460
    11  C   -0.122365
    12  C   -0.201644
    13  C    0.134074
    14  C   -0.348633
    15  C   -0.119393
    16  N   -0.449686
    17  C   -0.312594
    18  H    0.142820
    19  H    0.158840
    20  H    0.152673
    21  H    0.137975
    22  H    0.130052
    23  H    0.130380
    24  H    0.135389
    25  H    0.155466
    26  H    0.137140
    27  H    0.156776
    28  H    0.148374
    29  H    0.127337
    30  H    0.126816
    31  H    0.121126
    32  H    0.141602
    33  H    0.166397
    34  H    0.137215
    35  H    0.119225
    36  H    0.174741
    37  H    0.128103
    38  H    0.145923
 Sum of Mulliken charges =  -0.00000

 Dipole moment (field-independent basis, Debye):
    X=              0.1205    Y=              0.7939    Z=             -1.6812  Tot=              1.8631
 Quadrupole moment (field-independent basis, Debye-Ang):
   XX=            -95.7578   YY=           -101.0221   ZZ=            -98.8210
   XY=             -0.3390   XZ=             -0.8452   YZ=              2.5111

 Normal termination of Gaussian 16 at Fri Nov  4 19:29:30 2022.
