 Gaussian 16, Revision B.01,
 Gaussian 16:  ES64L-G16RevB.01 20-Dec-2017

 -------------------------------------------------------------------
 #p b3lyp/6-31g(d) 6D 10F nosymm GFInput td=(50-50,nstate=2) SCF=XQC
 -------------------------------------------------------------------

 ------------------------------
 Gaussian input prepared by ASE
 ------------------------------
 Symbolic Z-matrix:
 Charge =  0 Multiplicity = 1

                          Input orientation:
 ---------------------------------------------------------------------
 Center     Atomic      Atomic             Coordinates (Angstroms)
 Number     Number       Type             X           Y           Z
 ---------------------------------------------------------------------
      1          6           0        1.163894    3.286663    1.271713
      2          6           0        0.230464    2.234336    0.693661
      3          8           0        0.967984    1.015767    0.587492
      4          6           0        0.328749   -0.078809   -0.081125
      5          8           0        1.189495   -1.181723    0.149392
      6          6           0        2.472031   -1.193503   -0.473039
      7          6           0        3.192527   -2.443078    0.010191
      8          6           0       -0.956511   -0.497247    0.641877
      9          6           0       -0.955495   -0.501000    2.041724
     10          6           0       -2.074961   -0.931455    2.749531
     11          6           0       -3.206520   -1.372045    2.058374
     12          6           0       -3.204377   -1.382738    0.665347
     13          6           0       -2.081720   -0.955071   -0.053562
     14          6           0       -2.035368   -0.976801   -1.558907
     15          6           0       -1.208627    0.198734   -2.066930
     16          7           0        0.131832    0.195081   -1.496712
     17          6           0        1.036517    1.108000   -2.181144
     18          1           0        0.634427    4.237730    1.397931
     19          1           0        1.542339    2.968620    2.248673
     20          1           0        2.021676    3.451797    0.611274
     21          1           0       -0.641447    2.090744    1.345712
     22          1           0       -0.143825    2.550006   -0.288787
     23          1           0        2.359562   -1.215475   -1.565719
     24          1           0        3.038815   -0.293525   -0.200111
     25          1           0        2.622988   -3.340400   -0.252990
     26          1           0        4.185003   -2.512908   -0.449703
     27          1           0        3.313065   -2.421955    1.098037
     28          1           0       -0.065411   -0.165237    2.563880
     29          1           0       -2.064838   -0.925911    3.836226
     30          1           0       -4.086240   -1.704892    2.603108
     31          1           0       -4.081688   -1.727420    0.122076
     32          1           0       -3.046023   -0.935109   -1.981619
     33          1           0       -1.573193   -1.911360   -1.907287
     34          1           0       -1.100637    0.131747   -3.157324
     35          1           0       -1.746600    1.144948   -1.860445
     36          1           0        1.974727    1.202913   -1.637082
     37          1           0        0.613436    2.121379   -2.294745
     38          1           0        1.253952    0.729196   -3.188988
 ---------------------------------------------------------------------

 SCF Done:  E(RB3LYP) =  -751.315029756     A.U. after   13 cycles

 Excitation energies and oscillator strengths:

 Excited state symmetry could not be determined.
 Excited State   1:      Triplet-?Sym    3.7012 eV  334.99 nm  f=0.0000  <S**2>=2.000
      62 -> 65         0.49127
      62 -> 66         0.12704
      63 -> 65         0.12602
      63 -> 66        -0.44388
      64 -> 65        -0.14359
 This state for optimization and/or second-order correction.
 Total Energy, E(TD-HF/TD-DFT) =  -751.179014243
 Copying the excited state density for this state as the 1-particle RhoCI density.

 Excited state symmetry could not be determined.
 Excited State   2:      Triplet-?Sym    4.5616 eV  271.80 nm  f=0.0000  <S**2>=2.000
      62 -> 66        -0.28416
      63 -> 65         0.49062
      63 -> 66         0.19574
      64 -> 65        -0.36160

 Excited state symmetry could not be determined.
 Excited State   3:      Singlet-?Sym    4.8270 eV  256.86 nm  f=0.0125  <S**2>=0.000
      64 -> 65         0.69880

 Excited state symmetry could not be determined.
 Excited State   4:      Singlet-?Sym    5.0116 eV  247.39 nm  f=0.0006  <S**2>=0.000
      63 -> 65        -0.10640
      64 -> 66         0.69032

 Alpha  occ. eigenvalues --  -19.14227 -19.13248 -14.32473 -10.31166 -10.22593
 Alpha  occ. eigenvalues --  -10.21713 -10.21306 -10.20307 -10.19148 -10.18671
 Alpha  occ. eigenvalues --  -10.18631 -10.18511 -10.18302 -10.18253 -10.18076
 Alpha  occ. eigenvalues --  -10.17542 -10.16702  -1.05970  -0.99158  -0.91308
 Alpha  occ. eigenvalues --   -0.85112  -0.78103  -0.77408  -0.74291  -0.73403
 Alpha  occ. eigenvalues --   -0.71874  -0.68561  -0.64106  -0.62495  -0.61163
 Alpha  occ. eigenvalues --   -0.59514  -0.58139  -0.54221  -0.51553  -0.50788
 Alpha  occ. eigenvalues --   -0.50082  -0.46948  -0.46628  -0.46101  -0.45289
 Alpha  occ. eigenvalues --   -0.44539  -0.42585  -0.41835  -0.41440  -0.40226
 Alpha  occ. eigenvalues --   -0.39614  -0.39169  -0.38852  -0.37823  -0.37177
 Alpha  occ. eigenvalues --   -0.36891  -0.36357  -0.35973  -0.35065  -0.34360
 Alpha  occ. eigenvalues --   -0.33978  -0.32699  -0.31008  -0.30477  -0.26766
 Alpha  occ. eigenvalues --   -0.25550  -0.24116  -0.23654  -0.20624
 Alpha virt. eigenvalues --   -0.00091   0.00611   0.08176   0.10391   0.10654
 Alpha virt. eigenvalues --    0.11620   0.12591   0.13437   0.13545   0.14244
 Alpha virt. eigenvalues --    0.14864   0.15013   0.15771   0.16648   0.16920

 Mulliken charges:
               1
     1  C   -0.454257
     2  C   -0.023059
     3  O   -0.517869
     4  C    0.670034
     5  O   -0.499641
     6  C   -0.015636
     7  C   -0.453468
     8  C    0.039114
     9  C   -0.159868
    10  C   -0.139466
    11  C   -0.122360
    12  C   -0.201642
    13  C    0.134044
    14  C   -0.348617
    15  C   -0.119385
    16  N   -0.449695
    17  C   -0.312582
    18  H    0.142819
    19  H    0.158844
    20  H    0.152678
    21  H    0.137974
    22  H    0.130048
    23  H    0.130380
    24  H    0.135391
    25  H    0.155466
    26  H    0.137139
    27  H    0.156776
    28  H    0.148367
    29  H    0.127337
    30  H    0.126816
    31  H    0.121126
    32  H    0.141601
    33  H    0.166395
    34  H    0.137214
    35  H    0.119223
    36  H    0.174737
    37  H    0.128101
    38  H    0.145922
 Sum of Mulliken charges =  -0.00000

 Dipole moment (field-independent basis, Debye):
    X=             -0.6763    Y=              1.2767    Z=             -1.1763  Tot=              1.8631
 Quadrupole moment (field-independent basis, Debye-Ang):
   XX=            -96.9399   YY=           -102.2162   ZZ=            -96.8478
   XY=              1.8083   XZ=             -1.2535   YZ=              0.7017

 Normal termination of Gaussian 16 at Sat Nov  5 11:54:10 2022.
