 Gaussian 16, Revision B.01,
 Gaussian 16:  ES64L-G16RevB.01 20-Dec-2017

 -----------------------------
 #p b3lyp/6-31g(d) opt SCF=XQC
 -----------------------------

 ------------------------------
 Gaussian input prepared by ASE
 ------------------------------
 Symbolic Z-matrix:
 Charge =  0 Multiplicity = 1

 SCF Done:  E(RB3LYP) =  -1731.31468049     A.U. after   15 cycles
 SCF Done:  E(RB3LYP) =  -1731.32275390     A.U. after   12 cycles
 SCF Done:  E(RB3LYP) =  -1731.32309481     A.U. after   13 cycles
 SCF Done:  E(RB3LYP) =  -1731.32437621     A.U. after   12 cycles
 SCF Done:  E(RB3LYP) =  -1731.32478464     A.U. after   11 cycles
 SCF Done:  E(RB3LYP) =  -1731.32528313     A.U. after   12 cycles
 SCF Done:  E(RB3LYP) =  -1731.32553543     A.U. after   10 cycles
 SCF Done:  E(RB3LYP) =  -1731.32569977     A.U. after   11 cycles
 SCF Done:  E(RB3LYP) =  -1731.32574718     A.U. after   10 cycles
 SCF Done:  E(RB3LYP) =  -1731.32577630     A.U. after   10 cycles
 SCF Done:  E(RB3LYP) =  -1731.32579936     A.U. after    9 cycles
 SCF Done:  E(RB3LYP) =  -1731.32581598     A.U. after    9 cycles
 SCF Done:  E(RB3LYP) =  -1731.32582604     A.U. after    9 cycles
 SCF Done:  E(RB3LYP) =  -1731.32582832     A.U. after    9 cycles
 SCF Done:  E(RB3LYP) =  -1731.32582859     A.U. after    8 cycles
 SCF Done:  E(RB3LYP) =  -1731.32582862     A.U. after    7 cycles
 SCF Done:  E(RB3LYP) =  -1731.32582862     A.U. after    6 cycles
 Optimization completed.
    -- Stationary point found.

                         Standard orientation:
 ---------------------------------------------------------------------
 Center     Atomic      Atomic             Coordinates (Angstroms)
 Number     Number       Type             X           Y           Z
 ---------------------------------------------------------------------
      1          6           0        1.444308   -2.193926   -1.394432
      2          6           0        2.729819   -1.559825   -0.951158
      3          7           0        3.830657   -2.309319   -0.873757
      4          7           0        4.812736   -1.449426   -0.505072
      5          6           0        4.384041   -0.177459   -0.385201
      6          6           0        3.010703   -0.195149   -0.633010
      7          6           0        2.209450    1.054666   -0.695256
      8          8           0        2.727272    2.087060   -1.132393
      9          7           0        0.887249    1.037786   -0.285594
     10          6           0        0.393853    0.186424    0.819946
     11          6           0        0.546533    0.956078    2.155591
     12          6           0       -0.063535    2.368732    2.137375
     13          6           0        0.376988    3.154473    0.891316
     14          6           0        0.151278    2.320531   -0.391421
     15          6           0       -1.298286    1.976634   -0.582597
     16          7           0       -2.202044    2.792701   -1.120856
     17          7           0       -3.373662    2.122745   -1.020036
     18          6           0       -4.561836    2.732722   -1.592299
     19          6           0       -3.225035    0.890296   -0.426789
     20          6           0       -4.331109   -0.042374   -0.164130
     21          6           0       -4.152566   -1.414249   -0.413786
     22          6           0       -5.175454   -2.309023   -0.135892
     23          9           0       -5.013359   -3.619039   -0.377287
     24          6           0       -6.394940   -1.878392    0.382456
     25          9           0       -7.376234   -2.750343    0.640845
     26          6           0       -6.566820   -0.518100    0.627434
     27          9           0       -7.736679   -0.105373    1.140099
     28          6           0       -5.555871    0.396766    0.369276
     29          6           0       -1.867899    0.772279   -0.132035
     30          6           0       -1.047913   -0.306179    0.516187
     31          6           0        5.355466    0.907267   -0.018689
     32          8           0        6.706335    0.461185   -0.089614
     33          6           0        6.973501   -0.839603    0.465864
     34          6           0        8.476007   -1.043897    0.274366
     35          6           0        6.602827   -0.906144    1.956412
     36          6           0        6.194602   -1.879756   -0.367595
     37          1           0        1.659036   -3.036136   -2.057953
     38          1           0        0.814046   -1.475027   -1.926083
     39          1           0        0.865739   -2.585083   -0.547700
     40          1           0        1.041345   -0.689106    0.873581
     41          1           0        1.623814    1.034623    2.358170
     42          1           0        0.115413    0.359731    2.970228
     43          1           0       -1.158104    2.300920    2.160918
     44          1           0        0.232696    2.906799    3.046280
     45          1           0       -0.176446    4.097318    0.812452
     46          1           0        1.444377    3.399394    0.944200
     47          1           0        0.547797    2.856556   -1.253654
     48          1           0       -5.236257    1.959623   -1.965542
     49          1           0       -5.092114    3.349365   -0.857160
     50          1           0       -4.238723    3.369045   -2.417018
     51          1           0       -3.231661   -1.792907   -0.841166
     52          1           0       -5.728468    1.437645    0.616493
     53          1           0       -1.510310   -0.664641    1.445339
     54          1           0       -0.976725   -1.178612   -0.145129
     55          1           0        5.261936    1.738741   -0.720030
     56          1           0        5.123955    1.299831    0.984275
     57          1           0        9.031875   -0.313413    0.869973
     58          1           0        8.746402   -0.905024   -0.776834
     59          1           0        8.776748   -2.049887    0.587094
     60          1           0        7.087274   -0.084248    2.493417
     61          1           0        6.945476   -1.850974    2.392000
     62          1           0        5.522872   -0.838628    2.120696
     63          1           0        6.198426   -2.865815    0.105242
     64          1           0        6.643930   -1.971431   -1.363330
 ---------------------------------------------------------------------

 The electronic state is 1-A.
 Alpha  occ. eigenvalues --  -24.73187 -24.72976 -24.72902 -19.15501 -19.10575
 Alpha  occ. eigenvalues --  -14.41665 -14.41160 -14.35514 -14.34701 -14.34074
 Alpha  occ. eigenvalues --  -10.30085 -10.30031 -10.29785 -10.28374 -10.26023
 Alpha  occ. eigenvalues --  -10.24289 -10.23776 -10.23536 -10.23491 -10.23314
 Alpha  occ. eigenvalues --  -10.23308 -10.22799 -10.22081 -10.21993 -10.21938
 Alpha  occ. eigenvalues --  -10.21535 -10.20395 -10.20219 -10.18976 -10.18917
 Alpha  occ. eigenvalues --  -10.18780 -10.18584 -10.18529 -10.18478 -10.18408
 Alpha  occ. eigenvalues --  -10.17952  -1.25292  -1.24209  -1.23385  -1.05774
 Alpha  occ. eigenvalues --   -1.04933  -1.03153  -1.02424  -0.93612  -0.89583
 Alpha  occ. eigenvalues --   -0.85546  -0.84894  -0.82233  -0.81810  -0.79694
 Alpha  occ. eigenvalues --   -0.78924  -0.78114  -0.77757  -0.76042  -0.74181
 Alpha  occ. eigenvalues --   -0.73501  -0.70941  -0.69308  -0.68047  -0.67661
 Alpha  occ. eigenvalues --   -0.66494  -0.65869  -0.65470  -0.62560  -0.61515
 Alpha  occ. eigenvalues --   -0.59856  -0.58933  -0.58005  -0.57273  -0.56304
 Alpha  occ. eigenvalues --   -0.55407  -0.54750  -0.52713  -0.52215  -0.51750
 Alpha  occ. eigenvalues --   -0.50958  -0.50797  -0.50519  -0.49846  -0.48966
 Alpha  occ. eigenvalues --   -0.48649  -0.47951  -0.47470  -0.47413  -0.46572
 Alpha  occ. eigenvalues --   -0.45971  -0.45851  -0.45788  -0.45012  -0.44779
 Alpha  occ. eigenvalues --   -0.44433  -0.44006  -0.43562  -0.42939  -0.42546
 Alpha  occ. eigenvalues --   -0.42286  -0.42076  -0.41391  -0.41308  -0.41214
 Alpha  occ. eigenvalues --   -0.40232  -0.40158  -0.39828  -0.39655  -0.39249
 Alpha  occ. eigenvalues --   -0.38799  -0.38202  -0.37903  -0.37854  -0.37767
 Alpha  occ. eigenvalues --   -0.37065  -0.36900  -0.36332  -0.35894  -0.35542
 Alpha  occ. eigenvalues --   -0.35389  -0.33811  -0.32324  -0.32008  -0.31442
 Alpha  occ. eigenvalues --   -0.29124  -0.29069  -0.27726  -0.26881  -0.26826
 Alpha  occ. eigenvalues --   -0.25232  -0.24227  -0.23944  -0.23497  -0.23015
 Alpha  occ. eigenvalues --   -0.22638
 Alpha virt. eigenvalues --   -0.04135  -0.02202  -0.00434   0.02056   0.02554
 Alpha virt. eigenvalues --    0.04003   0.06156   0.07222   0.07494   0.09207
 Alpha virt. eigenvalues --    0.09335   0.09868   0.10262   0.10951   0.11945

 Mulliken charges:
               1
     1  C   -0.526717
     2  C    0.308070
     3  N   -0.364557
     4  N   -0.335997
     5  C    0.362658
     6  C   -0.152163
     7  C    0.530948
     8  O   -0.540556
     9  N   -0.450015
    10  C   -0.010994
    11  C   -0.256935
    12  C   -0.280490
    13  C   -0.256621
    14  C   -0.058939
    15  C    0.308185
    16  N   -0.381261
    17  N   -0.324908
    18  C   -0.321564
    19  C    0.249527
    20  C    0.109338
    21  C   -0.248656
    22  C    0.331384
    23  F   -0.279078
    24  C    0.245599
    25  F   -0.264835
    26  C    0.330705
    27  F   -0.279734
    28  C   -0.251528
    29  C   -0.018152
    30  C   -0.350129
    31  C   -0.085016
    32  O   -0.501750
    33  C    0.279333
    34  C   -0.458110
    35  C   -0.467932
    36  C   -0.111130
    37  H    0.175938
    38  H    0.169745
    39  H    0.159561
    40  H    0.154199
    41  H    0.137256
    42  H    0.134711
    43  H    0.145044
    44  H    0.138255
    45  H    0.149010
    46  H    0.156215
    47  H    0.188020
    48  H    0.177052
    49  H    0.170896
    50  H    0.197121
    51  H    0.166204
    52  H    0.161408
    53  H    0.152466
    54  H    0.157412
    55  H    0.206761
    56  H    0.148532
    57  H    0.161494
    58  H    0.162171
    59  H    0.144664
    60  H    0.161770
    61  H    0.150533
    62  H    0.157030
    63  H    0.168459
    64  H    0.170091
 Sum of Mulliken charges =  -0.00000

 Dipole moment (field-independent basis, Debye):
    X=             -0.0037    Y=             -0.7742    Z=              2.6105  Tot=              2.7229
 Quadrupole moment (field-independent basis, Debye-Ang):
   XX=           -197.3840   YY=           -217.0751   ZZ=           -204.8975
   XY=            -23.1124   XZ=             17.2035   YZ=              3.3950

 Normal termination of Gaussian 16 at Fri Nov  4 19:56:29 2022.
