 Gaussian 16, Revision B.01,
 Gaussian 16:  ES64L-G16RevB.01 20-Dec-2017

 -------------------------------------------------------------------
 #p b3lyp/6-31g(d) 6D 10F nosymm GFInput td=(50-50,nstate=2) SCF=XQC
 -------------------------------------------------------------------

 ------------------------------
 Gaussian input prepared by ASE
 ------------------------------
 Symbolic Z-matrix:
 Charge =  0 Multiplicity = 1

                          Input orientation:
 ---------------------------------------------------------------------
 Center     Atomic      Atomic             Coordinates (Angstroms)
 Number     Number       Type             X           Y           Z
 ---------------------------------------------------------------------
      1          6           0        0.777001   -1.212444   -2.341982
      2          6           0        2.037061   -0.805367   -1.636536
      3          7           0        3.179164   -1.425375   -1.937811
      4          7           0        4.121934   -0.804310   -1.185956
      5          6           0        3.627233    0.210955   -0.450730
      6          6           0        2.250812    0.234937   -0.680224
      7          6           0        1.380595    1.298788   -0.115542
      8          8           0        1.828915    2.441307    0.021298
      9          7           0        0.072768    0.999834    0.225834
     10          6           0       -0.343246   -0.316683    0.758929
     11          6           0       -0.197470   -0.304950    2.301083
     12          6           0       -0.884645    0.889647    2.985799
     13          6           0       -0.521554    2.215970    2.297945
     14          6           0       -0.735268    2.117834    0.769379
     15          6           0       -2.168300    1.826650    0.426335
     16          7           0       -3.129693    2.745362    0.361847
     17          7           0       -4.259537    2.043793    0.110950
     18          6           0       -5.494377    2.783643   -0.086793
     19          6           0       -4.027466    0.691217    0.012736
     20          6           0       -5.073094   -0.314189   -0.228268
     21          6           0       -4.826049   -1.366708   -1.126833
     22          6           0       -5.790326   -2.341803   -1.335415
     23          9           0       -5.562883   -3.345887   -2.196096
     24          6           0       -7.017357   -2.301132   -0.676615
     25          9           0       -7.941896   -3.244237   -0.890581
     26          6           0       -7.257238   -1.255908    0.212155
     27          9           0       -8.433901   -1.224879    0.857322
     28          6           0       -6.305456   -0.273959    0.447804
     29          6           0       -2.658488    0.525446    0.215338
     30          6           0       -1.763323   -0.680159    0.244259
     31          6           0        4.546935    1.027065    0.411093
     32          8           0        5.917929    0.758678    0.133223
     33          6           0        6.271066   -0.627043   -0.031264
     34          6           0        7.776876   -0.616955   -0.292739
     35          6           0        5.944647   -1.448069    1.226880
     36          6           0        5.528578   -1.160744   -1.275100
     37          1           0        1.019928   -1.598586   -3.335746
     38          1           0        0.094117   -0.364424   -2.447953
     39          1           0        0.243713   -2.007182   -1.804676
     40          1           0        0.352662   -1.061660    0.372415
     41          1           0        0.878889   -0.271855    2.520393
     42          1           0       -0.573150   -1.252345    2.709046
     43          1           0       -1.972800    0.752406    2.967884
     44          1           0       -0.594262    0.921770    4.043164
     45          1           0       -1.127963    3.037499    2.696474
     46          1           0        0.531767    2.466873    2.470181
     47          1           0       -0.392078    3.034557    0.289966
     48          1           0       -6.134967    2.258761   -0.798116
     49          1           0       -6.037929    2.919671    0.855502
     50          1           0       -5.228973    3.764058   -0.484058
     51          1           0       -3.897466   -1.425835   -1.682115
     52          1           0       -6.528410    0.493624    1.179543
     53          1           0       -2.180251   -1.480464    0.869809
     54          1           0       -1.661944   -1.102323   -0.763234
     55          1           0        4.389038    2.089641    0.216220
     56          1           0        4.321093    0.854266    1.475413
     57          1           0        8.307432   -0.246712    0.589743
     58          1           0        8.010983    0.042205   -1.134240
     59          1           0        8.140801   -1.624802   -0.520914
     60          1           0        6.397316   -0.973937    2.103731
     61          1           0        6.350323   -2.461476    1.135882
     62          1           0        4.867397   -1.537223    1.398449
     63          1           0        5.599331   -2.249044   -1.355730
     64          1           0        5.955458   -0.717787   -2.182486
 ---------------------------------------------------------------------

 SCF Done:  E(RB3LYP) =  -1731.32583156     A.U. after   15 cycles

 Excitation energies and oscillator strengths:

 Excited state symmetry could not be determined.
 Excited State   1:      Triplet-?Sym    3.2959 eV  376.18 nm  f=0.0000  <S**2>=2.000
     123 ->132         0.12139
     123 ->136        -0.10686
     125 ->133         0.22050
     128 ->132        -0.11448
     129 ->132        -0.38603
     130 ->132         0.15356
     131 ->132         0.46992
 This state for optimization and/or second-order correction.
 Total Energy, E(TD-HF/TD-DFT) =  -1731.20471119
 Copying the excited state density for this state as the 1-particle RhoCI density.

 Excited state symmetry could not be determined.
 Excited State   2:      Triplet-?Sym    4.0253 eV  308.01 nm  f=0.0000  <S**2>=2.000
     123 ->132        -0.21443
     125 ->133        -0.24382
     127 ->132        -0.17237
     128 ->132         0.46926
     130 ->132         0.14251
     131 ->132         0.23027
     131 ->136         0.12336

 Excited state symmetry could not be determined.
 Excited State   3:      Singlet-?Sym    4.5268 eV  273.89 nm  f=0.1634  <S**2>=0.000
     128 ->132         0.12318
     129 ->132         0.11882
     130 ->132         0.10460
     131 ->132         0.67135

 Excited state symmetry could not be determined.
 Excited State   4:      Singlet-?Sym    4.7138 eV  263.02 nm  f=0.0341  <S**2>=0.000
     128 ->132         0.30884
     129 ->132        -0.21268
     130 ->132         0.56270
     131 ->132        -0.11205

 Alpha  occ. eigenvalues --  -24.73187 -24.72977 -24.72902 -19.15501 -19.10575
 Alpha  occ. eigenvalues --  -14.41665 -14.41160 -14.35514 -14.34701 -14.34074
 Alpha  occ. eigenvalues --  -10.30085 -10.30031 -10.29785 -10.28374 -10.26023
 Alpha  occ. eigenvalues --  -10.24289 -10.23776 -10.23536 -10.23491 -10.23313
 Alpha  occ. eigenvalues --  -10.23308 -10.22799 -10.22081 -10.21993 -10.21938
 Alpha  occ. eigenvalues --  -10.21535 -10.20395 -10.20219 -10.18976 -10.18916
 Alpha  occ. eigenvalues --  -10.18780 -10.18584 -10.18529 -10.18478 -10.18407
 Alpha  occ. eigenvalues --  -10.17952  -1.25292  -1.24209  -1.23385  -1.05774
 Alpha  occ. eigenvalues --   -1.04933  -1.03153  -1.02424  -0.93612  -0.89583
 Alpha  occ. eigenvalues --   -0.85546  -0.84894  -0.82233  -0.81810  -0.79694
 Alpha  occ. eigenvalues --   -0.78924  -0.78114  -0.77757  -0.76042  -0.74181
 Alpha  occ. eigenvalues --   -0.73501  -0.70941  -0.69308  -0.68047  -0.67661
 Alpha  occ. eigenvalues --   -0.66494  -0.65869  -0.65470  -0.62560  -0.61515
 Alpha  occ. eigenvalues --   -0.59856  -0.58933  -0.58005  -0.57273  -0.56304
 Alpha  occ. eigenvalues --   -0.55407  -0.54750  -0.52713  -0.52215  -0.51750
 Alpha  occ. eigenvalues --   -0.50958  -0.50797  -0.50519  -0.49846  -0.48966
 Alpha  occ. eigenvalues --   -0.48649  -0.47951  -0.47470  -0.47413  -0.46572
 Alpha  occ. eigenvalues --   -0.45971  -0.45851  -0.45788  -0.45012  -0.44779
 Alpha  occ. eigenvalues --   -0.44433  -0.44006  -0.43562  -0.42939  -0.42546
 Alpha  occ. eigenvalues --   -0.42286  -0.42076  -0.41391  -0.41308  -0.41214
 Alpha  occ. eigenvalues --   -0.40232  -0.40158  -0.39828  -0.39655  -0.39249
 Alpha  occ. eigenvalues --   -0.38799  -0.38202  -0.37903  -0.37854  -0.37767
 Alpha  occ. eigenvalues --   -0.37065  -0.36899  -0.36332  -0.35894  -0.35542
 Alpha  occ. eigenvalues --   -0.35389  -0.33811  -0.32324  -0.32008  -0.31442
 Alpha  occ. eigenvalues --   -0.29124  -0.29069  -0.27726  -0.26881  -0.26826
 Alpha  occ. eigenvalues --   -0.25232  -0.24227  -0.23944  -0.23497  -0.23015
 Alpha  occ. eigenvalues --   -0.22638
 Alpha virt. eigenvalues --   -0.04135  -0.02202  -0.00434   0.02056   0.02554
 Alpha virt. eigenvalues --    0.04003   0.06156   0.07222   0.07494   0.09207
 Alpha virt. eigenvalues --    0.09334   0.09868   0.10262   0.10951   0.11945

 Mulliken charges:
               1
     1  C   -0.526715
     2  C    0.308051
     3  N   -0.364547
     4  N   -0.335998
     5  C    0.362651
     6  C   -0.152155
     7  C    0.530924
     8  O   -0.540543
     9  N   -0.450000
    10  C   -0.010999
    11  C   -0.256930
    12  C   -0.280472
    13  C   -0.256645
    14  C   -0.058966
    15  C    0.308200
    16  N   -0.381258
    17  N   -0.324911
    18  C   -0.321563
    19  C    0.249525
    20  C    0.109332
    21  C   -0.248654
    22  C    0.331374
    23  F   -0.279078
    24  C    0.245608
    25  F   -0.264837
    26  C    0.330698
    27  F   -0.279731
    28  C   -0.251525
    29  C   -0.018134
    30  C   -0.350133
    31  C   -0.085007
    32  O   -0.501746
    33  C    0.279310
    34  C   -0.458101
    35  C   -0.467928
    36  C   -0.111114
    37  H    0.175937
    38  H    0.169746
    39  H    0.159560
    40  H    0.154199
    41  H    0.137252
    42  H    0.134709
    43  H    0.145044
    44  H    0.138253
    45  H    0.149012
    46  H    0.156220
    47  H    0.188022
    48  H    0.177051
    49  H    0.170896
    50  H    0.197121
    51  H    0.166203
    52  H    0.161408
    53  H    0.152468
    54  H    0.157414
    55  H    0.206762
    56  H    0.148533
    57  H    0.161494
    58  H    0.162171
    59  H    0.144662
    60  H    0.161770
    61  H    0.150533
    62  H    0.157030
    63  H    0.168458
    64  H    0.170090
 Sum of Mulliken charges =  -0.00000

 Dipole moment (field-independent basis, Debye):
    X=              0.1087    Y=             -1.9678    Z=              1.8788  Tot=              2.7228
 Quadrupole moment (field-independent basis, Debye-Ang):
   XX=           -194.1627   YY=           -220.0301   ZZ=           -205.1296
   XY=            -25.7252   XZ=              2.2569   YZ=             -3.5320

 Normal termination of Gaussian 16 at Sat Nov  5 12:00:06 2022.
