 Gaussian 16, Revision B.01,
 Gaussian 16:  ES64L-G16RevB.01 20-Dec-2017

 -------------------------------------------------------------------
 #p b3lyp/6-31g(d) 6D 10F nosymm GFInput td=(50-50,nstate=2) SCF=XQC
 -------------------------------------------------------------------

 ------------------------------
 Gaussian input prepared by ASE
 ------------------------------
 Symbolic Z-matrix:
 Charge =  0 Multiplicity = 1

                          Input orientation:
 ---------------------------------------------------------------------
 Center     Atomic      Atomic             Coordinates (Angstroms)
 Number     Number       Type             X           Y           Z
 ---------------------------------------------------------------------
      1          6           0       -2.784914    2.119053   -0.444730
      2          6           0       -2.446197    0.853793    0.290487
      3          6           0       -1.453686   -0.025764    0.045561
      4          6           0       -1.266516   -1.235744    0.880535
      5          6           0       -2.071263   -1.396397    2.149219
      6          6           0       -0.381919   -2.187369    0.517646
      7          6           0        0.446159   -2.153397   -0.745853
      8          6           0        1.888668   -1.671139   -0.462273
      9          6           0        1.938059   -0.179223   -0.239244
     10          7           0        3.107052    0.333566    0.260586
     11          6           0        3.387249    1.689268    0.531163
     12          8           0        4.484430    2.013843    0.978483
     13          6           0        2.268656    2.560225    0.225348
     14          6           0        1.098033    2.062584   -0.269503
     15          6           0        0.898487    0.670182   -0.527020
     16          6           0       -0.425492    0.144006   -1.074543
     17          6           0       -0.202736   -1.210671   -1.767775
     18          1           0       -3.831139    2.101581   -0.779293
     19          1           0       -2.689299    2.990578    0.218244
     20          1           0       -2.158990    2.300139   -1.322158
     21          1           0       -3.109699    0.646096    1.127963
     22          1           0       -3.146735   -1.464859    1.940897
     23          1           0       -1.779362   -2.306560    2.681337
     24          1           0       -1.929591   -0.544926    2.826270
     25          1           0       -0.236736   -3.047342    1.170771
     26          1           0        0.509457   -3.170248   -1.154580
     27          1           0        2.540165   -1.930890   -1.310740
     28          1           0        2.299384   -2.189762    0.415019
     29          1           0        3.875477   -0.292400    0.477028
     30          1           0        2.413033    3.618737    0.410571
     31          1           0        0.279490    2.746755   -0.484620
     32          1           0       -0.801538    0.862781   -1.808901
     33          1           0        0.442145   -1.086620   -2.646853
     34          1           0       -1.160132   -1.619873   -2.109041
 ---------------------------------------------------------------------

 SCF Done:  E(RB3LYP) =  -711.807674388     A.U. after   16 cycles

 Excitation energies and oscillator strengths:

 Excited state symmetry could not be determined.
 Excited State   1:      Triplet-?Sym    2.7434 eV  451.94 nm  f=0.0000  <S**2>=2.000
      61 -> 62         0.68444
      61 -> 63         0.10629
 This state for optimization and/or second-order correction.
 Total Energy, E(TD-HF/TD-DFT) =  -711.706856389
 Copying the excited state density for this state as the 1-particle RhoCI density.

 Excited state symmetry could not be determined.
 Excited State   2:      Triplet-?Sym    2.8774 eV  430.89 nm  f=0.0000  <S**2>=2.000
      60 -> 62        -0.17782
      60 -> 63         0.66974
      60 <- 63         0.12578

 Excited state symmetry could not be determined.
 Excited State   3:      Singlet-?Sym    4.2090 eV  294.57 nm  f=0.0390  <S**2>=0.000
      61 -> 62         0.59068
      61 -> 63        -0.37389

 Excited state symmetry could not be determined.
 Excited State   4:      Singlet-?Sym    4.3151 eV  287.33 nm  f=0.0712  <S**2>=0.000
      60 -> 62         0.10638
      61 -> 62         0.36462
      61 -> 63         0.58776

 Alpha  occ. eigenvalues --  -19.09046 -14.37983 -10.27393 -10.24450 -10.20979
 Alpha  occ. eigenvalues --  -10.20507 -10.20365 -10.20238 -10.19715 -10.19435
 Alpha  occ. eigenvalues --  -10.19248 -10.19080 -10.19017 -10.18918 -10.18537
 Alpha  occ. eigenvalues --  -10.18409 -10.18343  -1.01670  -0.94551  -0.86871
 Alpha  occ. eigenvalues --   -0.81181  -0.80935  -0.77640  -0.75152  -0.74433
 Alpha  occ. eigenvalues --   -0.68869  -0.68548  -0.64206  -0.63538  -0.62491
 Alpha  occ. eigenvalues --   -0.57813  -0.55801  -0.54333  -0.50213  -0.48925
 Alpha  occ. eigenvalues --   -0.48039  -0.46684  -0.46123  -0.44438  -0.44044
 Alpha  occ. eigenvalues --   -0.43350  -0.41901  -0.41775  -0.41287  -0.40552
 Alpha  occ. eigenvalues --   -0.39901  -0.39285  -0.39053  -0.38550  -0.37583
 Alpha  occ. eigenvalues --   -0.36479  -0.35994  -0.34198  -0.32399  -0.31578
 Alpha  occ. eigenvalues --   -0.31071  -0.28801  -0.28076  -0.23685  -0.21907
 Alpha  occ. eigenvalues --   -0.20173
 Alpha virt. eigenvalues --   -0.03037  -0.02019   0.02567   0.07276   0.08265
 Alpha virt. eigenvalues --    0.08933   0.09386   0.10198   0.12694   0.12947
 Alpha virt. eigenvalues --    0.13319   0.14160   0.14623   0.15523   0.16172

 Mulliken charges:
               1
     1  C   -0.492333
     2  C   -0.193516
     3  C    0.175051
     4  C    0.169679
     5  C   -0.531570
     6  C   -0.199237
     7  C   -0.135696
     8  C   -0.346964
     9  C    0.358226
    10  N   -0.710951
    11  C    0.598967
    12  O   -0.543663
    13  C   -0.224958
    14  C   -0.122913
    15  C    0.090116
    16  C   -0.295466
    17  C   -0.278731
    18  H    0.159441
    19  H    0.162194
    20  H    0.154600
    21  H    0.127664
    22  H    0.158694
    23  H    0.153310
    24  H    0.161624
    25  H    0.119319
    26  H    0.133248
    27  H    0.162979
    28  H    0.155808
    29  H    0.330756
    30  H    0.145042
    31  H    0.138077
    32  H    0.136386
    33  H    0.137705
    34  H    0.147112
 Sum of Mulliken charges =  -0.00000

 Dipole moment (field-independent basis, Debye):
    X=             -3.7836    Y=             -2.9020    Z=             -1.5279  Tot=              5.0072
 Quadrupole moment (field-independent basis, Debye-Ang):
   XX=           -117.4206   YY=            -98.0042   ZZ=           -100.4063
   XY=            -18.4193   XZ=             -7.1649   YZ=             -3.7416

 Normal termination of Gaussian 16 at Sat Nov  5 11:53:07 2022.
