 Gaussian 16, Revision B.01,
 Gaussian 16:  ES64L-G16RevB.01 20-Dec-2017

 -----------------------------
 #p b3lyp/6-31g(d) opt SCF=XQC
 -----------------------------

 ------------------------------
 Gaussian input prepared by ASE
 ------------------------------
 Symbolic Z-matrix:
 Charge =  0 Multiplicity = 1

 SCF Done:  E(RB3LYP) =  -711.803290326     A.U. after   15 cycles
 SCF Done:  E(RB3LYP) =  -711.807388621     A.U. after   12 cycles
 SCF Done:  E(RB3LYP) =  -711.807617668     A.U. after   11 cycles
 SCF Done:  E(RB3LYP) =  -711.807666084     A.U. after   10 cycles
 SCF Done:  E(RB3LYP) =  -711.807671454     A.U. after    9 cycles
 SCF Done:  E(RB3LYP) =  -711.807672304     A.U. after    8 cycles
 SCF Done:  E(RB3LYP) =  -711.807672569     A.U. after    7 cycles
 Optimization completed.
    -- Stationary point found.

                         Standard orientation:
 ---------------------------------------------------------------------
 Center     Atomic      Atomic             Coordinates (Angstroms)
 Number     Number       Type             X           Y           Z
 ---------------------------------------------------------------------
      1          6           0       -2.383339    2.941729   -0.528238
      2          6           0       -2.486571    1.648792    0.229267
      3          6           0       -1.844556    0.484338    0.004430
      4          6           0       -2.072207   -0.704204    0.859888
      5          6           0       -2.884678   -0.565241    2.126208
      6          6           0       -1.555951   -1.902589    0.517627
      7          6           0       -0.763777   -2.168648   -0.741328
      8          6           0        0.756916   -2.190713   -0.457019
      9          6           0        1.301458   -0.797240   -0.257773
     10          7           0        2.574472   -0.695526    0.240643
     11          6           0        3.291101    0.493346    0.490992
     12          8           0        4.433603    0.440735    0.939513
     13          6           0        2.527478    1.682322    0.164561
     14          6           0        1.257984    1.595516   -0.329130
     15          6           0        0.605125    0.345358   -0.565352
     16          6           0       -0.818443    0.281939   -1.112156
     17          6           0       -1.060541   -1.081093   -1.782136
     18          1           0       -3.375315    3.268713   -0.868666
     19          1           0       -2.002412    3.742609    0.121160
     20          1           0       -1.732693    2.888426   -1.404747
     21          1           0       -3.181515    1.688870    1.066037
     22          1           0       -3.921270   -0.274386    1.912650
     23          1           0       -2.913460   -1.511360    2.674644
     24          1           0       -2.467033    0.201609    2.790276
     25          1           0       -1.706305   -2.750357    1.185374
     26          1           0       -1.043472   -3.155172   -1.133234
     27          1           0        1.284503   -2.667543   -1.297316
     28          1           0        0.970767   -2.801537    0.430934
     29          1           0        3.089814   -1.538258    0.471691
     30          1           0        3.016887    2.634960    0.333554
     31          1           0        0.714828    2.509856   -0.560089
     32          1           0       -0.932827    1.072288   -1.860216
     33          1           0       -0.411063   -1.194507   -2.659264
     34          1           0       -2.099548   -1.153078   -2.122426
 ---------------------------------------------------------------------

 The electronic state is 1-A.
 Alpha  occ. eigenvalues --  -19.09046 -14.37983 -10.27393 -10.24450 -10.20979
 Alpha  occ. eigenvalues --  -10.20507 -10.20365 -10.20238 -10.19715 -10.19435
 Alpha  occ. eigenvalues --  -10.19248 -10.19080 -10.19017 -10.18918 -10.18537
 Alpha  occ. eigenvalues --  -10.18409 -10.18343  -1.01670  -0.94551  -0.86871
 Alpha  occ. eigenvalues --   -0.81181  -0.80935  -0.77640  -0.75152  -0.74433
 Alpha  occ. eigenvalues --   -0.68869  -0.68548  -0.64206  -0.63538  -0.62491
 Alpha  occ. eigenvalues --   -0.57813  -0.55801  -0.54333  -0.50213  -0.48925
 Alpha  occ. eigenvalues --   -0.48039  -0.46684  -0.46123  -0.44438  -0.44044
 Alpha  occ. eigenvalues --   -0.43350  -0.41901  -0.41775  -0.41287  -0.40552
 Alpha  occ. eigenvalues --   -0.39901  -0.39285  -0.39053  -0.38550  -0.37583
 Alpha  occ. eigenvalues --   -0.36479  -0.35994  -0.34198  -0.32399  -0.31578
 Alpha  occ. eigenvalues --   -0.31071  -0.28801  -0.28076  -0.23685  -0.21907
 Alpha  occ. eigenvalues --   -0.20173
 Alpha virt. eigenvalues --   -0.03037  -0.02019   0.02567   0.07276   0.08265
 Alpha virt. eigenvalues --    0.08933   0.09386   0.10199   0.12694   0.12947
 Alpha virt. eigenvalues --    0.13319   0.14160   0.14623   0.15523   0.16172

 Mulliken charges:
               1
     1  C   -0.492325
     2  C   -0.193535
     3  C    0.175079
     4  C    0.169639
     5  C   -0.531569
     6  C   -0.199200
     7  C   -0.135725
     8  C   -0.346955
     9  C    0.358196
    10  N   -0.710937
    11  C    0.598959
    12  O   -0.543664
    13  C   -0.224949
    14  C   -0.122936
    15  C    0.090143
    16  C   -0.295447
    17  C   -0.278736
    18  H    0.159440
    19  H    0.162193
    20  H    0.154598
    21  H    0.127663
    22  H    0.158695
    23  H    0.153310
    24  H    0.161625
    25  H    0.119320
    26  H    0.133249
    27  H    0.162980
    28  H    0.155809
    29  H    0.330755
    30  H    0.145042
    31  H    0.138079
    32  H    0.136383
    33  H    0.137705
    34  H    0.147116
 Sum of Mulliken charges =  -0.00000

 Dipole moment (field-independent basis, Debye):
    X=             -4.5350    Y=             -1.4986    Z=             -1.5033  Tot=              5.0072
 Quadrupole moment (field-independent basis, Debye-Ang):
   XX=           -122.6224   YY=            -88.6862   ZZ=           -100.2680
   XY=             -7.7453   XZ=             -7.0169   YZ=             -1.3240

 Normal termination of Gaussian 16 at Fri Nov  4 19:20:09 2022.
