 Gaussian 16, Revision B.01,
 Gaussian 16:  ES64L-G16RevB.01 20-Dec-2017

 -------------------------------------------------------------------
 #p b3lyp/6-31g(d) 6D 10F nosymm GFInput td=(50-50,nstate=2) SCF=XQC
 -------------------------------------------------------------------

 ------------------------------
 Gaussian input prepared by ASE
 ------------------------------
 Symbolic Z-matrix:
 Charge =  0 Multiplicity = 1

                          Input orientation:
 ---------------------------------------------------------------------
 Center     Atomic      Atomic             Coordinates (Angstroms)
 Number     Number       Type             X           Y           Z
 ---------------------------------------------------------------------
      1          6           0        5.758012    0.483003   -2.371677
      2          6           0        6.892938    0.616352   -1.345800
      3          6           0        6.920852    2.014317   -0.712295
      4          6           0        6.851045   -0.515982   -0.282834
      5          6           0        5.574714   -0.536156    0.533110
      6          8           0        5.295677    0.249460    1.415446
      7          8           0        4.756076   -1.548746    0.146896
      8          6           0        3.499485   -1.667975    0.848842
      9          6           0        2.426344   -0.792456    0.175561
     10          7           0        1.087890   -0.891486    0.729680
     11          6           0        0.412128   -2.171021    0.609250
     12          6           0       -1.117771   -1.932664    0.608567
     13          7           0       -1.469405   -0.828849    1.523271
     14          6           0       -2.171288    0.281045    1.086059
     15          7           0       -1.917678    1.430608    1.621649
     16          6           0       -2.575521    2.614762    1.303852
     17          6           0       -2.719647    3.589662    2.308995
     18          6           0       -3.278501    4.835200    2.039390
     19          6           0       -3.692499    5.155840    0.743852
     20          6           0       -3.555712    4.211368   -0.273883
     21          6           0       -3.008829    2.965921    0.010318
     22          8           0       -2.846147    2.066005   -1.058055
     23          6           0       -3.577315    0.913593   -0.914272
     24          6           0       -4.591248    0.654523   -1.841224
     25          6           0       -5.343326   -0.510438   -1.743635
     26          6           0       -5.079924   -1.389921   -0.688592
     27         16           0       -6.037099   -2.888262   -0.534952
     28          8           0       -7.259527   -2.766124   -1.333249
     29          8           0       -6.046546   -3.320198    0.865135
     30          6           0       -4.957596   -4.138890   -1.436202
     31          9           0       -4.787829   -3.762524   -2.706911
     32          9           0       -3.759339   -4.214912   -0.840436
     33          9           0       -5.548156   -5.329702   -1.397067
     34          6           0       -4.067279   -1.142664    0.236844
     35          6           0       -3.277726    0.006870    0.119094
     36          6           0       -0.490727   -0.650594    2.594269
     37          6           0        0.893770   -0.261005    2.038806
     38          1           0        5.876362    1.219356   -3.174709
     39          1           0        5.740985   -0.514050   -2.826923
     40          1           0        4.778141    0.655516   -1.910028
     41          1           0        7.842710    0.471619   -1.880233
     42          1           0        7.770671    2.123841   -0.028595
     43          1           0        6.010014    2.210999   -0.138210
     44          1           0        7.010631    2.783823   -1.487989
     45          1           0        6.976300   -1.485271   -0.774414
     46          1           0        7.678946   -0.374606    0.421022
     47          1           0        3.646566   -1.389239    1.894516
     48          1           0        3.244468   -2.729028    0.783921
     49          1           0        2.386340   -1.056612   -0.889302
     50          1           0        2.744090    0.254499    0.241622
     51          1           0        0.682298   -2.893513    1.402842
     52          1           0        0.692147   -2.636429   -0.342388
     53          1           0       -1.637163   -2.859061    0.891422
     54          1           0       -1.435493   -1.666324   -0.400491
     55          1           0       -2.370748    3.336764    3.305527
     56          1           0       -3.378951    5.563279    2.839453
     57          1           0       -4.113948    6.132156    0.523672
     58          1           0       -3.858648    4.426550   -1.294027
     59          1           0       -4.773254    1.380103   -2.626659
     60          1           0       -6.138313   -0.728261   -2.448579
     61          1           0       -3.896272   -1.835301    1.052817
     62          1           0       -0.853165    0.113537    3.280331
     63          1           0       -0.430460   -1.601709    3.136350
     64          1           0        0.957756    0.825149    1.911783
     65          1           0        1.655689   -0.555749    2.783337
 ---------------------------------------------------------------------

 SCF Done:  E(RB3LYP) =  -2207.51670706     A.U. after   15 cycles

 Excitation energies and oscillator strengths:

 Excited state symmetry could not be determined.
 Excited State   1:      Triplet-?Sym    2.5712 eV  482.21 nm  f=0.0000  <S**2>=2.000
     141 ->142         0.60867
     141 ->143        -0.24525
     141 ->144        -0.19312
 This state for optimization and/or second-order correction.
 Total Energy, E(TD-HF/TD-DFT) =  -2207.42221749
 Copying the excited state density for this state as the 1-particle RhoCI density.

 Excited state symmetry could not be determined.
 Excited State   2:      Singlet-?Sym    3.2324 eV  383.57 nm  f=0.0575  <S**2>=0.000
     141 ->142         0.69828

 Excited state symmetry could not be determined.
 Excited State   3:      Triplet-?Sym    3.3198 eV  373.47 nm  f=0.0000  <S**2>=2.000
     136 ->142         0.11418
     141 ->142         0.27256
     141 ->143         0.60082
     141 ->144         0.10211

 Excited state symmetry could not be determined.
 Excited State   4:      Singlet-?Sym    3.4935 eV  354.90 nm  f=0.0218  <S**2>=0.000
     140 ->142         0.31005
     141 ->143         0.62723

 Alpha  occ. eigenvalues --  -89.11600 -24.76419 -24.76307 -24.76238 -19.19719
 Alpha  occ. eigenvalues --  -19.19438 -19.16659 -19.16601 -19.13639 -14.36944
 Alpha  occ. eigenvalues --  -14.33592 -14.32336 -10.46909 -10.31563 -10.28633
 Alpha  occ. eigenvalues --  -10.28115 -10.25070 -10.24844 -10.24312 -10.23783
 Alpha  occ. eigenvalues --  -10.23762 -10.23493 -10.23406 -10.22881 -10.22751
 Alpha  occ. eigenvalues --  -10.22438 -10.22388 -10.21961 -10.21565 -10.20224
 Alpha  occ. eigenvalues --  -10.19764 -10.19503 -10.19257 -10.19116 -10.18889
 Alpha  occ. eigenvalues --  -10.17831 -10.17136  -8.14624  -6.11023  -6.10999
 Alpha  occ. eigenvalues --   -6.10934  -1.34273  -1.25601  -1.25523  -1.12303
 Alpha  occ. eigenvalues --   -1.10045  -1.09122  -1.02252  -1.01394  -0.98733
 Alpha  occ. eigenvalues --   -0.93730  -0.90516  -0.89735  -0.84887  -0.81583
 Alpha  occ. eigenvalues --   -0.80554  -0.79804  -0.77918  -0.77159  -0.76017
 Alpha  occ. eigenvalues --   -0.75186  -0.73751  -0.72628  -0.70230  -0.68622
 Alpha  occ. eigenvalues --   -0.68408  -0.67126  -0.66439  -0.65125  -0.64104
 Alpha  occ. eigenvalues --   -0.62181  -0.61853  -0.61683  -0.60929  -0.59998
 Alpha  occ. eigenvalues --   -0.58628  -0.58128  -0.56231  -0.55450  -0.53431
 Alpha  occ. eigenvalues --   -0.53016  -0.52430  -0.51431  -0.50977  -0.50612
 Alpha  occ. eigenvalues --   -0.50002  -0.49183  -0.49083  -0.48807  -0.48387
 Alpha  occ. eigenvalues --   -0.47961  -0.47466  -0.47043  -0.46569  -0.46476
 Alpha  occ. eigenvalues --   -0.46255  -0.46087  -0.45616  -0.45412  -0.45074
 Alpha  occ. eigenvalues --   -0.44805  -0.43778  -0.43389  -0.43362  -0.43307
 Alpha  occ. eigenvalues --   -0.43235  -0.42966  -0.41922  -0.41458  -0.40893
 Alpha  occ. eigenvalues --   -0.39884  -0.39694  -0.39407  -0.38935  -0.38525
 Alpha  occ. eigenvalues --   -0.38213  -0.37564  -0.37139  -0.36908  -0.36744
 Alpha  occ. eigenvalues --   -0.36273  -0.35384  -0.34916  -0.34454  -0.34426
 Alpha  occ. eigenvalues --   -0.34079  -0.33652  -0.33273  -0.33189  -0.32543
 Alpha  occ. eigenvalues --   -0.32084  -0.31110  -0.30604  -0.28889  -0.28348
 Alpha  occ. eigenvalues --   -0.27816  -0.26964  -0.25207  -0.24628  -0.21477
 Alpha  occ. eigenvalues --   -0.20723
 Alpha virt. eigenvalues --   -0.06556  -0.05469  -0.01289   0.00109   0.00586
 Alpha virt. eigenvalues --    0.03310   0.04240   0.05764   0.06326   0.06629
 Alpha virt. eigenvalues --    0.07036   0.08267   0.08596   0.09684   0.09885

 Mulliken charges:
               1
     1  C   -0.448623
     2  C   -0.082313
     3  C   -0.443067
     4  C   -0.339533
     5  C    0.615186
     6  O   -0.479432
     7  O   -0.462222
     8  C   -0.062959
     9  C   -0.155429
    10  N   -0.393354
    11  C   -0.160683
    12  C   -0.131416
    13  N   -0.439693
    14  C    0.472943
    15  N   -0.587681
    16  C    0.289687
    17  C   -0.173255
    18  C   -0.127158
    19  C   -0.145031
    20  C   -0.167031
    21  C    0.278526
    22  O   -0.571932
    23  C    0.310045
    24  C   -0.156735
    25  C   -0.138275
    26  C   -0.181399
    27  S    1.082194
    28  O   -0.514404
    29  O   -0.516759
    30  C    0.609006
    31  F   -0.233223
    32  F   -0.238930
    33  F   -0.218321
    34  C   -0.192024
    35  C    0.074465
    36  C   -0.173072
    37  C   -0.112755
    38  H    0.146444
    39  H    0.145035
    40  H    0.149279
    41  H    0.133751
    42  H    0.142491
    43  H    0.167695
    44  H    0.138909
    45  H    0.158119
    46  H    0.165804
    47  H    0.172549
    48  H    0.150718
    49  H    0.148736
    50  H    0.167713
    51  H    0.126861
    52  H    0.152768
    53  H    0.145893
    54  H    0.167702
    55  H    0.136897
    56  H    0.131947
    57  H    0.133348
    58  H    0.138046
    59  H    0.163804
    60  H    0.194000
    61  H    0.202018
    62  H    0.189530
    63  H    0.150419
    64  H    0.170604
    65  H    0.123576
 Sum of Mulliken charges =  -0.00000

 Dipole moment (field-independent basis, Debye):
    X=              3.7047    Y=              0.3310    Z=             -1.8625  Tot=              4.1598
 Quadrupole moment (field-independent basis, Debye-Ang):
   XX=           -248.3494   YY=           -218.3321   ZZ=           -214.5992
   XY=            -29.3417   XZ=              0.3090   YZ=             -1.7865

 Normal termination of Gaussian 16 at Sat Nov  5 11:53:59 2022.
