 Gaussian 16, Revision B.01,
 Gaussian 16:  ES64L-G16RevB.01 20-Dec-2017

 -----------------------------
 #p b3lyp/6-31g(d) opt SCF=XQC
 -----------------------------

 ------------------------------
 Gaussian input prepared by ASE
 ------------------------------
 Symbolic Z-matrix:
 Charge =  0 Multiplicity = 1

 SCF Done:  E(RB3LYP) =  -2207.50343353     A.U. after   15 cycles
 SCF Done:  E(RB3LYP) =  -2207.51468696     A.U. after   12 cycles
 SCF Done:  E(RB3LYP) =  -2207.51615151     A.U. after   12 cycles
 SCF Done:  E(RB3LYP) =  -2207.51621853     A.U. after   12 cycles
 SCF Done:  E(RB3LYP) =  -2207.51638085     A.U. after   12 cycles
 SCF Done:  E(RB3LYP) =  -2207.51664540     A.U. after   11 cycles
 SCF Done:  E(RB3LYP) =  -2207.51668213     A.U. after   11 cycles
 SCF Done:  E(RB3LYP) =  -2207.51669480     A.U. after   10 cycles
 SCF Done:  E(RB3LYP) =  -2207.51669778     A.U. after    9 cycles
 SCF Done:  E(RB3LYP) =  -2207.51670215     A.U. after    9 cycles
 SCF Done:  E(RB3LYP) =  -2207.51670406     A.U. after    9 cycles
 SCF Done:  E(RB3LYP) =  -2207.51670505     A.U. after    9 cycles
 SCF Done:  E(RB3LYP) =  -2207.51670548     A.U. after    8 cycles
 SCF Done:  E(RB3LYP) =  -2207.51670552     A.U. after    6 cycles
 SCF Done:  E(RB3LYP) =  -2207.51670555     A.U. after    6 cycles
 Optimization completed.
    -- Stationary point found.

                         Standard orientation:
 ---------------------------------------------------------------------
 Center     Atomic      Atomic             Coordinates (Angstroms)
 Number     Number       Type             X           Y           Z
 ---------------------------------------------------------------------
      1          6           0       -6.832058   -0.982111    2.629117
      2          6           0       -8.030417   -0.850158    1.677915
      3          6           0       -8.355188    0.619972    1.378489
      4          6           0       -7.841308   -1.691145    0.385317
      5          6           0       -6.633837   -1.283003   -0.433601
      6          8           0       -6.558303   -0.283941   -1.118977
      7          8           0       -5.619806   -2.176599   -0.299830
      8          6           0       -4.406551   -1.892024   -1.029895
      9          6           0       -3.477247   -0.994093   -0.192288
     10          7           0       -2.178750   -0.706741   -0.775082
     11          6           0       -1.270847   -1.824976   -0.958468
     12          6           0        0.185338   -1.299650   -0.927429
     13          7           0        0.270971    0.024841   -1.573283
     14          6           0        0.778644    1.126449   -0.906660
     15          7           0        0.284496    2.293703   -1.163577
     16          6           0        0.728125    3.483956   -0.595718
     17          6           0        0.628893    4.664696   -1.355668
     18          6           0        0.961177    5.904958   -0.819284
     19          6           0        1.383900    6.007576    0.508645
     20          6           0        1.485411    4.854589    1.287645
     21          6           0        1.163991    3.619948    0.736883
     22          8           0        1.234799    2.493401    1.575700
     23          6           0        2.157825    1.565485    1.162993
     24          6           0        3.255078    1.311526    1.991219
     25          6           0        4.203669    0.365538    1.620327
     26          6           0        4.046780   -0.294848    0.397518
     27         16           0        5.255242   -1.507347   -0.106746
     28          8           0        6.478483   -1.328063    0.679426
     29          8           0        5.262368   -1.611040   -1.568285
     30          6           0        4.482252   -3.110829    0.503978
     31          9           0        4.320603   -3.063042    1.829405
     32          9           0        3.286072   -3.285791   -0.074879
     33          9           0        5.280683   -4.125784    0.186646
     34          6           0        2.953078   -0.052264   -0.431932
     35          6           0        1.971790    0.867259   -0.044325
     36          6           0       -0.785157    0.240026   -2.560658
     37          6           0       -2.182786    0.221199   -1.909944
     38          1           0       -7.037804   -0.477488    3.579962
     39          1           0       -6.603049   -2.031945    2.846048
     40          1           0       -5.930318   -0.525218    2.203510
     41          1           0       -8.903516   -1.290619    2.180236
     42          1           0       -9.249329    0.709479    0.750687
     43          1           0       -7.532276    1.111229    0.849940
     44          1           0       -8.540691    1.167850    2.309789
     45          1           0       -7.754871   -2.750091    0.646130
     46          1           0       -8.721065   -1.562496   -0.255229
     47          1           0       -4.664270   -1.424572   -1.982696
     48          1           0       -3.955221   -2.871047   -1.211270
     49          1           0       -3.326127   -1.472649    0.784165
     50          1           0       -3.987544   -0.040501   -0.014249
     51          1           0       -1.448174   -2.393998   -1.890960
     52          1           0       -1.402831   -2.533323   -0.132965
     53          1           0        0.850419   -2.022155   -1.421028
     54          1           0        0.506857   -1.204772    0.110697
     55          1           0        0.275033    4.573852   -2.378065
     56          1           0        0.877109    6.796210   -1.434826
     57          1           0        1.628593    6.974582    0.937965
     58          1           0        1.802599    4.895250    2.325192
     59          1           0        3.344881    1.868140    2.917835
     60          1           0        5.065430    0.157164    2.245103
     61          1           0        2.866135   -0.568541   -1.380985
     62          1           0       -0.612264    1.191678   -3.061064
     63          1           0       -0.699266   -0.561952   -3.303327
     64          1           0       -2.440118    1.219236   -1.538915
     65          1           0       -2.919093   -0.045322   -2.690033
 ---------------------------------------------------------------------

 The electronic state is 1-A.
 Alpha  occ. eigenvalues --  -89.11600 -24.76419 -24.76307 -24.76238 -19.19719
 Alpha  occ. eigenvalues --  -19.19438 -19.16659 -19.16601 -19.13639 -14.36944
 Alpha  occ. eigenvalues --  -14.33592 -14.32336 -10.46909 -10.31563 -10.28633
 Alpha  occ. eigenvalues --  -10.28115 -10.25070 -10.24844 -10.24312 -10.23783
 Alpha  occ. eigenvalues --  -10.23762 -10.23493 -10.23406 -10.22881 -10.22751
 Alpha  occ. eigenvalues --  -10.22438 -10.22388 -10.21961 -10.21565 -10.20224
 Alpha  occ. eigenvalues --  -10.19764 -10.19503 -10.19257 -10.19116 -10.18889
 Alpha  occ. eigenvalues --  -10.17831 -10.17136  -8.14625  -6.11023  -6.10999
 Alpha  occ. eigenvalues --   -6.10934  -1.34273  -1.25601  -1.25523  -1.12303
 Alpha  occ. eigenvalues --   -1.10045  -1.09122  -1.02252  -1.01394  -0.98732
 Alpha  occ. eigenvalues --   -0.93730  -0.90516  -0.89735  -0.84887  -0.81583
 Alpha  occ. eigenvalues --   -0.80554  -0.79804  -0.77918  -0.77159  -0.76017
 Alpha  occ. eigenvalues --   -0.75186  -0.73751  -0.72628  -0.70230  -0.68622
 Alpha  occ. eigenvalues --   -0.68408  -0.67126  -0.66439  -0.65125  -0.64104
 Alpha  occ. eigenvalues --   -0.62181  -0.61853  -0.61683  -0.60929  -0.59998
 Alpha  occ. eigenvalues --   -0.58628  -0.58128  -0.56231  -0.55450  -0.53431
 Alpha  occ. eigenvalues --   -0.53016  -0.52430  -0.51431  -0.50977  -0.50612
 Alpha  occ. eigenvalues --   -0.50002  -0.49183  -0.49083  -0.48807  -0.48387
 Alpha  occ. eigenvalues --   -0.47961  -0.47466  -0.47043  -0.46569  -0.46476
 Alpha  occ. eigenvalues --   -0.46255  -0.46087  -0.45616  -0.45412  -0.45074
 Alpha  occ. eigenvalues --   -0.44805  -0.43778  -0.43389  -0.43362  -0.43307
 Alpha  occ. eigenvalues --   -0.43235  -0.42966  -0.41921  -0.41458  -0.40893
 Alpha  occ. eigenvalues --   -0.39884  -0.39694  -0.39407  -0.38935  -0.38525
 Alpha  occ. eigenvalues --   -0.38213  -0.37564  -0.37139  -0.36908  -0.36744
 Alpha  occ. eigenvalues --   -0.36273  -0.35384  -0.34916  -0.34454  -0.34426
 Alpha  occ. eigenvalues --   -0.34079  -0.33652  -0.33273  -0.33189  -0.32543
 Alpha  occ. eigenvalues --   -0.32084  -0.31110  -0.30604  -0.28889  -0.28348
 Alpha  occ. eigenvalues --   -0.27816  -0.26964  -0.25207  -0.24628  -0.21477
 Alpha  occ. eigenvalues --   -0.20723
 Alpha virt. eigenvalues --   -0.06556  -0.05469  -0.01288   0.00109   0.00586
 Alpha virt. eigenvalues --    0.03310   0.04240   0.05764   0.06326   0.06629
 Alpha virt. eigenvalues --    0.07036   0.08267   0.08596   0.09684   0.09885

 Mulliken charges:
               1
     1  C   -0.448653
     2  C   -0.082279
     3  C   -0.443081
     4  C   -0.339523
     5  C    0.615171
     6  O   -0.479427
     7  O   -0.462219
     8  C   -0.062951
     9  C   -0.155458
    10  N   -0.393351
    11  C   -0.160687
    12  C   -0.131404
    13  N   -0.439688
    14  C    0.472953
    15  N   -0.587685
    16  C    0.289712
    17  C   -0.173260
    18  C   -0.127162
    19  C   -0.145027
    20  C   -0.167043
    21  C    0.278530
    22  O   -0.571934
    23  C    0.310034
    24  C   -0.156721
    25  C   -0.138266
    26  C   -0.181400
    27  S    1.082183
    28  O   -0.514399
    29  O   -0.516758
    30  C    0.609003
    31  F   -0.233220
    32  F   -0.238932
    33  F   -0.218319
    34  C   -0.192035
    35  C    0.074450
    36  C   -0.173087
    37  C   -0.112740
    38  H    0.146448
    39  H    0.145042
    40  H    0.149281
    41  H    0.133748
    42  H    0.142493
    43  H    0.167698
    44  H    0.138909
    45  H    0.158115
    46  H    0.165802
    47  H    0.172548
    48  H    0.150719
    49  H    0.148740
    50  H    0.167719
    51  H    0.126862
    52  H    0.152766
    53  H    0.145893
    54  H    0.167698
    55  H    0.136895
    56  H    0.131947
    57  H    0.133348
    58  H    0.138047
    59  H    0.163804
    60  H    0.194000
    61  H    0.202021
    62  H    0.189531
    63  H    0.150420
    64  H    0.170602
    65  H    0.123575
 Sum of Mulliken charges =  -0.00000

 Dipole moment (field-independent basis, Debye):
    X=             -3.5853    Y=             -0.8132    Z=              1.9463  Tot=              4.1598
 Quadrupole moment (field-independent basis, Debye-Ang):
   XX=           -249.0509   YY=           -209.4717   ZZ=           -213.7551
   XY=             21.0828   XZ=              4.4401   YZ=              2.0713

 Normal termination of Gaussian 16 at Fri Nov  4 20:11:24 2022.
