 Gaussian 16, Revision B.01,
 Gaussian 16:  ES64L-G16RevB.01 20-Dec-2017

 -----------------------------
 #p b3lyp/6-31g(d) opt SCF=XQC
 -----------------------------

 ------------------------------
 Gaussian input prepared by ASE
 ------------------------------
 Symbolic Z-matrix:
 Charge =  0 Multiplicity = 1

 SCF Done:  E(RB3LYP) =  -1910.16737671     A.U. after   15 cycles
 SCF Done:  E(RB3LYP) =  -1910.17485387     A.U. after   12 cycles
 SCF Done:  E(RB3LYP) =  -1910.17554913     A.U. after   11 cycles
 SCF Done:  E(RB3LYP) =  -1910.17573938     A.U. after   11 cycles
 SCF Done:  E(RB3LYP) =  -1910.17581858     A.U. after   11 cycles
 SCF Done:  E(RB3LYP) =  -1910.17587138     A.U. after   10 cycles
 SCF Done:  E(RB3LYP) =  -1910.17594855     A.U. after   11 cycles
 SCF Done:  E(RB3LYP) =  -1910.17605647     A.U. after   11 cycles
 SCF Done:  E(RB3LYP) =  -1910.17612406     A.U. after   11 cycles
 SCF Done:  E(RB3LYP) =  -1910.17616256     A.U. after   11 cycles
 SCF Done:  E(RB3LYP) =  -1910.17617227     A.U. after    9 cycles
 SCF Done:  E(RB3LYP) =  -1910.17617786     A.U. after    9 cycles
 SCF Done:  E(RB3LYP) =  -1910.17618114     A.U. after    9 cycles
 SCF Done:  E(RB3LYP) =  -1910.17618153     A.U. after    7 cycles
 SCF Done:  E(RB3LYP) =  -1910.17618190     A.U. after    7 cycles
 SCF Done:  E(RB3LYP) =  -1910.17618236     A.U. after    8 cycles
 SCF Done:  E(RB3LYP) =  -1910.17618255     A.U. after    7 cycles
 SCF Done:  E(RB3LYP) =  -1910.17618268     A.U. after    7 cycles
 SCF Done:  E(RB3LYP) =  -1910.17618272     A.U. after    6 cycles
 Optimization completed.
    -- Stationary point found.

                         Standard orientation:
 ---------------------------------------------------------------------
 Center     Atomic      Atomic             Coordinates (Angstroms)
 Number     Number       Type             X           Y           Z
 ---------------------------------------------------------------------
      1          6           0        7.882069   -2.705261   -0.144757
      2          6           0        6.427866   -3.119872   -0.023316
      3          8           0        5.632552   -1.913395   -0.058004
      4          6           0        4.299833   -2.095038    0.040189
      5          8           0        3.765966   -3.187054    0.152113
      6          6           0        3.550939   -0.840287   -0.001051
      7         16           0        1.811455   -0.916708    0.114157
      8          6           0        1.749295    0.824859   -0.005642
      9          6           0        0.499273    1.585213    0.020176
     10          6           0        0.567436    3.015710   -0.078953
     11          6           0       -0.569644    3.764917   -0.075268
     12          7           0       -1.785200    3.143232    0.031661
     13          7           0       -2.973438    3.781679    0.028027
     14          6           0       -3.870500    2.792538    0.150398
     15          6           0       -3.296178    1.509917    0.235263
     16          6           0       -3.969161    0.217447    0.387305
     17          6           0       -3.823117   -0.729432    1.455424
     18          6           0       -2.956820   -0.626652    2.673598
     19          7           0       -4.611120   -1.779654    1.280927
     20          7           0       -5.273698   -1.527736    0.113030
     21          6           0       -6.187865   -2.506200   -0.362966
     22          9           0       -7.411574   -1.948595   -0.582873
     23          9           0       -5.777586   -3.015129   -1.560658
     24          6           0       -4.915900   -0.334564   -0.461681
     25          6           0       -5.494815    0.160840   -1.747899
     26          6           0       -1.912597    1.757798    0.149387
     27          6           0       -0.739096    0.976882    0.130766
     28          7           0        2.927356    1.406746   -0.120315
     29          6           0        3.935144    0.490903   -0.119069
     30          8           0        5.211358    0.874001   -0.226225
     31          6           0        5.479935    2.287306   -0.342333
     32          6           0        6.985136    2.444128   -0.448252
     33          1           0        8.059120   -2.172959   -1.084728
     34          1           0        8.171320   -2.048850    0.682101
     35          1           0        8.524153   -3.592654   -0.123199
     36          1           0        6.115637   -3.773335   -0.844451
     37          1           0        6.227050   -3.649453    0.913674
     38          1           0        1.534569    3.493561   -0.162401
     39          1           0       -0.607851    4.843868   -0.154304
     40          1           0       -4.923555    3.041192    0.188269
     41          1           0       -3.124347    0.322602    3.195330
     42          1           0       -3.183648   -1.448287    3.357524
     43          1           0       -1.889907   -0.673946    2.425528
     44          1           0       -6.260513   -3.304229    0.375944
     45          1           0       -4.939032    1.039216   -2.084527
     46          1           0       -6.548648    0.440030   -1.634470
     47          1           0       -5.443596   -0.607687   -2.525899
     48          1           0       -0.841968   -0.101855    0.192996
     49          1           0        5.077189    2.803892    0.535735
     50          1           0        4.966025    2.680316   -1.226346
     51          1           0        7.370078    1.917635   -1.327119
     52          1           0        7.481561    2.041366    0.440079
     53          1           0        7.241806    3.505208   -0.538741
 ---------------------------------------------------------------------

 The electronic state is 1-A.
 Alpha  occ. eigenvalues --  -88.92608 -24.71656 -24.71489 -19.19258 -19.18521
 Alpha  occ. eigenvalues --  -19.12699 -14.44399 -14.41542 -14.35928 -14.35359
 Alpha  occ. eigenvalues --  -14.34963 -10.38936 -10.31687 -10.29621 -10.27773
 Alpha  occ. eigenvalues --  -10.25183 -10.25004 -10.24612 -10.24099 -10.23964
 Alpha  occ. eigenvalues --  -10.23401 -10.22704 -10.22472 -10.22039 -10.21957
 Alpha  occ. eigenvalues --  -10.21321 -10.20249 -10.19902 -10.19712 -10.18956
 Alpha  occ. eigenvalues --  -10.18674 -10.18443  -7.98669  -5.95075  -5.94712
 Alpha  occ. eigenvalues --   -5.94367  -1.26395  -1.20094  -1.09673  -1.08726
 Alpha  occ. eigenvalues --   -1.07259  -1.05359  -1.00631  -0.97576  -0.89620
 Alpha  occ. eigenvalues --   -0.86065  -0.84456  -0.82180  -0.81861  -0.80241
 Alpha  occ. eigenvalues --   -0.78486  -0.77304  -0.75485  -0.73920  -0.73050
 Alpha  occ. eigenvalues --   -0.71245  -0.68349  -0.68140  -0.65674  -0.65045
 Alpha  occ. eigenvalues --   -0.62795  -0.62190  -0.60777  -0.59583  -0.58483
 Alpha  occ. eigenvalues --   -0.57048  -0.56371  -0.55800  -0.54592  -0.54255
 Alpha  occ. eigenvalues --   -0.53093  -0.52359  -0.50562  -0.49715  -0.49686
 Alpha  occ. eigenvalues --   -0.48753  -0.48193  -0.47797  -0.46833  -0.46132
 Alpha  occ. eigenvalues --   -0.45891  -0.45435  -0.44377  -0.43724  -0.42839
 Alpha  occ. eigenvalues --   -0.42630  -0.42498  -0.41983  -0.41715  -0.41600
 Alpha  occ. eigenvalues --   -0.41477  -0.40905  -0.40645  -0.40099  -0.39915
 Alpha  occ. eigenvalues --   -0.39652  -0.39220  -0.39110  -0.38977  -0.38505
 Alpha  occ. eigenvalues --   -0.37648  -0.37623  -0.36616  -0.36489  -0.35781
 Alpha  occ. eigenvalues --   -0.35521  -0.34106  -0.33362  -0.32270  -0.30846
 Alpha  occ. eigenvalues --   -0.30175  -0.29672  -0.29536  -0.28991  -0.26635
 Alpha  occ. eigenvalues --   -0.26617  -0.25918  -0.25048  -0.23071  -0.20630
 Alpha virt. eigenvalues --   -0.08405  -0.02697  -0.01124   0.00063   0.01003
 Alpha virt. eigenvalues --    0.03133   0.04094   0.07093   0.08045   0.09354
 Alpha virt. eigenvalues --    0.10056   0.10433   0.10575   0.10838   0.11226

 Mulliken charges:
               1
     1  C   -0.459339
     2  C   -0.031983
     3  O   -0.468275
     4  C    0.645762
     5  O   -0.506283
     6  C   -0.302251
     7  S    0.304425
     8  C    0.052131
     9  C    0.140831
    10  C   -0.210586
    11  C    0.100326
    12  N   -0.376923
    13  N   -0.312467
    14  C    0.040282
    15  C   -0.134322
    16  C   -0.156962
    17  C    0.342203
    18  C   -0.525321
    19  N   -0.366616
    20  N   -0.378787
    21  C    0.583135
    22  F   -0.283745
    23  F   -0.280276
    24  C    0.397926
    25  C   -0.528406
    26  C    0.414286
    27  C   -0.271745
    28  N   -0.528820
    29  C    0.585298
    30  O   -0.490842
    31  C   -0.028394
    32  C   -0.459049
    33  H    0.161739
    34  H    0.161689
    35  H    0.150867
    36  H    0.160296
    37  H    0.160261
    38  H    0.173731
    39  H    0.186316
    40  H    0.155483
    41  H    0.167824
    42  H    0.177434
    43  H    0.161654
    44  H    0.168216
    45  H    0.175167
    46  H    0.181187
    47  H    0.181507
    48  H    0.177663
    49  H    0.155756
    50  H    0.155959
    51  H    0.165358
    52  H    0.165308
    53  H    0.151371
 Sum of Mulliken charges =  -0.00000

 Dipole moment (field-independent basis, Debye):
    X=              2.8564    Y=              2.8714    Z=             -0.4577  Tot=              4.0760
 Quadrupole moment (field-independent basis, Debye-Ang):
   XX=           -166.6837   YY=           -191.5520   ZZ=           -188.4077
   XY=              7.0243   XZ=             -0.1154   YZ=             -1.2370

 Normal termination of Gaussian 16 at Fri Nov  4 20:07:26 2022.
