 Gaussian 16, Revision B.01,
 Gaussian 16:  ES64L-G16RevB.01 20-Dec-2017

 -------------------------------------------------------------------
 #p b3lyp/6-31g(d) 6D 10F nosymm GFInput td=(50-50,nstate=2) SCF=XQC
 -------------------------------------------------------------------

 ------------------------------
 Gaussian input prepared by ASE
 ------------------------------
 Symbolic Z-matrix:
 Charge =  0 Multiplicity = 1

                          Input orientation:
 ---------------------------------------------------------------------
 Center     Atomic      Atomic             Coordinates (Angstroms)
 Number     Number       Type             X           Y           Z
 ---------------------------------------------------------------------
      1          6           0        7.497461    0.090849   -2.598631
      2          6           0        6.097072   -0.321461   -3.011263
      3          8           0        5.212882    0.002567   -1.914664
      4          6           0        3.913195   -0.300092   -2.109562
      5          8           0        3.476759   -0.812778   -3.127755
      6          6           0        3.070796    0.050723   -0.967530
      7         16           0        1.361008   -0.281184   -1.074214
      8          6           0        1.155843    0.376562    0.530949
      9          6           0       -0.140084    0.450128    1.206612
     10          6           0       -0.190338    1.004730    2.529747
     11          6           0       -1.375425    1.108535    3.192370
     12          7           0       -2.524621    0.671576    2.589115
     13          7           0       -3.752783    0.741301    3.142553
     14          6           0       -4.556520    0.209796    2.210026
     15          6           0       -3.881128   -0.210919    1.048558
     16          6           0       -4.436625   -0.840852   -0.151904
     17          6           0       -4.118174   -2.129905   -0.695702
     18          6           0       -3.150132   -3.145003   -0.168965
     19          7           0       -4.837295   -2.388786   -1.777465
     20          7           0       -5.625241   -1.285253   -1.944223
     21          6           0       -6.503734   -1.251978   -3.060829
     22          9           0       -7.781564   -1.008324   -2.655207
     23          9           0       -6.171944   -0.238712   -3.912304
     24          6           0       -5.415297   -0.324957   -0.987286
     25          6           0       -6.149932    0.976741   -0.958664
     26          6           0       -2.534806    0.106966    1.312154
     27          6           0       -1.312588    0.011343    0.616226
     28          7           0        2.270104    0.803902    1.092530
     29          6           0        3.339966    0.627825    0.268637
     30          8           0        4.567439    0.996311    0.648761
     31          6           0        4.715795    1.584403    1.958412
     32          6           0        6.187829    1.906221    2.134454
     33          1           0        7.543340    1.164834   -2.392021
     34          1           0        7.813509   -0.446417   -1.698800
     35          1           0        8.204113   -0.137217   -3.404131
     36          1           0        5.758537    0.208718   -3.907404
     37          1           0        6.027115   -1.394500   -3.217244
     38          1           0        0.725424    1.345536    2.994377
     39          1           0       -1.502688    1.520599    4.185269
     40          1           0       -5.616995    0.132363    2.413948
     41          1           0       -3.338722   -3.354479    0.890236
     42          1           0       -3.247855   -4.075346   -0.733945
     43          1           0       -2.111184   -2.804253   -0.249915
     44          1           0       -6.444979   -2.208947   -3.579361
     45          1           0       -5.696937    1.635767   -0.214194
     46          1           0       -7.206300    0.837761   -0.701476
     47          1           0       -6.114888    1.471458   -1.934660
     48          1           0       -1.326971   -0.400987   -0.387720
     49          1           0        4.360470    0.875347    2.714093
     50          1           0        4.091740    2.482416    2.022955
     51          1           0        6.526158    2.610848    1.368415
     52          1           0        6.795680    0.999048    2.061367
     53          1           0        6.353515    2.357173    3.118908
 ---------------------------------------------------------------------

 SCF Done:  E(RB3LYP) =  -1910.17618025     A.U. after   15 cycles

 Excitation energies and oscillator strengths:

 Excited state symmetry could not be determined.
 Excited State   1:      Triplet-?Sym    1.9459 eV  637.16 nm  f=0.0000  <S**2>=2.000
     119 ->121        -0.16656
     120 ->121         0.66827
 This state for optimization and/or second-order correction.
 Total Energy, E(TD-HF/TD-DFT) =  -1910.10467006
 Copying the excited state density for this state as the 1-particle RhoCI density.

 Excited state symmetry could not be determined.
 Excited State   2:      Triplet-?Sym    2.6953 eV  460.00 nm  f=0.0000  <S**2>=2.000
     117 ->121        -0.11817
     119 ->121         0.62723
     120 ->121         0.13079
     120 ->122         0.16005
     120 ->123        -0.14007

 Excited state symmetry could not be determined.
 Excited State   3:      Singlet-?Sym    2.9650 eV  418.16 nm  f=0.3072  <S**2>=0.000
     119 ->121         0.11801
     120 ->121         0.69315

 Excited state symmetry could not be determined.
 Excited State   4:      Singlet-?Sym    3.5615 eV  348.12 nm  f=0.2194  <S**2>=0.000
     119 ->121         0.68677
     120 ->121        -0.11645

 Alpha  occ. eigenvalues --  -88.92608 -24.71656 -24.71489 -19.19258 -19.18520
 Alpha  occ. eigenvalues --  -19.12699 -14.44399 -14.41542 -14.35928 -14.35359
 Alpha  occ. eigenvalues --  -14.34963 -10.38936 -10.31687 -10.29621 -10.27773
 Alpha  occ. eigenvalues --  -10.25183 -10.25003 -10.24612 -10.24099 -10.23964
 Alpha  occ. eigenvalues --  -10.23401 -10.22704 -10.22472 -10.22040 -10.21957
 Alpha  occ. eigenvalues --  -10.21321 -10.20249 -10.19902 -10.19712 -10.18956
 Alpha  occ. eigenvalues --  -10.18674 -10.18443  -7.98669  -5.95075  -5.94712
 Alpha  occ. eigenvalues --   -5.94367  -1.26395  -1.20094  -1.09673  -1.08726
 Alpha  occ. eigenvalues --   -1.07259  -1.05359  -1.00631  -0.97576  -0.89620
 Alpha  occ. eigenvalues --   -0.86065  -0.84456  -0.82180  -0.81861  -0.80241
 Alpha  occ. eigenvalues --   -0.78486  -0.77304  -0.75485  -0.73920  -0.73050
 Alpha  occ. eigenvalues --   -0.71245  -0.68349  -0.68140  -0.65674  -0.65045
 Alpha  occ. eigenvalues --   -0.62795  -0.62190  -0.60777  -0.59583  -0.58483
 Alpha  occ. eigenvalues --   -0.57048  -0.56371  -0.55800  -0.54592  -0.54255
 Alpha  occ. eigenvalues --   -0.53093  -0.52359  -0.50562  -0.49715  -0.49686
 Alpha  occ. eigenvalues --   -0.48753  -0.48193  -0.47797  -0.46833  -0.46132
 Alpha  occ. eigenvalues --   -0.45891  -0.45435  -0.44377  -0.43724  -0.42839
 Alpha  occ. eigenvalues --   -0.42630  -0.42498  -0.41983  -0.41715  -0.41600
 Alpha  occ. eigenvalues --   -0.41477  -0.40905  -0.40645  -0.40099  -0.39915
 Alpha  occ. eigenvalues --   -0.39652  -0.39220  -0.39110  -0.38977  -0.38505
 Alpha  occ. eigenvalues --   -0.37648  -0.37623  -0.36616  -0.36489  -0.35781
 Alpha  occ. eigenvalues --   -0.35521  -0.34106  -0.33362  -0.32270  -0.30846
 Alpha  occ. eigenvalues --   -0.30175  -0.29672  -0.29536  -0.28991  -0.26635
 Alpha  occ. eigenvalues --   -0.26617  -0.25918  -0.25048  -0.23071  -0.20630
 Alpha virt. eigenvalues --   -0.08405  -0.02697  -0.01124   0.00063   0.01002
 Alpha virt. eigenvalues --    0.03133   0.04093   0.07093   0.08045   0.09354
 Alpha virt. eigenvalues --    0.10056   0.10432   0.10575   0.10838   0.11226

 Mulliken charges:
               1
     1  C   -0.459336
     2  C   -0.031985
     3  O   -0.468271
     4  C    0.645758
     5  O   -0.506283
     6  C   -0.302245
     7  S    0.304434
     8  C    0.052121
     9  C    0.140828
    10  C   -0.210592
    11  C    0.100348
    12  N   -0.376942
    13  N   -0.312469
    14  C    0.040294
    15  C   -0.134330
    16  C   -0.156955
    17  C    0.342210
    18  C   -0.525330
    19  N   -0.366621
    20  N   -0.378778
    21  C    0.583147
    22  F   -0.283753
    23  F   -0.280278
    24  C    0.397910
    25  C   -0.528402
    26  C    0.414280
    27  C   -0.271735
    28  N   -0.528810
    29  C    0.585281
    30  O   -0.490838
    31  C   -0.028392
    32  C   -0.459049
    33  H    0.161734
    34  H    0.161688
    35  H    0.150868
    36  H    0.160295
    37  H    0.160262
    38  H    0.173731
    39  H    0.186316
    40  H    0.155483
    41  H    0.167826
    42  H    0.177436
    43  H    0.161654
    44  H    0.168216
    45  H    0.175166
    46  H    0.181187
    47  H    0.181505
    48  H    0.177662
    49  H    0.155755
    50  H    0.155959
    51  H    0.165359
    52  H    0.165308
    53  H    0.151369
 Sum of Mulliken charges =  -0.00000

 Dipole moment (field-independent basis, Debye):
    X=              2.5738    Y=              1.6683    Z=              2.6844  Tot=              4.0760
 Quadrupole moment (field-independent basis, Debye-Ang):
   XX=           -170.7486   YY=           -187.4675   ZZ=           -193.1063
   XY=              3.5790   XZ=              5.3547   YZ=              0.2114

 Normal termination of Gaussian 16 at Sat Nov  5 11:57:01 2022.
