 Gaussian 16, Revision B.01,
 Gaussian 16:  ES64L-G16RevB.01 20-Dec-2017

 -------------------------------------------------------------------
 #p b3lyp/6-31g(d) 6D 10F nosymm GFInput td=(50-50,nstate=2) SCF=XQC
 -------------------------------------------------------------------

 ------------------------------
 Gaussian input prepared by ASE
 ------------------------------
 Symbolic Z-matrix:
 Charge =  0 Multiplicity = 1

                          Input orientation:
 ---------------------------------------------------------------------
 Center     Atomic      Atomic             Coordinates (Angstroms)
 Number     Number       Type             X           Y           Z
 ---------------------------------------------------------------------
      1          6           0       -6.376547    0.162334    1.216581
      2          6           0       -5.250528   -0.614657    0.527802
      3          8           0       -5.903973   -1.792792    0.027140
      4          6           0       -4.632632    0.177918   -0.642309
      5          6           0       -3.754997    1.354305   -0.183512
      6          6           0       -2.634096    0.931486    0.793094
      7          6           0       -3.250147    0.153082    1.985324
      8          6           0       -2.158908   -0.289660    2.978104
      9          6           0       -1.033843   -1.078954    2.299534
     10          6           0       -0.405836   -0.299682    1.132514
     11          6           0       -1.464858    0.175127    0.106740
     12          6           0       -0.804047    1.046435   -1.003539
     13          6           0        0.715674    0.823859   -1.174503
     14          6           0        1.092005   -0.657811   -1.022873
     15          6           0        0.599775   -1.497064   -2.201836
     16          6           0        2.579441   -0.919406   -0.613542
     17          6           0        3.682127   -0.002367   -1.087741
     18          8           0        3.637898    0.601382   -2.141479
     19          6           0        4.890631    0.126134   -0.143303
     20          7           0        6.083909    0.638832   -0.782746
     21          6           0        6.247159    1.798202   -1.457135
     22          6           0        7.575545    1.831437   -1.867687
     23          6           0        8.223986    2.854332   -2.606301
     24          7           0        8.768064    3.689020   -3.208300
     25          6           0        8.127571    0.614844   -1.380918
     26          7           0        7.225852   -0.101473   -0.727285
     27          6           0        2.157314   -0.978031    0.884515
     28          6           0        0.680412   -1.124820    0.420051
     29          6           0       -4.135441   -1.021167    1.515349
     30          1           0       -7.166484    0.388813    0.493062
     31          1           0       -6.812771   -0.446159    2.015534
     32          1           0       -6.025650    1.102768    1.650905
     33          1           0       -5.232875   -2.322270   -0.433357
     34          1           0       -4.026129   -0.519350   -1.240889
     35          1           0       -5.434015    0.530489   -1.302926
     36          1           0       -3.334194    1.862881   -1.058415
     37          1           0       -4.387108    2.099116    0.318196
     38          1           0       -2.194385    1.853524    1.206332
     39          1           0       -3.905512    0.856688    2.518755
     40          1           0       -1.729927    0.605046    3.452230
     41          1           0       -2.605795   -0.884198    3.785974
     42          1           0       -0.258290   -1.334639    3.034366
     43          1           0       -1.421662   -2.036364    1.923444
     44          1           0        0.064210    0.603181    1.555844
     45          1           0       -1.865842   -0.732892   -0.368072
     46          1           0       -1.311267    0.866155   -1.958400
     47          1           0       -0.965800    2.108685   -0.777266
     48          1           0        1.247968    1.410078   -0.413075
     49          1           0        1.052657    1.213207   -2.140423
     50          1           0        0.807333   -2.562750   -2.043682
     51          1           0       -0.479934   -1.391312   -2.357252
     52          1           0        1.102768   -1.188993   -3.126462
     53          1           0        2.876078   -1.927166   -0.942753
     54          1           0        5.158900   -0.845019    0.279336
     55          1           0        4.598425    0.773216    0.695476
     56          1           0        5.438160    2.492293   -1.619654
     57          1           0        9.140934    0.253773   -1.490133
     58          1           0        2.583261   -1.784900    1.488043
     59          1           0        2.321862   -0.030851    1.411147
     60          1           0        0.388001   -2.183186    0.402980
     61          1           0       -3.514613   -1.780535    1.017647
     62          1           0       -4.589818   -1.519111    2.381754
 ---------------------------------------------------------------------

 SCF Done:  E(RB3LYP) =  -1249.08175375     A.U. after   16 cycles

 Excitation energies and oscillator strengths:

 Excited state symmetry could not be determined.
 Excited State   1:      Triplet-?Sym    3.7112 eV  334.08 nm  f=0.0000  <S**2>=2.000
     102 ->108         0.25431
     104 ->108        -0.17255
     105 ->108         0.38260
     107 ->108         0.48213
 This state for optimization and/or second-order correction.
 Total Energy, E(TD-HF/TD-DFT) =  -1248.94536964
 Copying the excited state density for this state as the 1-particle RhoCI density.

 Excited state symmetry could not be determined.
 Excited State   2:      Triplet-?Sym    4.1521 eV  298.61 nm  f=0.0000  <S**2>=2.000
     104 ->109        -0.11596
     104 ->110         0.20671
     105 ->109        -0.35530
     107 ->109         0.53448

 Excited state symmetry could not be determined.
 Excited State   3:      Singlet-?Sym    4.2783 eV  289.80 nm  f=0.0012  <S**2>=0.000
     102 ->108         0.21424
     104 ->108        -0.14861
     105 ->108         0.35325
     107 ->108         0.53788

 Excited state symmetry could not be determined.
 Excited State   4:      Singlet-?Sym    5.2424 eV  236.50 nm  f=0.0037  <S**2>=0.000
     102 ->108         0.15026
     104 ->108        -0.13906
     105 ->108         0.50107
     107 ->108        -0.44502

 Alpha  occ. eigenvalues --  -19.16783 -19.13804 -14.43806 -14.36906 -14.32626
 Alpha  occ. eigenvalues --  -10.30352 -10.26216 -10.24909 -10.23948 -10.22921
 Alpha  occ. eigenvalues --  -10.22575 -10.22358 -10.21687 -10.21035 -10.20861
 Alpha  occ. eigenvalues --  -10.20020 -10.19538 -10.19443 -10.19218 -10.19167
 Alpha  occ. eigenvalues --  -10.18920 -10.18887 -10.18842 -10.18623 -10.18576
 Alpha  occ. eigenvalues --  -10.18537 -10.18299 -10.18169 -10.17260  -1.07627
 Alpha  occ. eigenvalues --   -1.06226  -1.01306  -0.89509  -0.88639  -0.86978
 Alpha  occ. eigenvalues --   -0.85222  -0.81602  -0.80689  -0.79310  -0.76568
 Alpha  occ. eigenvalues --   -0.76119  -0.74954  -0.73033  -0.71178  -0.70073
 Alpha  occ. eigenvalues --   -0.68244  -0.65804  -0.65371  -0.63539  -0.61668
 Alpha  occ. eigenvalues --   -0.61283  -0.59248  -0.58361  -0.57314  -0.56920
 Alpha  occ. eigenvalues --   -0.55201  -0.53301  -0.52792  -0.51632  -0.50493
 Alpha  occ. eigenvalues --   -0.50148  -0.48912  -0.47972  -0.47455  -0.47124
 Alpha  occ. eigenvalues --   -0.46177  -0.45697  -0.45373  -0.44821  -0.44248
 Alpha  occ. eigenvalues --   -0.43438  -0.43356  -0.42783  -0.42634  -0.42098
 Alpha  occ. eigenvalues --   -0.41571  -0.40942  -0.39888  -0.39152  -0.38634
 Alpha  occ. eigenvalues --   -0.38464  -0.37950  -0.37877  -0.37377  -0.36550
 Alpha  occ. eigenvalues --   -0.36326  -0.35695  -0.35460  -0.35423  -0.35311
 Alpha  occ. eigenvalues --   -0.34945  -0.34468  -0.33911  -0.33221  -0.33024
 Alpha  occ. eigenvalues --   -0.32741  -0.32298  -0.31042  -0.30662  -0.30498
 Alpha  occ. eigenvalues --   -0.30159  -0.28899  -0.28443  -0.27670  -0.26886
 Alpha  occ. eigenvalues --   -0.25696  -0.24996
 Alpha virt. eigenvalues --   -0.04154  -0.01628   0.01031   0.03670   0.05117
 Alpha virt. eigenvalues --    0.05713   0.06519   0.07525   0.08135   0.08463
 Alpha virt. eigenvalues --    0.08921   0.09835   0.10664   0.11034   0.11942

 Mulliken charges:
               1
     1  C   -0.454984
     2  C    0.312562
     3  O   -0.646282
     4  C   -0.278778
     5  C   -0.284784
     6  C   -0.098520
     7  C   -0.095602
     8  C   -0.269833
     9  C   -0.275360
    10  C   -0.088182
    11  C   -0.082960
    12  C   -0.294305
    13  C   -0.289257
    14  C    0.118605
    15  C   -0.476768
    16  C   -0.217745
    17  C    0.454787
    18  O   -0.440505
    19  C   -0.235238
    20  N   -0.239146
    21  C    0.112552
    22  C    0.003610
    23  C    0.229662
    24  N   -0.490538
    25  C    0.064421
    26  N   -0.288381
    27  C   -0.312088
    28  C   -0.103382
    29  C   -0.283311
    30  H    0.154334
    31  H    0.153554
    32  H    0.142576
    33  H    0.379099
    34  H    0.113402
    35  H    0.141658
    36  H    0.140401
    37  H    0.134841
    38  H    0.111635
    39  H    0.121987
    40  H    0.126892
    41  H    0.131549
    42  H    0.131673
    43  H    0.131700
    44  H    0.108597
    45  H    0.114928
    46  H    0.141964
    47  H    0.137769
    48  H    0.117547
    49  H    0.161827
    50  H    0.137163
    51  H    0.149443
    52  H    0.163763
    53  H    0.170686
    54  H    0.209856
    55  H    0.195893
    56  H    0.195771
    57  H    0.168046
    58  H    0.150294
    59  H    0.139290
    60  H    0.121049
    61  H    0.112511
    62  H    0.138053
 Sum of Mulliken charges =  -0.00000

 Dipole moment (field-independent basis, Debye):
    X=             -4.0382    Y=             -2.9739    Z=              4.2074  Tot=              6.5463
 Quadrupole moment (field-independent basis, Debye-Ang):
   XX=           -248.4661   YY=           -185.4747   ZZ=           -187.9027
   XY=            -35.9584   XZ=             31.5849   YZ=             16.0764

 Normal termination of Gaussian 16 at Sat Nov  5 12:08:34 2022.
