 Gaussian 16, Revision B.01,
 Gaussian 16:  ES64L-G16RevB.01 20-Dec-2017

 -----------------------------
 #p b3lyp/6-31g(d) opt SCF=XQC
 -----------------------------

 ------------------------------
 Gaussian input prepared by ASE
 ------------------------------
 Symbolic Z-matrix:
 Charge =  0 Multiplicity = 1

 SCF Done:  E(RB3LYP) =  -1249.07053188     A.U. after   15 cycles
 SCF Done:  E(RB3LYP) =  -1249.07898954     A.U. after   13 cycles
 SCF Done:  E(RB3LYP) =  -1249.07954257     A.U. after   12 cycles
 SCF Done:  E(RB3LYP) =  -1249.07933915     A.U. after   14 cycles
 SCF Done:  E(RB3LYP) =  -1249.07997838     A.U. after   12 cycles
 SCF Done:  E(RB3LYP) =  -1249.08063304     A.U. after   15 cycles
 SCF Done:  E(RB3LYP) =  -1249.07875607     A.U. after   16 cycles
 SCF Done:  E(RB3LYP) =  -1249.08112652     A.U. after   15 cycles
 SCF Done:  E(RB3LYP) =  -1249.08047052     A.U. after   16 cycles
 SCF Done:  E(RB3LYP) =  -1249.08057870     A.U. after   16 cycles
 SCF Done:  E(RB3LYP) =  -1249.08171809     A.U. after   13 cycles
 SCF Done:  E(RB3LYP) =  -1249.08173429     A.U. after   10 cycles
 SCF Done:  E(RB3LYP) =  -1249.08174820     A.U. after   12 cycles
 SCF Done:  E(RB3LYP) =  -1249.08175263     A.U. after   11 cycles
 SCF Done:  E(RB3LYP) =  -1249.08175530     A.U. after    9 cycles
 SCF Done:  E(RB3LYP) =  -1249.08175797     A.U. after   11 cycles
 SCF Done:  E(RB3LYP) =  -1249.08175955     A.U. after   11 cycles
 SCF Done:  E(RB3LYP) =  -1249.08176155     A.U. after   10 cycles
 SCF Done:  E(RB3LYP) =  -1249.08176204     A.U. after   10 cycles
 SCF Done:  E(RB3LYP) =  -1249.08176214     A.U. after    7 cycles
 Optimization completed.
    -- Stationary point found.

                         Standard orientation:
 ---------------------------------------------------------------------
 Center     Atomic      Atomic             Coordinates (Angstroms)
 Number     Number       Type             X           Y           Z
 ---------------------------------------------------------------------
      1          6           0       -7.242933   -0.745071   -0.719247
      2          6           0       -6.116196   -0.501961    0.289421
      3          8           0       -6.805921   -0.331746    1.538805
      4          6           0       -5.154083   -1.703949    0.382666
      5          6           0       -4.238978   -1.846916   -0.844838
      6          6           0       -3.427190   -0.567502   -1.149887
      7          6           0       -4.390298    0.642997   -1.268033
      8          6           0       -3.613481    1.939033   -1.566834
      9          6           0       -2.491614    2.197041   -0.554875
     10          6           0       -1.522285    1.008050   -0.453400
     11          6           0       -2.256306   -0.323970   -0.159938
     12          6           0       -1.254532   -1.517691   -0.166587
     13          6           0        0.219026   -1.120259    0.076307
     14          6           0        0.340074   -0.010366    1.131506
     15          6           0        0.000729   -0.514447    2.534124
     16          6           0        1.651434    0.838872    1.044443
     17          6           0        2.948993    0.209468    0.595076
     18          8           0        3.219585   -0.960758    0.779963
     19          6           0        3.930395    1.152698   -0.123343
     20          7           0        5.293975    0.667665   -0.155813
     21          6           0        5.761604   -0.501018   -0.646827
     22          6           0        7.138343   -0.488220   -0.450123
     23          6           0        8.069251   -1.497577   -0.806421
     24          7           0        8.843162   -2.316835   -1.097977
     25          6           0        7.394162    0.758086    0.184742
     26          7           0        6.280349    1.452348    0.360423
     27          6           0        0.911401    1.892526    0.168106
     28          6           0       -0.435660    1.252330    0.608657
     29          6           0       -5.310081    0.774289   -0.035052
     30          1           0       -7.817519   -1.629863   -0.426387
     31          1           0       -7.923230    0.112812   -0.729903
     32          1           0       -6.864773   -0.898780   -1.733915
     33          1           0       -6.132983   -0.184164    2.223020
     34          1           0       -4.537433   -1.575025    1.285687
     35          1           0       -5.735482   -2.620887    0.538023
     36          1           0       -3.571295   -2.705260   -0.708365
     37          1           0       -4.852689   -2.084132   -1.724103
     38          1           0       -2.961278   -0.703059   -2.139239
     39          1           0       -5.039165    0.448659   -2.134243
     40          1           0       -3.174970    1.863093   -2.572448
     41          1           0       -4.304033    2.792412   -1.593693
     42          1           0       -1.937503    3.104363   -0.831578
     43          1           0       -2.920436    2.395350    0.437730
     44          1           0       -1.031966    0.899522   -1.434787
     45          1           0       -2.669508   -0.233265    0.855823
     46          1           0       -1.563550   -2.256931    0.581452
     47          1           0       -1.309374   -2.033672   -1.134315
     48          1           0        0.651550   -0.766362   -0.869443
     49          1           0        0.808543   -1.996276    0.364777
     50          1           0        0.016204    0.304527    3.264070
     51          1           0       -0.993722   -0.973265    2.574904
     52          1           0        0.730183   -1.267382    2.856348
     53          1           0        1.866550    1.279070    2.030295
     54          1           0        3.960704    2.128847    0.366499
     55          1           0        3.558319    1.315732   -1.144435
     56          1           0        5.113472   -1.252525   -1.068511
     57          1           0        8.345609    1.155730    0.510059
     58          1           0        1.078166    2.945601    0.412928
     59          1           0        1.090536    1.756208   -0.904692
     60          1           0       -0.864242    1.806456    1.454351
     61          1           0       -4.710196    1.020449    0.853384
     62          1           0       -6.006855    1.611154   -0.173721
 ---------------------------------------------------------------------

 The electronic state is 1-A.
 Alpha  occ. eigenvalues --  -19.16784 -19.13804 -14.43806 -14.36906 -14.32626
 Alpha  occ. eigenvalues --  -10.30353 -10.26216 -10.24909 -10.23948 -10.22921
 Alpha  occ. eigenvalues --  -10.22575 -10.22358 -10.21687 -10.21035 -10.20861
 Alpha  occ. eigenvalues --  -10.20020 -10.19538 -10.19443 -10.19218 -10.19167
 Alpha  occ. eigenvalues --  -10.18920 -10.18887 -10.18842 -10.18623 -10.18576
 Alpha  occ. eigenvalues --  -10.18537 -10.18299 -10.18169 -10.17260  -1.07627
 Alpha  occ. eigenvalues --   -1.06226  -1.01306  -0.89509  -0.88639  -0.86978
 Alpha  occ. eigenvalues --   -0.85221  -0.81602  -0.80689  -0.79310  -0.76568
 Alpha  occ. eigenvalues --   -0.76119  -0.74954  -0.73033  -0.71178  -0.70073
 Alpha  occ. eigenvalues --   -0.68244  -0.65804  -0.65371  -0.63539  -0.61668
 Alpha  occ. eigenvalues --   -0.61283  -0.59248  -0.58361  -0.57314  -0.56920
 Alpha  occ. eigenvalues --   -0.55201  -0.53301  -0.52792  -0.51632  -0.50492
 Alpha  occ. eigenvalues --   -0.50148  -0.48912  -0.47972  -0.47455  -0.47125
 Alpha  occ. eigenvalues --   -0.46177  -0.45697  -0.45373  -0.44820  -0.44248
 Alpha  occ. eigenvalues --   -0.43438  -0.43356  -0.42783  -0.42634  -0.42098
 Alpha  occ. eigenvalues --   -0.41571  -0.40942  -0.39888  -0.39152  -0.38634
 Alpha  occ. eigenvalues --   -0.38464  -0.37950  -0.37877  -0.37377  -0.36550
 Alpha  occ. eigenvalues --   -0.36326  -0.35695  -0.35460  -0.35423  -0.35311
 Alpha  occ. eigenvalues --   -0.34945  -0.34468  -0.33911  -0.33221  -0.33024
 Alpha  occ. eigenvalues --   -0.32741  -0.32298  -0.31042  -0.30662  -0.30498
 Alpha  occ. eigenvalues --   -0.30159  -0.28899  -0.28443  -0.27670  -0.26886
 Alpha  occ. eigenvalues --   -0.25696  -0.24996
 Alpha virt. eigenvalues --   -0.04154  -0.01628   0.01031   0.03670   0.05117
 Alpha virt. eigenvalues --    0.05713   0.06519   0.07525   0.08135   0.08463
 Alpha virt. eigenvalues --    0.08921   0.09835   0.10664   0.11034   0.11942

 Mulliken charges:
               1
     1  C   -0.454984
     2  C    0.312549
     3  O   -0.646283
     4  C   -0.278744
     5  C   -0.284802
     6  C   -0.098474
     7  C   -0.095646
     8  C   -0.269804
     9  C   -0.275328
    10  C   -0.088266
    11  C   -0.082978
    12  C   -0.294283
    13  C   -0.289243
    14  C    0.118568
    15  C   -0.476780
    16  C   -0.217740
    17  C    0.454787
    18  O   -0.440502
    19  C   -0.235243
    20  N   -0.239140
    21  C    0.112545
    22  C    0.003612
    23  C    0.229662
    24  N   -0.490538
    25  C    0.064420
    26  N   -0.288383
    27  C   -0.312096
    28  C   -0.103335
    29  C   -0.283316
    30  H    0.154336
    31  H    0.153555
    32  H    0.142576
    33  H    0.379099
    34  H    0.113398
    35  H    0.141653
    36  H    0.140401
    37  H    0.134841
    38  H    0.111636
    39  H    0.121988
    40  H    0.126888
    41  H    0.131547
    42  H    0.131669
    43  H    0.131697
    44  H    0.108609
    45  H    0.114937
    46  H    0.141962
    47  H    0.137767
    48  H    0.117544
    49  H    0.161826
    50  H    0.137165
    51  H    0.149446
    52  H    0.163769
    53  H    0.170685
    54  H    0.209856
    55  H    0.195895
    56  H    0.195775
    57  H    0.168046
    58  H    0.150295
    59  H    0.139290
    60  H    0.121049
    61  H    0.112510
    62  H    0.138056
 Sum of Mulliken charges =  -0.00000

 Dipole moment (field-independent basis, Debye):
    X=             -5.2317    Y=              3.9300    Z=             -0.1933  Tot=              6.5462
 Quadrupole moment (field-independent basis, Debye-Ang):
   XX=           -259.5658   YY=           -181.6221   ZZ=           -171.2191
   XY=             25.7946   XZ=             11.0775   YZ=             -0.7847

 Normal termination of Gaussian 16 at Fri Nov  4 20:22:50 2022.
