 Gaussian 16, Revision B.01,
 Gaussian 16:  ES64L-G16RevB.01 20-Dec-2017

 -------------------------------------------------------------------
 #p b3lyp/6-31g(d) 6D 10F nosymm GFInput td=(50-50,nstate=2) SCF=XQC
 -------------------------------------------------------------------

 ------------------------------
 Gaussian input prepared by ASE
 ------------------------------
 Symbolic Z-matrix:
 Charge =  0 Multiplicity = 1

                          Input orientation:
 ---------------------------------------------------------------------
 Center     Atomic      Atomic             Coordinates (Angstroms)
 Number     Number       Type             X           Y           Z
 ---------------------------------------------------------------------
      1          6           0       -3.291184   -2.555501   -1.701778
      2          6           0       -1.927247   -3.079236   -1.235920
      3          6           0       -1.105159   -2.082732   -0.400065
      4          6           0       -0.702940   -0.800278   -1.165412
      5          6           0        0.064986   -1.130487   -2.399062
      6          7           0        0.643771   -1.376756   -3.375411
      7          7           0       -0.074550    0.218438   -0.318071
      8          6           0        1.108741   -0.105220    0.502546
      9          6           0        0.689398   -0.733416    1.778695
     10          7           0        0.374820   -1.218643    2.785533
     11          6           0        2.246289   -0.911806   -0.176426
     12          6           0        3.505615   -1.064189    0.695192
     13          6           0        4.211657    0.255274    1.032775
     14          6           0       -0.145273    1.599658   -0.812108
     15          6           0        1.098995    2.040352   -1.496044
     16          7           0        2.098182    2.387887   -1.975295
     17          6           0       -0.521380    2.620689    0.291085
     18          6           0       -1.897857    2.356173    0.910864
     19          6           0       -2.255975    3.379443    1.993491
     20          1           0       -3.857565   -3.348397   -2.201636
     21          1           0       -3.198214   -1.730839   -2.418576
     22          1           0       -3.892004   -2.200536   -0.855237
     23          1           0       -2.079479   -3.971269   -0.616187
     24          1           0       -1.339587   -3.407169   -2.102742
     25          1           0       -0.211039   -2.588312   -0.023232
     26          1           0       -1.679593   -1.759511    0.475095
     27          1           0       -1.635008   -0.344331   -1.519366
     28          1           0        1.539012    0.860494    0.787623
     29          1           0        2.501642   -0.393036   -1.105852
     30          1           0        1.880261   -1.905292   -0.454225
     31          1           0        3.254768   -1.600969    1.619415
     32          1           0        4.200594   -1.711433    0.146329
     33          1           0        3.615028    0.887316    1.701712
     34          1           0        5.161861    0.063180    1.542467
     35          1           0        4.426001    0.835194    0.127397
     36          1           0       -0.941513    1.624819   -1.564904
     37          1           0       -0.493846    3.621203   -0.159553
     38          1           0        0.250030    2.618543    1.071896
     39          1           0       -2.660922    2.377359    0.119200
     40          1           0       -1.914043    1.345658    1.334523
     41          1           0       -1.530260    3.357045    2.815103
     42          1           0       -2.273173    4.399447    1.591060
     43          1           0       -3.243839    3.171184    2.418019
 ---------------------------------------------------------------------

 SCF Done:  E(RB3LYP) =  -804.995434864     A.U. after   15 cycles

 Excitation energies and oscillator strengths:

 Excited state symmetry could not be determined.
 Excited State   1:      Triplet-?Sym    5.3877 eV  230.12 nm  f=0.0000  <S**2>=2.000
      71 -> 72         0.63637
 This state for optimization and/or second-order correction.
 Total Energy, E(TD-HF/TD-DFT) =  -804.797439386
 Copying the excited state density for this state as the 1-particle RhoCI density.

 Excited state symmetry could not be determined.
 Excited State   2:      Triplet-?Sym    5.7073 eV  217.24 nm  f=0.0000  <S**2>=2.000
      65 -> 72        -0.11958
      66 -> 72        -0.22089
      66 -> 74         0.13255
      66 -> 76         0.13229
      67 -> 72        -0.11974
      67 -> 76        -0.11031
      69 -> 72        -0.10711
      69 -> 73         0.20576
      70 -> 74         0.20439
      71 -> 73         0.19060
      71 -> 74         0.18311
      71 -> 76         0.13216

 Excited state symmetry could not be determined.
 Excited State   3:      Singlet-?Sym    5.9142 eV  209.64 nm  f=0.0140  <S**2>=0.000
      71 -> 72         0.70247

 Excited state symmetry could not be determined.
 Excited State   4:      Singlet-?Sym    6.3603 eV  194.93 nm  f=0.0088  <S**2>=0.000
      71 -> 73         0.70068

 Alpha  occ. eigenvalues --  -14.38258 -14.34892 -14.34516 -14.34425 -10.28872
 Alpha  occ. eigenvalues --  -10.28590 -10.28309 -10.23849 -10.23586 -10.23446
 Alpha  occ. eigenvalues --  -10.21750 -10.21368 -10.20703 -10.20306 -10.20228
 Alpha  occ. eigenvalues --  -10.19637 -10.19183 -10.18985 -10.18323  -0.98305
 Alpha  occ. eigenvalues --   -0.91613  -0.91372  -0.90747  -0.83926  -0.83321
 Alpha  occ. eigenvalues --   -0.80532  -0.77082  -0.76802  -0.72218  -0.69140
 Alpha  occ. eigenvalues --   -0.67981  -0.65850  -0.61066  -0.60714  -0.60174
 Alpha  occ. eigenvalues --   -0.57446  -0.55876  -0.52453  -0.50152  -0.49840
 Alpha  occ. eigenvalues --   -0.47624  -0.47090  -0.46560  -0.45932  -0.43941
 Alpha  occ. eigenvalues --   -0.43236  -0.42649  -0.42324  -0.41236  -0.40944
 Alpha  occ. eigenvalues --   -0.40421  -0.39859  -0.38188  -0.37666  -0.36909
 Alpha  occ. eigenvalues --   -0.36783  -0.36453  -0.36221  -0.35853  -0.35808
 Alpha  occ. eigenvalues --   -0.35496  -0.35166  -0.35060  -0.34887  -0.34350
 Alpha  occ. eigenvalues --   -0.34117  -0.33733  -0.33193  -0.32737  -0.32307
 Alpha  occ. eigenvalues --   -0.26109
 Alpha virt. eigenvalues --   -0.00646   0.00957   0.01546   0.02600   0.02753
 Alpha virt. eigenvalues --    0.03432   0.05691   0.07104   0.07855   0.08766
 Alpha virt. eigenvalues --    0.09829   0.10358   0.10971   0.12328   0.12764

 Mulliken charges:
               1
     1  C   -0.453479
     2  C   -0.271940
     3  C   -0.284512
     4  C   -0.052755
     5  C    0.368460
     6  N   -0.474769
     7  N   -0.390046
     8  C   -0.073966
     9  C    0.389227
    10  N   -0.489329
    11  C   -0.285574
    12  C   -0.272446
    13  C   -0.457220
    14  C   -0.070389
    15  C    0.372741
    16  N   -0.474762
    17  C   -0.253823
    18  C   -0.259040
    19  C   -0.445807
    20  H    0.158680
    21  H    0.146747
    22  H    0.148119
    23  H    0.152913
    24  H    0.163928
    25  H    0.166269
    26  H    0.173895
    27  H    0.190850
    28  H    0.201037
    29  H    0.190636
    30  H    0.158319
    31  H    0.158156
    32  H    0.152117
    33  H    0.143003
    34  H    0.154515
    35  H    0.166374
    36  H    0.189562
    37  H    0.160780
    38  H    0.155656
    39  H    0.131034
    40  H    0.163300
    41  H    0.152832
    42  H    0.147210
    43  H    0.153499
 Sum of Mulliken charges =  -0.00000

 Dipole moment (field-independent basis, Debye):
    X=             -3.3593    Y=              0.7240    Z=              1.3552  Tot=              3.6940
 Quadrupole moment (field-independent basis, Debye-Ang):
   XX=           -113.1913   YY=           -115.7045   ZZ=           -143.5384
   XY=             -5.1107   XZ=             11.9964   YZ=              5.9812

 Normal termination of Gaussian 16 at Sat Nov  5 11:51:41 2022.
