 Gaussian 16, Revision B.01,
 Gaussian 16:  ES64L-G16RevB.01 20-Dec-2017

 -----------------------------
 #p b3lyp/6-31g(d) opt SCF=XQC
 -----------------------------

 ------------------------------
 Gaussian input prepared by ASE
 ------------------------------
 Symbolic Z-matrix:
 Charge =  0 Multiplicity = 1

 SCF Done:  E(RB3LYP) =  -804.986279950     A.U. after   15 cycles
 SCF Done:  E(RB3LYP) =  -804.993431611     A.U. after   13 cycles
 SCF Done:  E(RB3LYP) =  -804.994955040     A.U. after   13 cycles
 SCF Done:  E(RB3LYP) =  -804.995342167     A.U. after   11 cycles
 SCF Done:  E(RB3LYP) =  -804.995417796     A.U. after   11 cycles
 SCF Done:  E(RB3LYP) =  -804.995434941     A.U. after   10 cycles
 SCF Done:  E(RB3LYP) =  -804.995440454     A.U. after   10 cycles
 SCF Done:  E(RB3LYP) =  -804.995442179     A.U. after    9 cycles
 SCF Done:  E(RB3LYP) =  -804.995442452     A.U. after    7 cycles
 Optimization completed.
    -- Stationary point found.

                         Standard orientation:
 ---------------------------------------------------------------------
 Center     Atomic      Atomic             Coordinates (Angstroms)
 Number     Number       Type             X           Y           Z
 ---------------------------------------------------------------------
      1          6           0       -4.526971    0.377785    0.157138
      2          6           0       -3.710500   -0.825129    0.645009
      3          6           0       -2.215473   -0.540450    0.871628
      4          6           0       -1.448870   -0.141683   -0.411154
      5          6           0       -1.577398   -1.191435   -1.460984
      6          7           0       -1.690332   -1.991735   -2.295049
      7          7           0       -0.071879    0.296932   -0.161842
      8          6           0        0.873220   -0.561874    0.578146
      9          6           0        0.683358   -0.390571    2.038846
     10          7           0        0.551251   -0.259896    3.184969
     11          6           0        0.926292   -2.062092    0.188108
     12          6           0        2.047482   -2.847631    0.891461
     13          6           0        3.467402   -2.380768    0.546055
     14          6           0        0.525602    1.158152   -1.190511
     15          6           0        1.404995    0.418411   -2.133715
     16          7           0        2.133851   -0.163575   -2.825739
     17          6           0        1.296673    2.365110   -0.599157
     18          6           0        0.406689    3.301155    0.225785
     19          6           0        1.183931    4.492156    0.795717
     20          1           0       -5.592410    0.128028    0.114834
     21          1           0       -4.235304    0.698455   -0.850142
     22          1           0       -4.413021    1.236252    0.830684
     23          1           0       -4.121192   -1.171908    1.601066
     24          1           0       -3.825033   -1.660926   -0.056839
     25          1           0       -1.751169   -1.421204    1.325235
     26          1           0       -2.091353    0.284818    1.581471
     27          1           0       -1.961089    0.737821   -0.818616
     28          1           0        1.866225   -0.150439    0.369182
     29          1           0        1.066471   -2.110523   -0.896403
     30          1           0       -0.035687   -2.535687    0.408255
     31          1           0        1.897612   -2.815667    1.978551
     32          1           0        1.935810   -3.899060    0.599575
     33          1           0        3.684347   -1.380778    0.940864
     34          1           0        4.210724   -3.059720    0.977415
     35          1           0        3.624876   -2.353700   -0.538579
     36          1           0       -0.302725    1.560046   -1.785227
     37          1           0        1.749538    2.911874   -1.436309
     38          1           0        2.132109    2.002667    0.013562
     39          1           0       -0.415509    3.667967   -0.405792
     40          1           0       -0.054484    2.733404    1.041791
     41          1           0        1.990559    4.157808    1.458871
     42          1           0        1.635473    5.094726   -0.001575
     43          1           0        0.526402    5.146848    1.377528
 ---------------------------------------------------------------------

 The electronic state is 1-A.
 Alpha  occ. eigenvalues --  -14.38258 -14.34892 -14.34516 -14.34425 -10.28872
 Alpha  occ. eigenvalues --  -10.28590 -10.28309 -10.23849 -10.23586 -10.23446
 Alpha  occ. eigenvalues --  -10.21750 -10.21368 -10.20703 -10.20306 -10.20228
 Alpha  occ. eigenvalues --  -10.19637 -10.19183 -10.18985 -10.18323  -0.98305
 Alpha  occ. eigenvalues --   -0.91613  -0.91372  -0.90747  -0.83926  -0.83321
 Alpha  occ. eigenvalues --   -0.80532  -0.77082  -0.76802  -0.72218  -0.69140
 Alpha  occ. eigenvalues --   -0.67981  -0.65850  -0.61066  -0.60714  -0.60174
 Alpha  occ. eigenvalues --   -0.57446  -0.55876  -0.52453  -0.50152  -0.49840
 Alpha  occ. eigenvalues --   -0.47624  -0.47090  -0.46560  -0.45932  -0.43941
 Alpha  occ. eigenvalues --   -0.43236  -0.42649  -0.42324  -0.41236  -0.40944
 Alpha  occ. eigenvalues --   -0.40421  -0.39859  -0.38188  -0.37666  -0.36909
 Alpha  occ. eigenvalues --   -0.36783  -0.36453  -0.36221  -0.35853  -0.35808
 Alpha  occ. eigenvalues --   -0.35496  -0.35166  -0.35060  -0.34887  -0.34349
 Alpha  occ. eigenvalues --   -0.34117  -0.33733  -0.33193  -0.32737  -0.32307
 Alpha  occ. eigenvalues --   -0.26109
 Alpha virt. eigenvalues --   -0.00646   0.00957   0.01546   0.02600   0.02753
 Alpha virt. eigenvalues --    0.03432   0.05691   0.07104   0.07855   0.08766
 Alpha virt. eigenvalues --    0.09829   0.10358   0.10971   0.12328   0.12764

 Mulliken charges:
               1
     1  C   -0.453484
     2  C   -0.271936
     3  C   -0.284510
     4  C   -0.052776
     5  C    0.368464
     6  N   -0.474767
     7  N   -0.390009
     8  C   -0.073997
     9  C    0.389227
    10  N   -0.489324
    11  C   -0.285552
    12  C   -0.272458
    13  C   -0.457217
    14  C   -0.070432
    15  C    0.372752
    16  N   -0.474766
    17  C   -0.253810
    18  C   -0.259035
    19  C   -0.445817
    20  H    0.158681
    21  H    0.146748
    22  H    0.148119
    23  H    0.152913
    24  H    0.163929
    25  H    0.166269
    26  H    0.173896
    27  H    0.190850
    28  H    0.201041
    29  H    0.190633
    30  H    0.158319
    31  H    0.158155
    32  H    0.152118
    33  H    0.143003
    34  H    0.154516
    35  H    0.166374
    36  H    0.189566
    37  H    0.160779
    38  H    0.155656
    39  H    0.131038
    40  H    0.163300
    41  H    0.152832
    42  H    0.147212
    43  H    0.153501
 Sum of Mulliken charges =  -0.00000

 Dipole moment (field-independent basis, Debye):
    X=             -1.4044    Y=              3.1665    Z=              1.2831  Tot=              3.6939
 Quadrupole moment (field-independent basis, Debye-Ang):
   XX=           -113.5949   YY=           -112.1219   ZZ=           -145.0054
   XY=             -3.1467   XZ=              1.1905   YZ=            -10.7759

 1\1\GINC-NODE58\FOpt\RB3LYP\6-31G(d)\C15H24N4\WYKGROUP\04-Nov-2022\0\\
 #p b3lyp/6-31g(d) opt SCF=XQC\\Gaussian input prepared by ASE\\0,1\C,-
 3.2911844599,-2.5555014582,-1.7017778604\C,-1.9272466792,-3.0792357811
 ,-1.2359203606\C,-1.1051588457,-2.0827315606,-0.4000645415\C,-0.702940
 3977,-0.8002775414,-1.1654119859\C,0.0649855453,-1.1304873675,-2.39906
 20828\N,0.6437712233,-1.3767564756,-3.375411196\N,-0.0745495545,0.2184
 380815,-0.3180707283\C,1.1087410005,-0.105219546,0.5025458474\C,0.6893
 979067,-0.7334158465,1.7786951701\N,0.3748204259,-1.2186430408,2.78553

 Normal termination of Gaussian 16 at Fri Nov  4 19:24:09 2022.
