 Gaussian 16, Revision B.01,
 Gaussian 16:  ES64L-G16RevB.01 20-Dec-2017

 -----------------------------
 #p b3lyp/6-31g(d) opt SCF=XQC
 -----------------------------

 ------------------------------
 Gaussian input prepared by ASE
 ------------------------------
 Symbolic Z-matrix:
 Charge =  0 Multiplicity = 1

 SCF Done:  E(RB3LYP) =  -714.219597836     A.U. after   15 cycles
 SCF Done:  E(RB3LYP) =  -714.222782207     A.U. after   14 cycles
 SCF Done:  E(RB3LYP) =  -714.222651209     A.U. after   14 cycles
 SCF Done:  E(RB3LYP) =  -714.226011501     A.U. after   12 cycles
 SCF Done:  E(RB3LYP) =  -714.226356701     A.U. after   11 cycles
 SCF Done:  E(RB3LYP) =  -714.226443467     A.U. after   11 cycles
 SCF Done:  E(RB3LYP) =  -714.226464589     A.U. after   10 cycles
 SCF Done:  E(RB3LYP) =  -714.226473749     A.U. after    9 cycles
 SCF Done:  E(RB3LYP) =  -714.226479010     A.U. after   10 cycles
 SCF Done:  E(RB3LYP) =  -714.226481690     A.U. after    9 cycles
 SCF Done:  E(RB3LYP) =  -714.226485779     A.U. after   10 cycles
 SCF Done:  E(RB3LYP) =  -714.226490222     A.U. after   10 cycles
 SCF Done:  E(RB3LYP) =  -714.226492327     A.U. after    9 cycles
 SCF Done:  E(RB3LYP) =  -714.226492732     A.U. after    8 cycles
 SCF Done:  E(RB3LYP) =  -714.226492752     A.U. after    7 cycles
 Optimization completed.
    -- Stationary point found.

                         Standard orientation:
 ---------------------------------------------------------------------
 Center     Atomic      Atomic             Coordinates (Angstroms)
 Number     Number       Type             X           Y           Z
 ---------------------------------------------------------------------
      1          6           0       -2.432488    1.831640   -1.525690
      2          6           0       -3.122041    0.961655   -0.456788
      3          6           0       -3.536326    1.814772    0.757184
      4          6           0       -2.220407   -0.169098   -0.026465
      5          6           0       -2.482982   -1.469924   -0.190183
      6          6           0       -1.622420   -2.630929    0.262198
      7          6           0       -0.146022   -2.328252    0.540567
      8          8           0        0.393507   -2.635430    1.598169
      9          7           0        0.529601   -1.758616   -0.506527
     10          6           0        1.912672   -1.277319   -0.381314
     11          6           0        2.703133   -1.641897   -1.641667
     12          6           0        1.938496    0.206252   -0.010718
     13          6           0        1.756918    0.568559    1.333784
     14          6           0        1.720141    1.909823    1.713531
     15          6           0        1.865162    2.915653    0.754558
     16          6           0        2.048107    2.567666   -0.583866
     17          6           0        2.084986    1.222769   -0.962486
     18          1           0       -1.494569    2.253632   -1.143187
     19          1           0       -2.195296    1.244384   -2.420120
     20          1           0       -3.077845    2.665419   -1.827520
     21          1           0       -4.030771    0.529258   -0.899360
     22          1           0       -4.199098    2.633017    0.451051
     23          1           0       -4.060547    1.211005    1.505822
     24          1           0       -2.657090    2.259448    1.240175
     25          1           0       -1.289963    0.138921    0.454814
     26          1           0       -3.424373   -1.755701   -0.662753
     27          1           0       -2.022566   -3.066003    1.185484
     28          1           0       -1.666721   -3.427013   -0.495253
     29          1           0       -0.033086   -1.353401   -1.245007
     30          1           0        2.319410   -1.839364    0.463114
     31          1           0        2.714326   -2.728375   -1.769890
     32          1           0        2.261329   -1.205925   -2.545795
     33          1           0        3.736390   -1.286973   -1.567931
     34          1           0        1.634775   -0.214403    2.077679
     35          1           0        1.583509    2.170013    2.760038
     36          1           0        1.841000    3.961391    1.049518
     37          1           0        2.168134    3.342158   -1.337203
     38          1           0        2.236206    0.974045   -2.009204
 ---------------------------------------------------------------------

 The electronic state is 1-A.
 Alpha  occ. eigenvalues --  -19.10667 -14.35145 -10.28088 -10.22773 -10.19532
 Alpha  occ. eigenvalues --  -10.19488 -10.19401 -10.19160 -10.19143 -10.19027
 Alpha  occ. eigenvalues --  -10.19002 -10.18928 -10.18505 -10.18438 -10.18367
 Alpha  occ. eigenvalues --  -10.17544 -10.17439  -1.02420  -0.91823  -0.85163
 Alpha  occ. eigenvalues --   -0.81790  -0.78710  -0.76451  -0.74313  -0.72574
 Alpha  occ. eigenvalues --   -0.69733  -0.68146  -0.64192  -0.60356  -0.59775
 Alpha  occ. eigenvalues --   -0.58038  -0.57206  -0.55292  -0.51968  -0.48805
 Alpha  occ. eigenvalues --   -0.47093  -0.46063  -0.45913  -0.44827  -0.43915
 Alpha  occ. eigenvalues --   -0.43555  -0.42639  -0.41663  -0.41306  -0.40657
 Alpha  occ. eigenvalues --   -0.39995  -0.39099  -0.38332  -0.38232  -0.37283
 Alpha  occ. eigenvalues --   -0.36456  -0.36180  -0.35666  -0.34210  -0.33914
 Alpha  occ. eigenvalues --   -0.33399  -0.32949  -0.32514  -0.26241  -0.24975
 Alpha  occ. eigenvalues --   -0.24820  -0.23904  -0.23603
 Alpha virt. eigenvalues --   -0.00572  -0.00116   0.01818   0.03117   0.08436
 Alpha virt. eigenvalues --    0.09477   0.10487   0.10723   0.12210   0.12624
 Alpha virt. eigenvalues --    0.14207   0.14450   0.15220   0.15572   0.16127

 Mulliken charges:
               1
     1  C   -0.446290
     2  C   -0.118531
     3  C   -0.443396
     4  C   -0.082025
     5  C   -0.151847
     6  C   -0.382009
     7  C    0.586397
     8  O   -0.520076
     9  N   -0.574360
    10  C   -0.054172
    11  C   -0.455201
    12  C    0.164275
    13  C   -0.192280
    14  C   -0.131605
    15  C   -0.130141
    16  C   -0.131802
    17  C   -0.189955
    18  H    0.152550
    19  H    0.139092
    20  H    0.141470
    21  H    0.126106
    22  H    0.141189
    23  H    0.149743
    24  H    0.146639
    25  H    0.143654
    26  H    0.124220
    27  H    0.185771
    28  H    0.161886
    29  H    0.319257
    30  H    0.183004
    31  H    0.160577
    32  H    0.140220
    33  H    0.158543
    34  H    0.162831
    35  H    0.133204
    36  H    0.129640
    37  H    0.129255
    38  H    0.124162
 Sum of Mulliken charges =  -0.00000

 Dipole moment (field-independent basis, Debye):
    X=             -0.9148    Y=              1.6292    Z=             -2.7801  Tot=              3.3496
 Quadrupole moment (field-independent basis, Debye-Ang):
   XX=           -100.2921   YY=           -103.0248   ZZ=           -103.1692
   XY=              2.8519   XZ=             -1.5006   YZ=              7.4858

 Normal termination of Gaussian 16 at Fri Nov  4 19:26:26 2022.
