 Gaussian 16, Revision B.01,
 Gaussian 16:  ES64L-G16RevB.01 20-Dec-2017

 -------------------------------------------------------------------
 #p b3lyp/6-31g(d) 6D 10F nosymm GFInput td=(50-50,nstate=2) SCF=XQC
 -------------------------------------------------------------------

 ------------------------------
 Gaussian input prepared by ASE
 ------------------------------
 Symbolic Z-matrix:
 Charge =  0 Multiplicity = 1

                          Input orientation:
 ---------------------------------------------------------------------
 Center     Atomic      Atomic             Coordinates (Angstroms)
 Number     Number       Type             X           Y           Z
 ---------------------------------------------------------------------
      1          6           0        1.382769   -2.199238   -1.686868
      2          6           0        2.462278   -1.586676   -0.773449
      3          6           0        2.810721   -2.547017    0.379592
      4          6           0        2.009472   -0.252641   -0.233043
      5          6           0        2.603945    0.920069   -0.476456
      6          6           0        2.202266    2.270774    0.077980
      7          6           0        0.769595    2.401528    0.606387
      8          8           0        0.526298    2.830228    1.729327
      9          7           0       -0.206708    2.072023   -0.296727
     10          6           0       -1.628412    2.007908    0.070504
     11          6           0       -2.479909    2.610063   -1.051368
     12          6           0       -2.017582    0.587833    0.483934
     13          6           0       -1.725497    0.161876    1.789756
     14          6           0       -2.013158   -1.140221    2.197609
     15          6           0       -2.599876   -2.042138    1.306170
     16          6           0       -2.896353   -1.629616    0.006989
     17          6           0       -2.607553   -0.324033   -0.399842
     18          1           0        0.440969   -2.340154   -1.141676
     19          1           0        1.178322   -1.550851   -2.546479
     20          1           0        1.700878   -3.177599   -2.066857
     21          1           0        3.369490   -1.426182   -1.373311
     22          1           0        3.149002   -3.515447   -0.007988
     23          1           0        3.604109   -2.135217    1.012646
     24          1           0        1.934556   -2.728579    1.014762
     25          1           0        1.124052   -0.288576    0.404900
     26          1           0        3.494746    0.931382   -1.106974
     27          1           0        2.859357    2.553422    0.908764
     28          1           0        2.346276    3.035111   -0.699513
     29          1           0        0.083648    1.536448   -1.106060
     30          1           0       -1.708851    2.646502    0.953746
     31          1           0       -2.199319    3.655880   -1.208014
     32          1           0       -2.340124    2.083222   -2.003002
     33          1           0       -3.544008    2.567000   -0.796681
     34          1           0       -1.260488    0.861330    2.479582
     35          1           0       -1.783966   -1.449529    3.214144
     36          1           0       -2.828597   -3.056014    1.623808
     37          1           0       -3.358509   -2.321384   -0.692744
     38          1           0       -2.853835   -0.021487   -1.413825
 ---------------------------------------------------------------------

 SCF Done:  E(RB3LYP) =  -714.226492983     A.U. after   15 cycles

 Excitation energies and oscillator strengths:

 Excited state symmetry could not be determined.
 Excited State   1:      Triplet-?Sym    3.7340 eV  332.05 nm  f=0.0000  <S**2>=2.000
      59 -> 64        -0.20841
      60 -> 64         0.14245
      60 -> 65         0.43934
      61 -> 64         0.18776
      62 -> 64         0.15001
      63 -> 64         0.39793
 This state for optimization and/or second-order correction.
 Total Energy, E(TD-HF/TD-DFT) =  -714.089272647
 Copying the excited state density for this state as the 1-particle RhoCI density.

 Excited state symmetry could not be determined.
 Excited State   2:      Triplet-?Sym    4.0609 eV  305.31 nm  f=0.0000  <S**2>=2.000
      59 -> 66        -0.17508
      61 -> 66        -0.59230
      61 -> 67         0.13431
      62 -> 66        -0.12861
      63 -> 66         0.25670
      61 <- 66        -0.10149

 Excited state symmetry could not be determined.
 Excited State   3:      Singlet-?Sym    5.3216 eV  232.98 nm  f=0.0008  <S**2>=0.000
      61 -> 64        -0.10151
      61 -> 67         0.10129
      62 -> 64         0.52167
      62 -> 66        -0.15129
      62 -> 67        -0.39094

 Excited state symmetry could not be determined.
 Excited State   4:      Singlet-?Sym    5.3673 eV  231.00 nm  f=0.0002  <S**2>=0.000
      59 -> 65        -0.10197
      60 -> 64        -0.43208
      60 -> 65         0.11461
      61 -> 65         0.13527
      62 -> 65         0.13242
      63 -> 64         0.15423
      63 -> 65         0.46274

 Alpha  occ. eigenvalues --  -19.10667 -14.35145 -10.28088 -10.22773 -10.19532
 Alpha  occ. eigenvalues --  -10.19488 -10.19401 -10.19160 -10.19143 -10.19028
 Alpha  occ. eigenvalues --  -10.19002 -10.18928 -10.18505 -10.18437 -10.18367
 Alpha  occ. eigenvalues --  -10.17544 -10.17439  -1.02420  -0.91823  -0.85163
 Alpha  occ. eigenvalues --   -0.81790  -0.78710  -0.76451  -0.74313  -0.72574
 Alpha  occ. eigenvalues --   -0.69733  -0.68146  -0.64192  -0.60356  -0.59775
 Alpha  occ. eigenvalues --   -0.58038  -0.57206  -0.55292  -0.51969  -0.48805
 Alpha  occ. eigenvalues --   -0.47093  -0.46063  -0.45913  -0.44827  -0.43915
 Alpha  occ. eigenvalues --   -0.43555  -0.42639  -0.41663  -0.41306  -0.40657
 Alpha  occ. eigenvalues --   -0.39995  -0.39099  -0.38332  -0.38232  -0.37283
 Alpha  occ. eigenvalues --   -0.36456  -0.36180  -0.35667  -0.34210  -0.33914
 Alpha  occ. eigenvalues --   -0.33399  -0.32949  -0.32514  -0.26241  -0.24975
 Alpha  occ. eigenvalues --   -0.24820  -0.23904  -0.23603
 Alpha virt. eigenvalues --   -0.00572  -0.00116   0.01818   0.03117   0.08436
 Alpha virt. eigenvalues --    0.09477   0.10487   0.10723   0.12210   0.12624
 Alpha virt. eigenvalues --    0.14207   0.14450   0.15221   0.15572   0.16127

 Mulliken charges:
               1
     1  C   -0.446291
     2  C   -0.118511
     3  C   -0.443402
     4  C   -0.082032
     5  C   -0.151844
     6  C   -0.382005
     7  C    0.586411
     8  O   -0.520085
     9  N   -0.574361
    10  C   -0.054170
    11  C   -0.455202
    12  C    0.164274
    13  C   -0.192301
    14  C   -0.131590
    15  C   -0.130128
    16  C   -0.131829
    17  C   -0.189942
    18  H    0.152551
    19  H    0.139090
    20  H    0.141468
    21  H    0.126104
    22  H    0.141191
    23  H    0.149744
    24  H    0.146633
    25  H    0.143655
    26  H    0.124219
    27  H    0.185771
    28  H    0.161886
    29  H    0.319254
    30  H    0.183003
    31  H    0.160578
    32  H    0.140221
    33  H    0.158543
    34  H    0.162834
    35  H    0.133204
    36  H    0.129640
    37  H    0.129258
    38  H    0.124162
 Sum of Mulliken charges =  -0.00000

 Dipole moment (field-independent basis, Debye):
    X=             -0.0716    Y=             -1.7682    Z=             -2.8440  Tot=              3.3497
 Quadrupole moment (field-independent basis, Debye-Ang):
   XX=            -99.2803   YY=           -104.8687   ZZ=           -104.0644
   XY=              0.5479   XZ=             -1.0467   YZ=             -8.7211

 Normal termination of Gaussian 16 at Sat Nov  5 11:53:29 2022.
