 Gaussian 16, Revision B.01,
 Gaussian 16:  ES64L-G16RevB.01 20-Dec-2017

 -----------------------------
 #p b3lyp/6-31g(d) opt SCF=XQC
 -----------------------------

 ------------------------------
 Gaussian input prepared by ASE
 ------------------------------
 Symbolic Z-matrix:
 Charge =  0 Multiplicity = 1

 SCF Done:  E(RB3LYP) =  -561.567569862     A.U. after   14 cycles
 SCF Done:  E(RB3LYP) =  -561.570935267     A.U. after   12 cycles
 SCF Done:  E(RB3LYP) =  -561.571150485     A.U. after   12 cycles
 SCF Done:  E(RB3LYP) =  -561.571289931     A.U. after   11 cycles
 SCF Done:  E(RB3LYP) =  -561.571389446     A.U. after   10 cycles
 SCF Done:  E(RB3LYP) =  -561.571449164     A.U. after   11 cycles
 SCF Done:  E(RB3LYP) =  -561.571479342     A.U. after   11 cycles
 SCF Done:  E(RB3LYP) =  -561.571493139     A.U. after   10 cycles
 SCF Done:  E(RB3LYP) =  -561.571495379     A.U. after    8 cycles
 SCF Done:  E(RB3LYP) =  -561.571495446     A.U. after    7 cycles
 Optimization completed.
    -- Stationary point found.

                         Standard orientation:
 ---------------------------------------------------------------------
 Center     Atomic      Atomic             Coordinates (Angstroms)
 Number     Number       Type             X           Y           Z
 ---------------------------------------------------------------------
      1          6           0       -4.729139   -1.704435    0.079294
      2          6           0       -3.546092   -0.768007    0.013942
      3          6           0       -2.387873   -1.114693   -0.693768
      4          6           0       -1.300401   -0.247313   -0.776487
      5          6           0       -1.335193    1.009924   -0.149411
      6          6           0       -0.239757    2.011844   -0.201386
      7          7           0        1.028588    1.896309   -0.283175
      8          6           0        1.704716    0.603802   -0.289505
      9          6           0        3.082262    0.760089    0.371810
     10          6           0        3.969721   -0.503231    0.399698
     11          6           0        3.365068   -1.639075    1.241459
     12          6           0        4.343619   -0.996803   -1.007461
     13          6           0       -2.509464    1.367055    0.535603
     14          6           0       -3.586117    0.491235    0.628818
     15          1           0       -5.291976   -1.575065    1.009810
     16          1           0       -4.415981   -2.751770    0.014335
     17          1           0       -5.425966   -1.521407   -0.749790
     18          1           0       -2.336944   -2.079946   -1.192798
     19          1           0       -0.433909   -0.541990   -1.357352
     20          1           0       -0.604327    3.044834   -0.136687
     21          1           0        1.121757   -0.181795    0.212196
     22          1           0        1.833648    0.290353   -1.335841
     23          1           0        3.613251    1.567463   -0.148493
     24          1           0        2.926766    1.111064    1.401058
     25          1           0        4.905113   -0.200233    0.893382
     26          1           0        2.454203   -2.044379    0.784098
     27          1           0        3.105845   -1.293730    2.249643
     28          1           0        4.074582   -2.468950    1.344414
     29          1           0        3.470866   -1.382405   -1.548919
     30          1           0        4.780989   -0.191533   -1.610075
     31          1           0        5.076769   -1.810535   -0.953709
     32          1           0       -2.567930    2.343794    1.011059
     33          1           0       -4.474980    0.789706    1.180266
 ---------------------------------------------------------------------

 The electronic state is 1-A.
 Alpha  occ. eigenvalues --  -14.31649 -10.22168 -10.20530 -10.19985 -10.19952
 Alpha  occ. eigenvalues --  -10.19651 -10.19604 -10.19282 -10.19277 -10.18997
 Alpha  occ. eigenvalues --  -10.18343 -10.16874 -10.16829 -10.16825  -0.90739
 Alpha  occ. eigenvalues --   -0.85926  -0.80023  -0.78047  -0.74952  -0.72815
 Alpha  occ. eigenvalues --   -0.69474  -0.67659  -0.64139  -0.61157  -0.59854
 Alpha  occ. eigenvalues --   -0.55857  -0.54043  -0.49825  -0.47781  -0.46472
 Alpha  occ. eigenvalues --   -0.45802  -0.44748  -0.43413  -0.42501  -0.42305
 Alpha  occ. eigenvalues --   -0.42119  -0.41225  -0.40146  -0.38840  -0.37656
 Alpha  occ. eigenvalues --   -0.36666  -0.36293  -0.35725  -0.34665  -0.34206
 Alpha  occ. eigenvalues --   -0.31961  -0.31597  -0.31129  -0.29374  -0.25536
 Alpha  occ. eigenvalues --   -0.23801  -0.23080
 Alpha virt. eigenvalues --   -0.03620  -0.00644   0.04471   0.08179   0.09470
 Alpha virt. eigenvalues --    0.11154   0.11842   0.12936   0.13536   0.14362
 Alpha virt. eigenvalues --    0.15169   0.15306   0.16120   0.16522   0.16765

 Mulliken charges:
               1
     1  C   -0.530726
     2  C    0.180229
     3  C   -0.183931
     4  C   -0.173144
     5  C    0.142027
     6  C   -0.019931
     7  N   -0.355636
     8  C   -0.161832
     9  C   -0.251278
    10  C   -0.070416
    11  C   -0.444645
    12  C   -0.445461
    13  C   -0.181075
    14  C   -0.179121
    15  H    0.160208
    16  H    0.159971
    17  H    0.169822
    18  H    0.126554
    19  H    0.142411
    20  H    0.132673
    21  H    0.137827
    22  H    0.147330
    23  H    0.140017
    24  H    0.132782
    25  H    0.123949
    26  H    0.139904
    27  H    0.140997
    28  H    0.138697
    29  H    0.137485
    30  H    0.142198
    31  H    0.139609
    32  H    0.135458
    33  H    0.127047
 Sum of Mulliken charges =  -0.00000

 Dipole moment (field-independent basis, Debye):
    X=             -1.8946    Y=             -1.7553    Z=              0.1188  Tot=              2.5855
 Quadrupole moment (field-independent basis, Debye-Ang):
   XX=            -77.8754   YY=            -87.4130   ZZ=            -86.7209
   XY=             -1.7011   XZ=             -1.4566   YZ=              2.9598

 Normal termination of Gaussian 16 at Fri Nov  4 19:17:38 2022.
