 Gaussian 16, Revision B.01,
 Gaussian 16:  ES64L-G16RevB.01 20-Dec-2017

 -------------------------------------------------------------------
 #p b3lyp/6-31g(d) 6D 10F nosymm GFInput td=(50-50,nstate=2) SCF=XQC
 -------------------------------------------------------------------

 ------------------------------
 Gaussian input prepared by ASE
 ------------------------------
 Symbolic Z-matrix:
 Charge =  0 Multiplicity = 1

                          Input orientation:
 ---------------------------------------------------------------------
 Center     Atomic      Atomic             Coordinates (Angstroms)
 Number     Number       Type             X           Y           Z
 ---------------------------------------------------------------------
      1          6           0       -5.083292    1.241898    0.052819
      2          6           0       -3.853040    0.375129   -0.073512
      3          6           0       -2.782041    0.505359    0.820086
      4          6           0       -1.652647   -0.305104    0.723097
      5          6           0       -1.555596   -1.284669   -0.279955
      6          6           0       -0.407224   -2.211606   -0.448940
      7          7           0        0.840057   -2.088864   -0.208186
      8          6           0        1.430329   -0.850119    0.286640
      9          6           0        2.865304   -0.734505   -0.248967
     10          6           0        3.670443    0.494827    0.225196
     11          6           0        3.067524    1.825048   -0.255749
     12          6           0        3.893856    0.507057    1.746199
     13          6           0       -2.643791   -1.432773   -1.157221
     14          6           0       -3.762082   -0.610530   -1.066269
     15          1           0       -5.557329    1.409478   -0.920109
     16          1           0       -4.843404    2.218331    0.486675
     17          1           0       -5.833833    0.772673    0.703175
     18          1           0       -2.833934    1.252390    1.609130
     19          1           0       -0.857921   -0.191369    1.451465
     20          1           0       -0.699170   -3.176248   -0.882987
     21          1           0        0.842764    0.037996    0.013278
     22          1           0        1.451563   -0.896342    1.385324
     23          1           0        3.401009   -1.650985    0.029608
     24          1           0        2.818598   -0.730183   -1.346470
     25          1           0        4.660984    0.402401   -0.244672
     26          1           0        2.097942    2.026770    0.215787
     27          1           0        2.915549    1.824378   -1.341933
     28          1           0        3.729322    2.664658   -0.011243
     29          1           0        2.956414    0.663612    2.294154
     30          1           0        4.329463   -0.437670    2.093522
     31          1           0        4.576080    1.315930    2.034043
     32          1           0       -2.600633   -2.198676   -1.928600
     33          1           0       -4.581269   -0.738291   -1.770448
 ---------------------------------------------------------------------

 SCF Done:  E(RB3LYP) =  -561.571491801     A.U. after   14 cycles

 Excitation energies and oscillator strengths:

 Excited state symmetry could not be determined.
 Excited State   1:      Triplet-?Sym    3.2291 eV  383.96 nm  f=0.0000  <S**2>=2.000
      49 -> 55         0.12595
      50 -> 54         0.23018
      51 -> 53         0.46651
      52 -> 53        -0.45254
 This state for optimization and/or second-order correction.
 Total Energy, E(TD-HF/TD-DFT) =  -561.452823577
 Copying the excited state density for this state as the 1-particle RhoCI density.

 Excited state symmetry could not be determined.
 Excited State   2:      Triplet-?Sym    3.4835 eV  355.92 nm  f=0.0000  <S**2>=2.000
      51 -> 53         0.44931
      52 -> 53         0.49306
      52 -> 55        -0.18878

 Excited state symmetry could not be determined.
 Excited State   3:      Singlet-?Sym    4.1347 eV  299.87 nm  f=0.0043  <S**2>=0.000
      51 -> 53         0.27753
      52 -> 53         0.63842
      52 -> 55        -0.10565

 Excited state symmetry could not be determined.
 Excited State   4:      Singlet-?Sym    4.9855 eV  248.69 nm  f=0.0079  <S**2>=0.000
      50 -> 53         0.54167
      51 -> 53         0.10140
      51 -> 54        -0.33236
      52 -> 54         0.28328

 Alpha  occ. eigenvalues --  -14.31649 -10.22168 -10.20530 -10.19985 -10.19952
 Alpha  occ. eigenvalues --  -10.19651 -10.19604 -10.19282 -10.19277 -10.18997
 Alpha  occ. eigenvalues --  -10.18342 -10.16874 -10.16828 -10.16825  -0.90739
 Alpha  occ. eigenvalues --   -0.85926  -0.80023  -0.78047  -0.74952  -0.72816
 Alpha  occ. eigenvalues --   -0.69474  -0.67659  -0.64139  -0.61157  -0.59854
 Alpha  occ. eigenvalues --   -0.55857  -0.54043  -0.49825  -0.47781  -0.46472
 Alpha  occ. eigenvalues --   -0.45802  -0.44748  -0.43413  -0.42501  -0.42305
 Alpha  occ. eigenvalues --   -0.42119  -0.41225  -0.40146  -0.38840  -0.37656
 Alpha  occ. eigenvalues --   -0.36666  -0.36293  -0.35725  -0.34665  -0.34206
 Alpha  occ. eigenvalues --   -0.31961  -0.31597  -0.31129  -0.29375  -0.25536
 Alpha  occ. eigenvalues --   -0.23801  -0.23080
 Alpha virt. eigenvalues --   -0.03620  -0.00644   0.04471   0.08179   0.09470
 Alpha virt. eigenvalues --    0.11154   0.11842   0.12936   0.13536   0.14362
 Alpha virt. eigenvalues --    0.15169   0.15306   0.16120   0.16522   0.16765

 Mulliken charges:
               1
     1  C   -0.530727
     2  C    0.180228
     3  C   -0.183930
     4  C   -0.173140
     5  C    0.142032
     6  C   -0.019942
     7  N   -0.355633
     8  C   -0.161840
     9  C   -0.251282
    10  C   -0.070388
    11  C   -0.444646
    12  C   -0.445471
    13  C   -0.181074
    14  C   -0.179123
    15  H    0.160208
    16  H    0.159971
    17  H    0.169823
    18  H    0.126553
    19  H    0.142412
    20  H    0.132675
    21  H    0.137830
    22  H    0.147331
    23  H    0.140017
    24  H    0.132780
    25  H    0.123946
    26  H    0.139900
    27  H    0.140996
    28  H    0.138697
    29  H    0.137485
    30  H    0.142198
    31  H    0.139609
    32  H    0.135457
    33  H    0.127048
 Sum of Mulliken charges =  -0.00000

 Dipole moment (field-independent basis, Debye):
    X=             -1.9851    Y=              1.6339    Z=              0.2725  Tot=              2.5855
 Quadrupole moment (field-independent basis, Debye-Ang):
   XX=            -77.2911   YY=            -89.8850   ZZ=            -84.4862
   XY=              1.2827   XZ=              2.3651   YZ=              2.2971

 Normal termination of Gaussian 16 at Sat Nov  5 11:47:55 2022.
