 Gaussian 16, Revision B.01,
 Gaussian 16:  ES64L-G16RevB.01 20-Dec-2017

 -----------------------------
 #p b3lyp/6-31g(d) opt SCF=XQC
 -----------------------------

 ------------------------------
 Gaussian input prepared by ASE
 ------------------------------
 Symbolic Z-matrix:
 Charge =  0 Multiplicity = 1

 SCF Done:  E(RB3LYP) =  -1467.72153633     A.U. after   16 cycles
 SCF Done:  E(RB3LYP) =  -1467.72771652     A.U. after   13 cycles
 SCF Done:  E(RB3LYP) =  -1467.72801978     A.U. after   13 cycles
 SCF Done:  E(RB3LYP) =  -1467.72841389     A.U. after   13 cycles
 SCF Done:  E(RB3LYP) =  -1467.72944209     A.U. after   13 cycles
 SCF Done:  E(RB3LYP) =  -1467.72960736     A.U. after   12 cycles
 SCF Done:  E(RB3LYP) =  -1467.72956760     A.U. after   12 cycles
 SCF Done:  E(RB3LYP) =  -1467.72970575     A.U. after   11 cycles
 SCF Done:  E(RB3LYP) =  -1467.72973834     A.U. after   10 cycles
 SCF Done:  E(RB3LYP) =  -1467.72975129     A.U. after   11 cycles
 SCF Done:  E(RB3LYP) =  -1467.72976164     A.U. after   10 cycles
 SCF Done:  E(RB3LYP) =  -1467.72977049     A.U. after   10 cycles
 SCF Done:  E(RB3LYP) =  -1467.72977550     A.U. after   10 cycles
 SCF Done:  E(RB3LYP) =  -1467.72977883     A.U. after   10 cycles
 SCF Done:  E(RB3LYP) =  -1467.72978043     A.U. after    8 cycles
 SCF Done:  E(RB3LYP) =  -1467.72978125     A.U. after    8 cycles
 SCF Done:  E(RB3LYP) =  -1467.72978145     A.U. after    8 cycles
 SCF Done:  E(RB3LYP) =  -1467.72978148     A.U. after    7 cycles
 SCF Done:  E(RB3LYP) =  -1467.72978146     A.U. after    7 cycles
 Optimization completed.
    -- Stationary point found.

                         Standard orientation:
 ---------------------------------------------------------------------
 Center     Atomic      Atomic             Coordinates (Angstroms)
 Number     Number       Type             X           Y           Z
 ---------------------------------------------------------------------
      1          6           0       -8.071786    1.758251    0.554666
      2         16           0       -6.766027    0.974198    1.555415
      3          6           0       -5.615255    0.363327    0.338162
      4          6           0       -5.793937    0.468903   -1.047152
      5          6           0       -4.828423   -0.058365   -1.906673
      6          6           0       -3.686116   -0.688266   -1.421486
      7          6           0       -3.497089   -0.776518   -0.034290
      8          7           0       -2.381733   -1.434776    0.534056
      9          6           0       -1.088539   -1.494103    0.102603
     10          6           0       -0.516977   -0.847913   -0.951213
     11          6           0        0.874610   -0.976252   -1.328245
     12          8           0        1.326657   -0.378752   -2.314954
     13          6           0        1.841018   -1.863025   -0.547620
     14          7           0        1.467381   -3.072189   -0.333945
     15          6           0        3.188072   -1.302571   -0.165084
     16          6           0        3.828882   -1.839080    0.904409
     17          6           0        5.252728   -1.601203    1.345394
     18          7           0        5.450226   -1.056162    2.699907
     19          7           0        3.701134   -0.280854   -0.970270
     20          6           0        4.202672    0.958150   -0.513118
     21          6           0        4.894597    1.765415   -1.431209
     22          6           0        5.375025    3.016756   -1.053015
     23          6           0        5.188290    3.486875    0.248879
     24          6           0        4.496598    2.690214    1.162666
     25          6           0        3.999863    1.441393    0.789297
     26          6           0       -4.459864   -0.254728    0.835045
     27          1           0       -8.583579    1.032042   -0.082409
     28          1           0       -7.676058    2.578866   -0.049614
     29          1           0       -8.788270    2.162868    1.273831
     30          1           0       -6.672961    0.947212   -1.462849
     31          1           0       -4.979527    0.010826   -2.980482
     32          1           0       -2.970924   -1.131916   -2.102746
     33          1           0       -2.558779   -1.869255    1.428998
     34          1           0       -0.476914   -2.161834    0.699404
     35          1           0       -1.078734   -0.163071   -1.576038
     36          1           0        2.246555   -3.608901    0.067334
     37          1           0        3.268727   -2.547800    1.513318
     38          1           0        5.773195   -0.947383    0.642122
     39          1           0        5.773717   -2.569470    1.312380
     40          1           0        5.085166   -0.106273    2.733717
     41          1           0        4.906907   -1.597092    3.372209
     42          1           0        3.216083   -0.213537   -1.862025
     43          1           0        5.055558    1.396146   -2.440791
     44          1           0        5.907807    3.623760   -1.780541
     45          1           0        5.573469    4.458114    0.545332
     46          1           0        4.324841    3.048367    2.174952
     47          1           0        3.432890    0.845646    1.497314
     48          1           0       -4.301260   -0.320157    1.909257
 ---------------------------------------------------------------------

 The electronic state is 1-A.
 Alpha  occ. eigenvalues --  -88.89501 -19.12888 -14.39644 -14.34178 -14.32805
 Alpha  occ. eigenvalues --  -14.30817 -10.27052 -10.25360 -10.25178 -10.24505
 Alpha  occ. eigenvalues --  -10.23870 -10.23320 -10.22838 -10.22380 -10.20794
 Alpha  occ. eigenvalues --  -10.20706 -10.20640 -10.20325 -10.20055 -10.18676
 Alpha  occ. eigenvalues --  -10.18505 -10.18345 -10.18301 -10.17994 -10.17861
 Alpha  occ. eigenvalues --  -10.17680  -7.95599  -5.92129  -5.91716  -5.91081
 Alpha  occ. eigenvalues --   -1.02701  -0.97671  -0.93978  -0.90851  -0.87324
 Alpha  occ. eigenvalues --   -0.87303  -0.83713  -0.81185  -0.78830  -0.76749
 Alpha  occ. eigenvalues --   -0.75605  -0.74759  -0.73735  -0.72429  -0.68175
 Alpha  occ. eigenvalues --   -0.67009  -0.65466  -0.63893  -0.62242  -0.60430
 Alpha  occ. eigenvalues --   -0.59860  -0.58262  -0.55982  -0.54898  -0.53496
 Alpha  occ. eigenvalues --   -0.52447  -0.51403  -0.50603  -0.49487  -0.48724
 Alpha  occ. eigenvalues --   -0.47543  -0.47315  -0.46443  -0.45471  -0.44613
 Alpha  occ. eigenvalues --   -0.44588  -0.44174  -0.42978  -0.42302  -0.41802
 Alpha  occ. eigenvalues --   -0.41739  -0.41308  -0.41113  -0.40706  -0.39956
 Alpha  occ. eigenvalues --   -0.39066  -0.38495  -0.37791  -0.37398  -0.37061
 Alpha  occ. eigenvalues --   -0.36087  -0.35465  -0.35142  -0.33864  -0.33592
 Alpha  occ. eigenvalues --   -0.33044  -0.31040  -0.29776  -0.28498  -0.27223
 Alpha  occ. eigenvalues --   -0.25398  -0.24353  -0.24219  -0.22983  -0.22401
 Alpha  occ. eigenvalues --   -0.21456  -0.18822
 Alpha virt. eigenvalues --   -0.05956  -0.03592  -0.01759  -0.00018   0.00606
 Alpha virt. eigenvalues --    0.01335   0.02516   0.05655   0.06036   0.06675
 Alpha virt. eigenvalues --    0.08777   0.09111   0.09743   0.10246   0.11661

 Mulliken charges:
               1
     1  C   -0.604714
     2  S    0.141777
     3  C   -0.061918
     4  C   -0.162025
     5  C   -0.132081
     6  C   -0.164924
     7  C    0.356330
     8  N   -0.681200
     9  C    0.104869
    10  C   -0.235694
    11  C    0.455641
    12  O   -0.522905
    13  C    0.122613
    14  N   -0.586296
    15  C    0.328825
    16  C   -0.203716
    17  C   -0.182591
    18  N   -0.708336
    19  N   -0.755780
    20  C    0.311672
    21  C   -0.177337
    22  C   -0.132812
    23  C   -0.131306
    24  C   -0.141418
    25  C   -0.167378
    26  C   -0.218209
    27  H    0.191220
    28  H    0.192583
    29  H    0.194771
    30  H    0.135398
    31  H    0.142966
    32  H    0.162582
    33  H    0.341427
    34  H    0.182258
    35  H    0.148686
    36  H    0.288398
    37  H    0.116777
    38  H    0.175808
    39  H    0.151955
    40  H    0.302772
    41  H    0.286584
    42  H    0.363046
    43  H    0.131504
    44  H    0.128827
    45  H    0.123945
    46  H    0.125308
    47  H    0.122624
    48  H    0.139472
 Sum of Mulliken charges =  -0.00000

 Dipole moment (field-independent basis, Debye):
    X=             -5.6663    Y=              0.0911    Z=              1.9861  Tot=              6.0050
 Quadrupole moment (field-independent basis, Debye-Ang):
   XX=           -148.7311   YY=           -155.8369   ZZ=           -156.3637
   XY=             -4.6111   XZ=              1.7635   YZ=             -6.9045

 Normal termination of Gaussian 16 at Fri Nov  4 19:30:43 2022.
