 Gaussian 16, Revision B.01,
 Gaussian 16:  ES64L-G16RevB.01 20-Dec-2017

 -------------------------------------------------------------------
 #p b3lyp/6-31g(d) 6D 10F nosymm GFInput td=(50-50,nstate=2) SCF=XQC
 -------------------------------------------------------------------

 ------------------------------
 Gaussian input prepared by ASE
 ------------------------------
 Symbolic Z-matrix:
 Charge =  0 Multiplicity = 1

                          Input orientation:
 ---------------------------------------------------------------------
 Center     Atomic      Atomic             Coordinates (Angstroms)
 Number     Number       Type             X           Y           Z
 ---------------------------------------------------------------------
      1          6           0        8.010455    2.142219    2.096524
      2         16           0        6.930505    2.120484    0.628710
      3          6           0        5.800638    0.781467    0.959735
      4          6           0        5.850435   -0.037494    2.095073
      5          6           0        4.917561   -1.065662    2.242118
      6          6           0        3.933079   -1.299222    1.286456
      7          6           0        3.870468   -0.466750    0.159113
      8          7           0        2.923602   -0.665035   -0.872619
      9          6           0        1.626846   -1.083618   -0.800272
     10          6           0        0.877739   -1.331501    0.309758
     11          6           0       -0.500452   -1.772969    0.280862
     12          8           0       -1.118868   -2.004912    1.329055
     13          6           0       -1.247348   -1.992748   -1.031971
     14          7           0       -0.668649   -2.733402   -1.905973
     15          6           0       -2.632605   -1.414973   -1.181087
     16          6           0       -3.092696   -1.159278   -2.432180
     17          6           0       -4.497079   -0.790483   -2.844602
     18          7           0       -4.672346    0.495079   -3.542738
     19          7           0       -3.364922   -1.213559   -0.006946
     20          6           0       -4.021452   -0.018477    0.362384
     21          6           0       -4.904177   -0.064698    1.454166
     22          6           0       -5.548136    1.089212    1.894057
     23          6           0       -5.337474    2.310840    1.250586
     24          6           0       -4.457021    2.362173    0.168791
     25          6           0       -3.797044    1.214466   -0.270415
     26          6           0        4.802299    0.563568    0.000749
     27          1           0        8.580524    1.214333    2.192562
     28          1           0        7.441703    2.333021    3.010461
     29          1           0        8.706975    2.968678    1.935006
     30          1           0        6.605709    0.109593    2.858090
     31          1           0        4.970591   -1.709075    3.116127
     32          1           0        3.247085   -2.129960    1.394749
     33          1           0        3.238040   -0.390334   -1.792785
     34          1           0        1.179347   -1.235075   -1.776450
     35          1           0        1.271221   -1.189114    1.309700
     36          1           0       -1.317434   -2.926804   -2.679192
     37          1           0       -2.379785   -1.251580   -3.250753
     38          1           0       -5.169549   -0.798628   -1.983978
     39          1           0       -4.856691   -1.575123   -3.526569
     40          1           0       -4.463131    1.255547   -2.898830
     41          1           0       -3.997967    0.569166   -4.303996
     42          1           0       -2.968703   -1.715345    0.784416
     43          1           0       -5.082676   -1.016696    1.947483
     44          1           0       -6.227111    1.029134    2.740808
     45          1           0       -5.849151    3.207514    1.587803
     46          1           0       -4.265902    3.308363   -0.331903
     47          1           0       -3.087774    1.272556   -1.089697
     48          1           0        4.741318    1.209544   -0.872385
 ---------------------------------------------------------------------

 SCF Done:  E(RB3LYP) =  -1467.72977709     A.U. after   16 cycles

 Excitation energies and oscillator strengths:

 Excited state symmetry could not be determined.
 Excited State   1:      Triplet-?Sym    2.2039 eV  562.57 nm  f=0.0000  <S**2>=2.000
      91 -> 98        -0.15338
      91 -> 99         0.11107
      97 -> 98         0.57657
      97 -> 99        -0.31303
 This state for optimization and/or second-order correction.
 Total Energy, E(TD-HF/TD-DFT) =  -1467.64878586
 Copying the excited state density for this state as the 1-particle RhoCI density.

 Excited state symmetry could not be determined.
 Excited State   2:      Triplet-?Sym    2.7102 eV  457.48 nm  f=0.0000  <S**2>=2.000
      90 -> 98        -0.10229
      95 -> 98         0.26540
      95 -> 99         0.12310
      96 -> 98         0.53930
      96 -> 99         0.26099

 Excited state symmetry could not be determined.
 Excited State   3:      Singlet-?Sym    2.8599 eV  433.52 nm  f=0.0468  <S**2>=0.000
      97 -> 98         0.69626

 Excited state symmetry could not be determined.
 Excited State   4:      Singlet-?Sym    3.5568 eV  348.59 nm  f=0.0278  <S**2>=0.000
      96 -> 98         0.11613
      97 -> 99         0.67930

 Alpha  occ. eigenvalues --  -88.89501 -19.12888 -14.39644 -14.34178 -14.32804
 Alpha  occ. eigenvalues --  -14.30816 -10.27052 -10.25360 -10.25178 -10.24505
 Alpha  occ. eigenvalues --  -10.23870 -10.23320 -10.22838 -10.22380 -10.20794
 Alpha  occ. eigenvalues --  -10.20706 -10.20640 -10.20325 -10.20054 -10.18676
 Alpha  occ. eigenvalues --  -10.18505 -10.18345 -10.18301 -10.17994 -10.17861
 Alpha  occ. eigenvalues --  -10.17680  -7.95599  -5.92129  -5.91716  -5.91081
 Alpha  occ. eigenvalues --   -1.02701  -0.97671  -0.93978  -0.90851  -0.87324
 Alpha  occ. eigenvalues --   -0.87303  -0.83713  -0.81185  -0.78830  -0.76749
 Alpha  occ. eigenvalues --   -0.75605  -0.74759  -0.73735  -0.72429  -0.68175
 Alpha  occ. eigenvalues --   -0.67009  -0.65466  -0.63893  -0.62242  -0.60430
 Alpha  occ. eigenvalues --   -0.59860  -0.58262  -0.55982  -0.54898  -0.53496
 Alpha  occ. eigenvalues --   -0.52447  -0.51403  -0.50603  -0.49487  -0.48724
 Alpha  occ. eigenvalues --   -0.47543  -0.47315  -0.46443  -0.45471  -0.44613
 Alpha  occ. eigenvalues --   -0.44588  -0.44174  -0.42978  -0.42302  -0.41802
 Alpha  occ. eigenvalues --   -0.41739  -0.41308  -0.41113  -0.40706  -0.39956
 Alpha  occ. eigenvalues --   -0.39066  -0.38495  -0.37791  -0.37398  -0.37061
 Alpha  occ. eigenvalues --   -0.36087  -0.35465  -0.35142  -0.33864  -0.33592
 Alpha  occ. eigenvalues --   -0.33044  -0.31040  -0.29776  -0.28498  -0.27223
 Alpha  occ. eigenvalues --   -0.25398  -0.24353  -0.24219  -0.22983  -0.22401
 Alpha  occ. eigenvalues --   -0.21456  -0.18822
 Alpha virt. eigenvalues --   -0.05956  -0.03592  -0.01759  -0.00018   0.00606
 Alpha virt. eigenvalues --    0.01335   0.02516   0.05655   0.06036   0.06675
 Alpha virt. eigenvalues --    0.08777   0.09111   0.09743   0.10246   0.11661

 Mulliken charges:
               1
     1  C   -0.604718
     2  S    0.141775
     3  C   -0.061912
     4  C   -0.162036
     5  C   -0.132068
     6  C   -0.164937
     7  C    0.356331
     8  N   -0.681196
     9  C    0.104875
    10  C   -0.235695
    11  C    0.455636
    12  O   -0.522906
    13  C    0.122612
    14  N   -0.586290
    15  C    0.328855
    16  C   -0.203739
    17  C   -0.182605
    18  N   -0.708331
    19  N   -0.755792
    20  C    0.311692
    21  C   -0.177335
    22  C   -0.132815
    23  C   -0.131307
    24  C   -0.141418
    25  C   -0.167391
    26  C   -0.218203
    27  H    0.191221
    28  H    0.192584
    29  H    0.194773
    30  H    0.135397
    31  H    0.142965
    32  H    0.162582
    33  H    0.341427
    34  H    0.182256
    35  H    0.148686
    36  H    0.288397
    37  H    0.116779
    38  H    0.175812
    39  H    0.151958
    40  H    0.302771
    41  H    0.286584
    42  H    0.363046
    43  H    0.131502
    44  H    0.128828
    45  H    0.123945
    46  H    0.125308
    47  H    0.122628
    48  H    0.139470
 Sum of Mulliken charges =  -0.00000

 Dipole moment (field-independent basis, Debye):
    X=              5.7166    Y=              1.7703    Z=             -0.4969  Tot=              6.0050
 Quadrupole moment (field-independent basis, Debye-Ang):
   XX=           -146.9996   YY=           -162.8950   ZZ=           -147.9496
   XY=              2.9232   XZ=              4.2314   YZ=              2.1423

 Normal termination of Gaussian 16 at Sat Nov  5 11:49:09 2022.
