 Gaussian 16, Revision B.01,
 Gaussian 16:  ES64L-G16RevB.01 20-Dec-2017

 -------------------------------------------------------------------
 #p b3lyp/6-31g(d) 6D 10F nosymm GFInput td=(50-50,nstate=2) SCF=XQC
 -------------------------------------------------------------------

 ------------------------------
 Gaussian input prepared by ASE
 ------------------------------
 Symbolic Z-matrix:
 Charge =  0 Multiplicity = 1

                          Input orientation:
 ---------------------------------------------------------------------
 Center     Atomic      Atomic             Coordinates (Angstroms)
 Number     Number       Type             X           Y           Z
 ---------------------------------------------------------------------
      1          6           0        1.994099    2.065672    0.225098
      2          6           0        2.891377    1.621050    1.352315
      3          6           0        3.609586    2.545220    2.121760
      4          6           0        4.412877    2.145584    3.190596
      5          6           0        4.517620    0.794558    3.520670
      6          6           0        3.822818   -0.148065    2.764603
      7          6           0        3.028335    0.262331    1.691424
      8          7           0        2.316261   -0.734271    0.942174
      9          6           0        1.093899   -1.299948    1.274876
     10         16           0        0.303056   -0.989106    2.825166
     11          6           0       -1.425116   -1.170129    2.268767
     12          6           0       -1.921800    0.007849    1.409039
     13          8           0       -1.228547    0.986798    1.168381
     14          7           0       -3.203774   -0.099371    0.917341
     15          6           0       -4.133674   -1.207834    1.203843
     16          6           0       -4.168210   -2.281929    0.165464
     17          6           0       -5.084282   -2.661797   -0.771436
     18          6           0       -4.505524   -3.762184   -1.487346
     19          6           0       -3.279182   -3.967975   -0.934480
     20          8           0       -3.060563   -3.080857    0.076372
     21          6           0       -3.701625    0.972097    0.084021
     22          6           0       -3.723340    0.837831   -1.245730
     23          6           0       -4.223219    1.915333   -2.175623
     24          6           0       -4.350598    3.276411   -1.474160
     25          6           0       -5.019033    3.123222   -0.102025
     26          6           0       -4.195654    2.201569    0.811671
     27          7           0        0.645876   -2.054089    0.309108
     28          7           0        1.577141   -2.009875   -0.720709
     29          6           0        2.556717   -1.222277   -0.334184
     30          7           0        3.642989   -0.863506   -1.111324
     31          6           0        4.993465   -0.861007   -0.503645
     32          6           0        6.042773   -1.183079   -1.570599
     33          8           0        5.866929   -0.379332   -2.721879
     34          6           0        4.585638   -0.541238   -3.341890
     35          6           0        3.594396   -1.341401   -2.496151
     36          1           0        2.314944    1.634566   -0.730183
     37          1           0        2.011781    3.155489    0.128997
     38          1           0        0.958763    1.752148    0.402855
     39          1           0        3.524216    3.601601    1.879913
     40          1           0        4.951761    2.891846    3.768191
     41          1           0        5.134218    0.474656    4.355591
     42          1           0        3.890862   -1.207431    2.995163
     43          1           0       -2.008571   -1.251000    3.192682
     44          1           0       -1.518194   -2.108616    1.719300
     45          1           0       -3.888764   -1.638303    2.179235
     46          1           0       -5.138340   -0.782493    1.290909
     47          1           0       -6.052681   -2.209610   -0.936495
     48          1           0       -4.945236   -4.317852   -2.303769
     49          1           0       -2.473801   -4.659347   -1.128828
     50          1           0       -3.345906   -0.079596   -1.690414
     51          1           0       -3.543917    1.993281   -3.035061
     52          1           0       -5.195442    1.612982   -2.597003
     53          1           0       -4.915814    3.974144   -2.103896
     54          1           0       -3.349114    3.706698   -1.339830
     55          1           0       -5.151612    4.101288    0.375923
     56          1           0       -6.024443    2.699510   -0.237263
     57          1           0       -3.323077    2.731994    1.217206
     58          1           0       -4.793836    1.895610    1.682089
     59          1           0        5.063477   -1.600058    0.307261
     60          1           0        5.202477    0.125526   -0.077906
     61          1           0        7.039435   -0.952596   -1.182881
     62          1           0        6.025865   -2.255021   -1.822738
     63          1           0        4.711850   -1.036724   -4.315990
     64          1           0        4.193407    0.467114   -3.520181
     65          1           0        2.580896   -1.194238   -2.875212
     66          1           0        3.793083   -2.421824   -2.561007
 ---------------------------------------------------------------------

 SCF Done:  E(RB3LYP) =  -1906.97768285     A.U. after   15 cycles

 Excitation energies and oscillator strengths:

 Excited state symmetry could not be determined.
 Excited State   1:      Triplet-?Sym    3.6879 eV  336.19 nm  f=0.0000  <S**2>=2.000
     120 ->132         0.11743
     122 ->132         0.34922
     123 ->133        -0.15808
     125 ->133         0.37729
     129 ->132         0.34992
     129 ->133        -0.12807
 This state for optimization and/or second-order correction.
 Total Energy, E(TD-HF/TD-DFT) =  -1906.84215593
 Copying the excited state density for this state as the 1-particle RhoCI density.

 Excited state symmetry could not be determined.
 Excited State   2:      Triplet-?Sym    3.8958 eV  318.25 nm  f=0.0000  <S**2>=2.000
     131 ->132         0.53386
     131 ->133        -0.20935
     131 ->135        -0.23301
     131 ->136         0.16711
     131 ->137         0.20970
     131 ->138         0.13977

 Excited state symmetry could not be determined.
 Excited State   3:      Singlet-?Sym    4.0576 eV  305.56 nm  f=0.0051  <S**2>=0.000
     131 ->132         0.70590

 Excited state symmetry could not be determined.
 Excited State   4:      Singlet-?Sym    4.3186 eV  287.09 nm  f=0.0032  <S**2>=0.000
     131 ->133         0.70336

 Alpha  occ. eigenvalues --  -88.88340 -19.21351 -19.14493 -19.10890 -14.38999
 Alpha  occ. eigenvalues --  -14.36323 -14.35386 -14.32270 -14.31727 -10.28668
 Alpha  occ. eigenvalues --  -10.26623 -10.25371 -10.24352 -10.23953 -10.23696
 Alpha  occ. eigenvalues --  -10.23478 -10.23306 -10.23078 -10.22064 -10.21981
 Alpha  occ. eigenvalues --  -10.21532 -10.21435 -10.20437 -10.19867 -10.19592
 Alpha  occ. eigenvalues --  -10.19475 -10.19178 -10.18917 -10.18662 -10.18521
 Alpha  occ. eigenvalues --  -10.18228 -10.18122 -10.18094 -10.17944 -10.16926
 Alpha  occ. eigenvalues --   -7.94396  -5.90950  -5.90543  -5.89832  -1.10785
 Alpha  occ. eigenvalues --   -1.04807  -1.03183  -1.02994  -0.93936  -0.93474
 Alpha  occ. eigenvalues --   -0.91871  -0.85097  -0.82831  -0.81781  -0.79853
 Alpha  occ. eigenvalues --   -0.77692  -0.77633  -0.77244  -0.76931  -0.74925
 Alpha  occ. eigenvalues --   -0.74048  -0.73505  -0.70541  -0.69461  -0.68392
 Alpha  occ. eigenvalues --   -0.67798  -0.66093  -0.62999  -0.62399  -0.60981
 Alpha  occ. eigenvalues --   -0.60224  -0.59943  -0.59394  -0.57018  -0.55976
 Alpha  occ. eigenvalues --   -0.55050  -0.54700  -0.53327  -0.53121  -0.51174
 Alpha  occ. eigenvalues --   -0.50805  -0.50192  -0.49848  -0.48705  -0.48312
 Alpha  occ. eigenvalues --   -0.48036  -0.47644  -0.46125  -0.45644  -0.44937
 Alpha  occ. eigenvalues --   -0.44059  -0.44012  -0.43559  -0.43443  -0.43017
 Alpha  occ. eigenvalues --   -0.42411  -0.42382  -0.41954  -0.41820  -0.41229
 Alpha  occ. eigenvalues --   -0.40846  -0.40614  -0.40364  -0.39951  -0.39351
 Alpha  occ. eigenvalues --   -0.39139  -0.39050  -0.38848  -0.38327  -0.38002
 Alpha  occ. eigenvalues --   -0.37620  -0.37039  -0.36461  -0.35735  -0.35617
 Alpha  occ. eigenvalues --   -0.35424  -0.34882  -0.33733  -0.32640  -0.32092
 Alpha  occ. eigenvalues --   -0.31404  -0.31152  -0.29311  -0.29127  -0.27962
 Alpha  occ. eigenvalues --   -0.27765  -0.25980  -0.25102  -0.24964  -0.24726
 Alpha  occ. eigenvalues --   -0.24565  -0.23826  -0.23685  -0.23305  -0.22294
 Alpha  occ. eigenvalues --   -0.18907
 Alpha virt. eigenvalues --   -0.01385  -0.00579   0.00556   0.01959   0.02873
 Alpha virt. eigenvalues --    0.03229   0.04944   0.06722   0.07149   0.08269
 Alpha virt. eigenvalues --    0.08491   0.09000   0.09317   0.09978   0.10800

 Mulliken charges:
               1
     1  C   -0.564684
     2  C    0.211987
     3  C   -0.208864
     4  C   -0.107714
     5  C   -0.150426
     6  C   -0.126901
     7  C    0.164264
     8  N   -0.579290
     9  C    0.277307
    10  S    0.171441
    11  C   -0.563377
    12  C    0.621422
    13  O   -0.493318
    14  N   -0.485425
    15  C   -0.259732
    16  C    0.369474
    17  C   -0.201706
    18  C   -0.190223
    19  C    0.097426
    20  O   -0.427652
    21  C    0.265928
    22  C   -0.132305
    23  C   -0.300465
    24  C   -0.264893
    25  C   -0.267529
    26  C   -0.318215
    27  N   -0.335307
    28  N   -0.404489
    29  C    0.705850
    30  N   -0.502479
    31  C   -0.136582
    32  C   -0.054301
    33  O   -0.480204
    34  C   -0.009048
    35  C   -0.169948
    36  H    0.170871
    37  H    0.147119
    38  H    0.232067
    39  H    0.132499
    40  H    0.133983
    41  H    0.135782
    42  H    0.145537
    43  H    0.187150
    44  H    0.256081
    45  H    0.170337
    46  H    0.173002
    47  H    0.139646
    48  H    0.142981
    49  H    0.169070
    50  H    0.147821
    51  H    0.148410
    52  H    0.143220
    53  H    0.130934
    54  H    0.147641
    55  H    0.134296
    56  H    0.130829
    57  H    0.177276
    58  H    0.132494
    59  H    0.141903
    60  H    0.170756
    61  H    0.155784
    62  H    0.133995
    63  H    0.132615
    64  H    0.146828
    65  H    0.187173
    66  H    0.151878
 Sum of Mulliken charges =  -0.00000

 Dipole moment (field-independent basis, Debye):
    X=             -1.7602    Y=              0.4817    Z=              0.6773  Tot=              1.9466
 Quadrupole moment (field-independent basis, Debye-Ang):
   XX=           -179.7700   YY=           -206.8373   ZZ=           -202.4611
   XY=             -0.2165   XZ=              9.7856   YZ=              2.3522

 Normal termination of Gaussian 16 at Sat Nov  5 12:01:23 2022.
