 Gaussian 16, Revision B.01,
 Gaussian 16:  ES64L-G16RevB.01 20-Dec-2017

 -----------------------------
 #p b3lyp/6-31g(d) opt SCF=XQC
 -----------------------------

 ------------------------------
 Gaussian input prepared by ASE
 ------------------------------
 Symbolic Z-matrix:
 Charge =  0 Multiplicity = 1

 SCF Done:  E(RB3LYP) =  -1906.95573444     A.U. after   15 cycles
 SCF Done:  E(RB3LYP) =  -1906.96843338     A.U. after   15 cycles
 SCF Done:  E(RB3LYP) =  -1906.97000184     A.U. after   15 cycles
 SCF Done:  E(RB3LYP) =  -1906.97323048     A.U. after   13 cycles
 SCF Done:  E(RB3LYP) =  -1906.97309797     A.U. after   14 cycles
 SCF Done:  E(RB3LYP) =  -1906.97242375     A.U. after   13 cycles
 SCF Done:  E(RB3LYP) =  -1906.97110994     A.U. after   13 cycles
 SCF Done:  E(RB3LYP) =  -1906.97374927     A.U. after   11 cycles
 SCF Done:  E(RB3LYP) =  -1906.97531405     A.U. after   13 cycles
 SCF Done:  E(RB3LYP) =  -1906.97598289     A.U. after   12 cycles
 SCF Done:  E(RB3LYP) =  -1906.97767326     A.U. after    8 cycles
 SCF Done:  E(RB3LYP) =  -1906.97767328     A.U. after    8 cycles
 SCF Done:  E(RB3LYP) =  -1906.97767956     A.U. after   11 cycles
 SCF Done:  E(RB3LYP) =  -1906.97768193     A.U. after   10 cycles
 SCF Done:  E(RB3LYP) =  -1906.97768254     A.U. after   10 cycles
 SCF Done:  E(RB3LYP) =  -1906.97768263     A.U. after    8 cycles
 SCF Done:  E(RB3LYP) =  -1906.97768269     A.U. after    8 cycles
 SCF Done:  E(RB3LYP) =  -1906.97768271     A.U. after    7 cycles
 SCF Done:  E(RB3LYP) =  -1906.97768272     A.U. after    6 cycles
 SCF Done:  E(RB3LYP) =  -1906.97768273     A.U. after    6 cycles
 Optimization completed.
    -- Stationary point found.

                         Standard orientation:
 ---------------------------------------------------------------------
 Center     Atomic      Atomic             Coordinates (Angstroms)
 Number     Number       Type             X           Y           Z
 ---------------------------------------------------------------------
      1          6           0        1.893573   -1.794179    1.437195
      2          6           0        2.822411   -2.087683    0.286313
      3          6           0        3.575439   -3.267777    0.238476
      4          6           0        4.408922   -3.565004   -0.840578
      5          6           0        4.509738   -2.678159   -1.912274
      6          6           0        3.780342   -1.490639   -1.885740
      7          6           0        2.955635   -1.199176   -0.796589
      8          7           0        2.208614    0.026983   -0.808197
      9          6           0        0.991734    0.245999   -1.437549
     10         16           0        0.255523   -0.953347   -2.507605
     11          6           0       -1.491813   -0.524288   -2.204860
     12          6           0       -2.003566   -0.966621   -0.820697
     13          8           0       -1.307974   -1.586549   -0.027792
     14          7           0       -3.302048   -0.622737   -0.516709
     15          6           0       -4.234051    0.066718   -1.428580
     16          6           0       -4.314251    1.547194   -1.241870
     17          6           0       -5.264595    2.386226   -0.737745
     18          6           0       -4.721588    3.712067   -0.812777
     19          6           0       -3.480101    3.580550   -1.354385
     20          8           0       -3.218861    2.271441   -1.627480
     21          6           0       -3.815260   -0.995652    0.782471
     22          6           0       -3.881981   -0.092701    1.765814
     23          6           0       -4.400317   -0.412689    3.145860
     24          6           0       -4.489855   -1.925776    3.397571
     25          6           0       -5.114607   -2.643544    2.194443
     26          6           0       -4.271801   -2.429452    0.927131
     27          7           0        0.504148    1.415172   -1.125373
     28          7           0        1.401604    2.022682   -0.256329
     29          6           0        2.401815    1.188560   -0.074393
     30          7           0        3.465879    1.397389    0.783981
     31          6           0        4.835485    1.069840    0.325768
     32          6           0        5.845717    1.996135    1.007367
     33          8           0        5.640996    2.037003    2.406936
     34          6           0        4.338399    2.501499    2.780857
     35          6           0        3.366759    2.607624    1.604954
     36          1           0        2.178250   -0.868092    1.949716
     37          1           0        1.919936   -2.608535    2.167524
     38          1           0        0.861270   -1.678950    1.086639
     39          1           0        3.493674   -3.971032    1.063379
     40          1           0        4.974513   -4.492907   -0.845020
     41          1           0        5.149843   -2.904461   -2.760022
     42          1           0        3.844388   -0.778729   -2.703741
     43          1           0       -2.045533   -1.029201   -3.004256
     44          1           0       -1.613030    0.553278   -2.329328
     45          1           0       -3.962012   -0.165701   -2.462336
     46          1           0       -5.230645   -0.354345   -1.263189
     47          1           0       -6.232912    2.095641   -0.353770
     48          1           0       -5.193820    4.633191   -0.501027
     49          1           0       -2.689078    4.273151   -1.597265
     50          1           0       -3.529305    0.918603    1.579383
     51          1           0       -3.748726    0.058680    3.893793
     52          1           0       -5.389049    0.054073    3.282747
     53          1           0       -5.067783   -2.123308    4.308532
     54          1           0       -3.479893   -2.322270    3.567659
     55          1           0       -5.220825   -3.716368    2.395417
     56          1           0       -6.128452   -2.251881    2.028944
     57          1           0       -3.380697   -3.072121    0.937632
     58          1           0       -4.844437   -2.722575    0.035376
     59          1           0        4.923989    1.177958   -0.764710
     60          1           0        5.069036    0.031169    0.580337
     61          1           0        6.856990    1.607748    0.854836
     62          1           0        5.808914    3.004685    0.566469
     63          1           0        4.427243    3.484876    3.266023
     64          1           0        3.951516    1.789951    3.520064
     65          1           0        2.343044    2.688049    1.976527
     66          1           0        3.551466    3.516949    1.013339
 ---------------------------------------------------------------------

 The electronic state is 1-A.
 Alpha  occ. eigenvalues --  -88.88340 -19.21351 -19.14493 -19.10890 -14.38999
 Alpha  occ. eigenvalues --  -14.36323 -14.35386 -14.32271 -14.31727 -10.28668
 Alpha  occ. eigenvalues --  -10.26623 -10.25371 -10.24352 -10.23952 -10.23696
 Alpha  occ. eigenvalues --  -10.23478 -10.23306 -10.23078 -10.22063 -10.21981
 Alpha  occ. eigenvalues --  -10.21532 -10.21434 -10.20438 -10.19867 -10.19592
 Alpha  occ. eigenvalues --  -10.19475 -10.19178 -10.18917 -10.18662 -10.18521
 Alpha  occ. eigenvalues --  -10.18228 -10.18122 -10.18094 -10.17944 -10.16926
 Alpha  occ. eigenvalues --   -7.94396  -5.90949  -5.90542  -5.89831  -1.10785
 Alpha  occ. eigenvalues --   -1.04807  -1.03184  -1.02994  -0.93936  -0.93474
 Alpha  occ. eigenvalues --   -0.91871  -0.85097  -0.82831  -0.81781  -0.79853
 Alpha  occ. eigenvalues --   -0.77692  -0.77632  -0.77244  -0.76931  -0.74925
 Alpha  occ. eigenvalues --   -0.74048  -0.73505  -0.70541  -0.69461  -0.68392
 Alpha  occ. eigenvalues --   -0.67798  -0.66093  -0.62999  -0.62399  -0.60981
 Alpha  occ. eigenvalues --   -0.60224  -0.59943  -0.59394  -0.57018  -0.55976
 Alpha  occ. eigenvalues --   -0.55050  -0.54700  -0.53327  -0.53121  -0.51174
 Alpha  occ. eigenvalues --   -0.50805  -0.50192  -0.49848  -0.48705  -0.48312
 Alpha  occ. eigenvalues --   -0.48036  -0.47644  -0.46125  -0.45644  -0.44937
 Alpha  occ. eigenvalues --   -0.44059  -0.44012  -0.43559  -0.43443  -0.43017
 Alpha  occ. eigenvalues --   -0.42411  -0.42382  -0.41954  -0.41820  -0.41229
 Alpha  occ. eigenvalues --   -0.40846  -0.40614  -0.40364  -0.39951  -0.39351
 Alpha  occ. eigenvalues --   -0.39139  -0.39050  -0.38848  -0.38327  -0.38002
 Alpha  occ. eigenvalues --   -0.37620  -0.37039  -0.36461  -0.35735  -0.35617
 Alpha  occ. eigenvalues --   -0.35424  -0.34882  -0.33733  -0.32640  -0.32092
 Alpha  occ. eigenvalues --   -0.31404  -0.31152  -0.29311  -0.29127  -0.27962
 Alpha  occ. eigenvalues --   -0.27765  -0.25980  -0.25102  -0.24964  -0.24726
 Alpha  occ. eigenvalues --   -0.24565  -0.23826  -0.23684  -0.23305  -0.22294
 Alpha  occ. eigenvalues --   -0.18907
 Alpha virt. eigenvalues --   -0.01385  -0.00579   0.00556   0.01959   0.02873
 Alpha virt. eigenvalues --    0.03229   0.04944   0.06722   0.07149   0.08269
 Alpha virt. eigenvalues --    0.08491   0.09000   0.09317   0.09978   0.10800

 Mulliken charges:
               1
     1  C   -0.564678
     2  C    0.211973
     3  C   -0.208865
     4  C   -0.107717
     5  C   -0.150419
     6  C   -0.126911
     7  C    0.164281
     8  N   -0.579247
     9  C    0.277260
    10  S    0.171470
    11  C   -0.563381
    12  C    0.621450
    13  O   -0.493327
    14  N   -0.485433
    15  C   -0.259714
    16  C    0.369452
    17  C   -0.201695
    18  C   -0.190226
    19  C    0.097426
    20  O   -0.427646
    21  C    0.265892
    22  C   -0.132281
    23  C   -0.300473
    24  C   -0.264882
    25  C   -0.267551
    26  C   -0.318202
    27  N   -0.335301
    28  N   -0.404476
    29  C    0.705797
    30  N   -0.502490
    31  C   -0.136564
    32  C   -0.054304
    33  O   -0.480193
    34  C   -0.009071
    35  C   -0.169933
    36  H    0.170874
    37  H    0.147119
    38  H    0.232064
    39  H    0.132499
    40  H    0.133983
    41  H    0.135782
    42  H    0.145537
    43  H    0.187147
    44  H    0.256083
    45  H    0.170335
    46  H    0.173000
    47  H    0.139644
    48  H    0.142981
    49  H    0.169069
    50  H    0.147817
    51  H    0.148411
    52  H    0.143221
    53  H    0.130935
    54  H    0.147641
    55  H    0.134298
    56  H    0.130831
    57  H    0.177276
    58  H    0.132494
    59  H    0.141903
    60  H    0.170754
    61  H    0.155784
    62  H    0.133994
    63  H    0.132617
    64  H    0.146831
    65  H    0.187174
    66  H    0.151879
 Sum of Mulliken charges =  -0.00000

 Dipole moment (field-independent basis, Debye):
    X=             -1.7318    Y=             -0.8410    Z=             -0.2881  Tot=              1.9467
 Quadrupole moment (field-independent basis, Debye-Ang):
   XX=           -178.7126   YY=           -203.2095   ZZ=           -206.7898
   XY=             -4.8525   XZ=             -8.0582   YZ=              2.1694

 Normal termination of Gaussian 16 at Fri Nov  4 21:32:26 2022.
