 Gaussian 16, Revision B.01,
 Gaussian 16:  ES64L-G16RevB.01 20-Dec-2017

 -----------------------------
 #p b3lyp/6-31g(d) opt SCF=XQC
 -----------------------------

 ------------------------------
 Gaussian input prepared by ASE
 ------------------------------
 Symbolic Z-matrix:
 Charge =  0 Multiplicity = 1

 SCF Done:  E(RB3LYP) =  -2520.86324619     A.U. after   16 cycles
 SCF Done:  E(RB3LYP) =  -2520.87695749     A.U. after   14 cycles
 SCF Done:  E(RB3LYP) =  -2520.87470221     A.U. after   16 cycles
 SCF Done:  E(RB3LYP) =  -2520.88463456     A.U. after   14 cycles
 SCF Done:  E(RB3LYP) =  -2520.88370680     A.U. after   14 cycles
 SCF Done:  E(RB3LYP) =  -2520.89051817     A.U. after   13 cycles
 SCF Done:  E(RB3LYP) =  -2520.89429601     A.U. after   14 cycles
 SCF Done:  E(RB3LYP) =  -2520.89608596     A.U. after   15 cycles
 SCF Done:  E(RB3LYP) =  -2520.89734322     A.U. after   13 cycles
 SCF Done:  E(RB3LYP) =  -2520.89795336     A.U. after   12 cycles
 SCF Done:  E(RB3LYP) =  -2520.89888929     A.U. after    9 cycles
 SCF Done:  E(RB3LYP) =  -2520.89889101     A.U. after   10 cycles
 SCF Done:  E(RB3LYP) =  -2520.89889239     A.U. after   10 cycles
 SCF Done:  E(RB3LYP) =  -2520.89889376     A.U. after   10 cycles
 SCF Done:  E(RB3LYP) =  -2520.89889437     A.U. after   10 cycles
 SCF Done:  E(RB3LYP) =  -2520.89889489     A.U. after    8 cycles
 SCF Done:  E(RB3LYP) =  -2520.89889507     A.U. after    9 cycles
 SCF Done:  E(RB3LYP) =  -2520.89889511     A.U. after    7 cycles
 SCF Done:  E(RB3LYP) =  -2520.89889512     A.U. after    7 cycles
 SCF Done:  E(RB3LYP) =  -2520.89889513     A.U. after    6 cycles
 Optimization completed.
    -- Stationary point found.

                         Standard orientation:
 ---------------------------------------------------------------------
 Center     Atomic      Atomic             Coordinates (Angstroms)
 Number     Number       Type             X           Y           Z
 ---------------------------------------------------------------------
      1          6           0       -6.622150   -3.060631    1.077390
      2          6           0       -6.955624   -1.799567    0.294962
      3          8           0       -5.913990   -0.805793    0.470693
      4          6           0       -4.894090   -0.836016   -0.416254
      5          8           0       -4.853993   -1.581780   -1.374504
      6          6           0       -3.816857    0.138639   -0.072246
      7          6           0       -2.498784   -0.225383   -0.237779
      8          7           0       -1.965792   -1.455904   -0.633325
      9          6           0       -2.313325   -2.669483   -0.093184
     10          8           0       -3.072828   -2.813811    0.850183
     11          6           0       -1.732963   -3.899800   -0.798629
     12         16           0       -0.218385   -3.709518   -1.820874
     13          6           0        1.053140   -3.413432   -0.583264
     14          6           0        1.260774   -4.290036    0.488196
     15          6           0        2.295603   -4.027176    1.384262
     16          6           0        3.146493   -2.933780    1.224101
     17          6           0        2.950253   -2.067195    0.137112
     18          7           0        3.764040   -0.954037   -0.130458
     19          6           0        4.737754   -0.387506    0.669669
     20          8           0        5.086140   -0.851721    1.744515
     21          6           0        5.377257    0.853615    0.087269
     22          6           0        4.619774    1.945679   -0.381814
     23          8           0        3.261394    1.764925   -0.402486
     24          6           0        2.427631    2.860046   -0.759726
     25          6           0        5.236097    3.130919   -0.800550
     26          6           0        6.625164    3.216382   -0.765901
     27          6           0        7.407843    2.149290   -0.335103
     28          6           0        6.786243    0.966931    0.090560
     29          8           0        7.472182   -0.132228    0.489719
     30          6           0        8.887963   -0.071283    0.561041
     31          6           0        1.891307   -2.311508   -0.754727
     32         16           0       -1.425489    1.059855    0.247388
     33          6           0       -2.766773    2.117552    0.614651
     34          6           0       -3.974980    1.493207    0.418128
     35          6           0       -5.314371    2.168758    0.642521
     36          6           0       -5.658931    3.399309   -0.245721
     37          6           0       -5.246463    4.777813    0.323795
     38          6           0       -3.939304    5.411519   -0.190655
     39          6           0       -2.692568    4.508822   -0.258587
     40          6           0       -2.488554    3.556650    0.957482
     41          1           0       -7.421205   -3.800179    0.947182
     42          1           0       -5.679393   -3.490939    0.729659
     43          1           0       -6.523578   -2.840187    2.144969
     44          1           0       -7.068864   -2.005123   -0.771504
     45          1           0       -7.860961   -1.316406    0.671921
     46          1           0       -1.312273   -1.480130   -1.409451
     47          1           0       -1.596066   -4.673071   -0.040728
     48          1           0       -2.496357   -4.261473   -1.497747
     49          1           0        0.632345   -5.165496    0.616934
     50          1           0        2.456069   -4.697428    2.224546
     51          1           0        3.948659   -2.738389    1.920786
     52          1           0        3.475763   -0.389200   -0.918117
     53          1           0        2.601657    3.178763   -1.795359
     54          1           0        1.403917    2.495100   -0.659493
     55          1           0        2.581036    3.711924   -0.086208
     56          1           0        4.650491    3.972177   -1.149156
     57          1           0        7.109132    4.133552   -1.090521
     58          1           0        8.486799    2.238826   -0.334859
     59          1           0        9.222340    0.709051    1.256357
     60          1           0        9.336465    0.104026   -0.425750
     61          1           0        9.204394   -1.046638    0.933783
     62          1           0        1.724541   -1.634984   -1.589718
     63          1           0       -6.091352    1.417136    0.504325
     64          1           0       -5.389960    2.472643    1.696257
     65          1           0       -6.749872    3.403085   -0.359821
     66          1           0       -5.255878    3.257088   -1.256682
     67          1           0       -5.210502    4.702898    1.419087
     68          1           0       -6.047221    5.499510    0.116322
     69          1           0       -4.109449    5.819935   -1.196220
     70          1           0       -3.721466    6.278165    0.449146
     71          1           0       -1.812521    5.154800   -0.370940
     72          1           0       -2.732693    3.898547   -1.167774
     73          1           0       -1.462975    3.645444    1.332783
     74          1           0       -3.133382    3.860430    1.791311
 ---------------------------------------------------------------------

 The electronic state is 1-A.
 Alpha  occ. eigenvalues --  -88.90897 -88.88816 -19.19425 -19.18162 -19.18157
 Alpha  occ. eigenvalues --  -19.12430 -19.11880 -19.11290 -14.37418 -14.36841
 Alpha  occ. eigenvalues --  -10.31087 -10.29552 -10.29237 -10.26481 -10.26153
 Alpha  occ. eigenvalues --  -10.25581 -10.25291 -10.24341 -10.23725 -10.23362
 Alpha  occ. eigenvalues --  -10.22666 -10.22353 -10.21666 -10.20467 -10.20284
 Alpha  occ. eigenvalues --  -10.20093 -10.20027 -10.19875 -10.19688 -10.19312
 Alpha  occ. eigenvalues --  -10.19134 -10.19107 -10.19013 -10.18897 -10.18532
 Alpha  occ. eigenvalues --  -10.18422 -10.18404 -10.18313 -10.18154 -10.16871
 Alpha  occ. eigenvalues --   -7.97041  -7.94882  -5.93444  -5.93090  -5.92731
 Alpha  occ. eigenvalues --   -5.91397  -5.91011  -5.90372  -1.08994  -1.07938
 Alpha  occ. eigenvalues --   -1.07150  -1.03911  -1.03182  -1.00271  -0.94373
 Alpha  occ. eigenvalues --   -0.93653  -0.87714  -0.86094  -0.85473  -0.81356
 Alpha  occ. eigenvalues --   -0.80173  -0.78680  -0.77892  -0.76414  -0.76314
 Alpha  occ. eigenvalues --   -0.75887  -0.74783  -0.74098  -0.73464  -0.71403
 Alpha  occ. eigenvalues --   -0.70067  -0.68700  -0.67106  -0.66620  -0.65078
 Alpha  occ. eigenvalues --   -0.64822  -0.62075  -0.61153  -0.60966  -0.59699
 Alpha  occ. eigenvalues --   -0.59370  -0.57567  -0.56407  -0.55959  -0.54942
 Alpha  occ. eigenvalues --   -0.54882  -0.53329  -0.53076  -0.51260  -0.51069
 Alpha  occ. eigenvalues --   -0.50606  -0.49695  -0.49228  -0.48848  -0.48119
 Alpha  occ. eigenvalues --   -0.47669  -0.47171  -0.47017  -0.46717  -0.46010
 Alpha  occ. eigenvalues --   -0.45740  -0.45263  -0.44964  -0.44850  -0.44243
 Alpha  occ. eigenvalues --   -0.43247  -0.43134  -0.43036  -0.42664  -0.42428
 Alpha  occ. eigenvalues --   -0.41881  -0.41470  -0.41032  -0.40820  -0.40340
 Alpha  occ. eigenvalues --   -0.39921  -0.39602  -0.39138  -0.39011  -0.38716
 Alpha  occ. eigenvalues --   -0.38635  -0.38394  -0.37601  -0.37379  -0.36816
 Alpha  occ. eigenvalues --   -0.36543  -0.36041  -0.35655  -0.35306  -0.35227
 Alpha  occ. eigenvalues --   -0.35115  -0.34507  -0.34358  -0.33777  -0.33451
 Alpha  occ. eigenvalues --   -0.33120  -0.32763  -0.31983  -0.31422  -0.31259
 Alpha  occ. eigenvalues --   -0.31048  -0.30204  -0.28620  -0.28266  -0.26998
 Alpha  occ. eigenvalues --   -0.26580  -0.25735  -0.25015  -0.24591  -0.23569
 Alpha  occ. eigenvalues --   -0.22815  -0.22542  -0.21455  -0.21167
 Alpha virt. eigenvalues --   -0.03325  -0.03139  -0.01075  -0.00053   0.00776
 Alpha virt. eigenvalues --    0.01136   0.02033   0.02323   0.04074   0.05386
 Alpha virt. eigenvalues --    0.07054   0.07513   0.07825   0.07990   0.08743

 Mulliken charges:
               1
     1  C   -0.459350
     2  C   -0.050948
     3  O   -0.455760
     4  C    0.573497
     5  O   -0.499497
     6  C    0.101725
     7  C    0.002071
     8  N   -0.666615
     9  C    0.625977
    10  O   -0.491144
    11  C   -0.534215
    12  S    0.085992
    13  C   -0.078100
    14  C   -0.145479
    15  C   -0.134560
    16  C   -0.159066
    17  C    0.372332
    18  N   -0.709853
    19  C    0.590184
    20  O   -0.491564
    21  C   -0.081352
    22  C    0.342033
    23  O   -0.526793
    24  C   -0.231057
    25  C   -0.197499
    26  C   -0.137710
    27  C   -0.199598
    28  C    0.357692
    29  O   -0.489176
    30  C   -0.217324
    31  C   -0.226202
    32  S    0.235560
    33  C   -0.197706
    34  C    0.158691
    35  C   -0.366453
    36  C   -0.253754
    37  C   -0.267451
    38  C   -0.263780
    39  C   -0.254883
    40  C   -0.327917
    41  H    0.139624
    42  H    0.192865
    43  H    0.159460
    44  H    0.170847
    45  H    0.146499
    46  H    0.361770
    47  H    0.209714
    48  H    0.218677
    49  H    0.137269
    50  H    0.139216
    51  H    0.190215
    52  H    0.343263
    53  H    0.155398
    54  H    0.188820
    55  H    0.160451
    56  H    0.133780
    57  H    0.137015
    58  H    0.135472
    59  H    0.156710
    60  H    0.150673
    61  H    0.178572
    62  H    0.131548
    63  H    0.172285
    64  H    0.149270
    65  H    0.137018
    66  H    0.141291
    67  H    0.133074
    68  H    0.136017
    69  H    0.134042
    70  H    0.132486
    71  H    0.132468
    72  H    0.151969
    73  H    0.148005
    74  H    0.163271
 Sum of Mulliken charges =  -0.00000

 Dipole moment (field-independent basis, Debye):
    X=              1.5927    Y=              5.2696    Z=             -2.2951  Tot=              5.9643
 Quadrupole moment (field-independent basis, Debye-Ang):
   XX=           -208.8891   YY=           -226.4912   ZZ=           -255.7333
   XY=              5.9325   XZ=            -11.9194   YZ=             -4.8910

 Normal termination of Gaussian 16 at Fri Nov  4 21:04:25 2022.
