 Gaussian 16, Revision B.01,
 Gaussian 16:  ES64L-G16RevB.01 20-Dec-2017

 -------------------------------------------------------------------
 #p b3lyp/6-31g(d) 6D 10F nosymm GFInput td=(50-50,nstate=2) SCF=XQC
 -------------------------------------------------------------------

 ------------------------------
 Gaussian input prepared by ASE
 ------------------------------
 Symbolic Z-matrix:
 Charge =  0 Multiplicity = 1

                          Input orientation:
 ---------------------------------------------------------------------
 Center     Atomic      Atomic             Coordinates (Angstroms)
 Number     Number       Type             X           Y           Z
 ---------------------------------------------------------------------
      1          6           0       -6.271480   -3.729790    0.581833
      2          6           0       -6.536989   -2.656237   -0.462518
      3          8           0       -5.585682   -1.570307   -0.323805
      4          6           0       -4.437642   -1.678772   -1.029513
      5          8           0       -4.209949   -2.576949   -1.815293
      6          6           0       -3.477024   -0.579122   -0.718536
      7          6           0       -2.133369   -0.864742   -0.617325
      8          7           0       -1.485553   -2.101370   -0.693515
      9          6           0       -1.855432   -3.223282    0.006348
     10          8           0       -2.747216   -3.256195    0.837765
     11          6           0       -1.111709   -4.510887   -0.363924
     12         16           0        0.534985   -4.389054   -1.169340
     13          6           0        1.578084   -3.782367    0.164825
     14          6           0        1.655046   -4.437182    1.399680
     15          6           0        2.520563   -3.941608    2.373429
     16          6           0        3.332292   -2.831917    2.139201
     17          6           0        3.269516   -2.188808    0.892809
     18          7           0        4.060756   -1.081559    0.545099
     19          6           0        4.866577   -0.309646    1.360013
     20          8           0        5.061889   -0.548431    2.541959
     21          6           0        5.529757    0.854159    0.656958
     22          6           0        4.804528    1.784847   -0.113939
     23          8           0        3.476992    1.499888   -0.300336
     24          6           0        2.658635    2.447518   -0.974398
     25          6           0        5.421561    2.920987   -0.651008
     26          6           0        6.781741    3.117262   -0.428741
     27          6           0        7.536690    2.206235    0.304022
     28          6           0        6.913212    1.073743    0.846504
     29          8           0        7.579334    0.118253    1.540269
     30          6           0        8.961217    0.298998    1.806667
     31          6           0        2.378649   -2.667281   -0.083845
     32         16           0       -1.214041    0.564332   -0.227748
     33          6           0       -2.646107    1.564526   -0.265821
     34          6           0       -3.776213    0.824682   -0.518172
     35          6           0       -5.165277    1.424769   -0.623459
     36          6           0       -5.423445    2.448822   -1.766533
     37          6           0       -5.173677    3.933767   -1.409734
     38          6           0       -3.833559    4.564642   -1.835161
     39          6           0       -2.549740    3.762242   -1.549169
     40          6           0       -2.495661    3.058571   -0.160284
     41          1           0       -7.003074   -4.539646    0.475639
     42          1           0       -5.265809   -4.141391    0.463162
     43          1           0       -6.354421   -3.317146    1.592221
     44          1           0       -6.469409   -3.055198   -1.476760
     45          1           0       -7.512951   -2.184741   -0.319804
     46          1           0       -0.716698   -2.212386   -1.346649
     47          1           0       -1.059709   -5.125167    0.536664
     48          1           0       -1.736055   -5.047825   -1.087964
     49          1           0        1.057160   -5.321555    1.595492
     50          1           0        2.577751   -4.438428    3.338294
     51          1           0        4.003286   -2.455609    2.897604
     52          1           0        3.874263   -0.688652   -0.367806
     53          1           0        2.979290    2.590438   -2.014185
     54          1           0        1.650822    2.028805   -0.959714
     55          1           0        2.661846    3.414274   -0.456492
     56          1           0        4.858807    3.640027   -1.232786
     57          1           0        7.266256    3.996871   -0.843876
     58          1           0        8.596323    2.376693    0.446444
     59          1           0        9.142885    1.213254    2.385742
     60          1           0        9.551711    0.330837    0.881493
     61          1           0        9.261172   -0.567953    2.397265
     62          1           0        2.314105   -2.163853   -1.045667
     63          1           0       -5.873252    0.603343   -0.731909
     64          1           0       -5.421795    1.903518    0.332271
     65          1           0       -6.481324    2.348876   -2.038719
     66          1           0       -4.858601    2.161329   -2.662647
     67          1           0       -5.308500    4.056698   -0.326552
     68          1           0       -5.965236    4.543980   -1.863803
     69          1           0       -3.861408    4.774563   -2.913155
     70          1           0       -3.762169    5.544857   -1.343272
     71          1           0       -1.695247    4.443584   -1.649206
     72          1           0       -2.415490    2.999554   -2.324378
     73          1           0       -1.548178    3.290542    0.338727
     74          1           0       -3.278604    3.454772    0.498032
 ---------------------------------------------------------------------

 SCF Done:  E(RB3LYP) =  -2520.89889413     A.U. after   15 cycles

 Excitation energies and oscillator strengths:

 Excited state symmetry could not be determined.
 Excited State   1:      Triplet-?Sym    2.9347 eV  422.47 nm  f=0.0000  <S**2>=2.000
     153 ->155         0.47111
     153 ->156        -0.14277
     153 ->159        -0.11125
     154 ->155         0.40596
     154 ->156        -0.12307
 This state for optimization and/or second-order correction.
 Total Energy, E(TD-HF/TD-DFT) =  -2520.79104454
 Copying the excited state density for this state as the 1-particle RhoCI density.

 Excited state symmetry could not be determined.
 Excited State   2:      Triplet-?Sym    3.3274 eV  372.62 nm  f=0.0000  <S**2>=2.000
     147 ->157        -0.14101
     151 ->157        -0.17574
     153 ->155        -0.10020
     153 ->156        -0.30807
     153 ->157         0.10805
     153 ->158         0.17347
     154 ->155         0.11388
     154 ->156         0.36361
     154 ->157        -0.20410
     154 ->158        -0.18619

 Excited state symmetry could not be determined.
 Excited State   3:      Singlet-?Sym    4.3101 eV  287.66 nm  f=0.1115  <S**2>=0.000
     153 ->155         0.13640
     153 ->156        -0.14964
     154 ->155         0.65216

 Excited state symmetry could not be determined.
 Excited State   4:      Singlet-?Sym    4.3904 eV  282.40 nm  f=0.0448  <S**2>=0.000
     147 ->155         0.10883
     151 ->155        -0.22224
     153 ->155         0.61091
     153 ->156        -0.14132
     154 ->155        -0.14557

 Alpha  occ. eigenvalues --  -88.90898 -88.88815 -19.19426 -19.18162 -19.18156
 Alpha  occ. eigenvalues --  -19.12430 -19.11880 -19.11290 -14.37418 -14.36841
 Alpha  occ. eigenvalues --  -10.31087 -10.29552 -10.29237 -10.26481 -10.26153
 Alpha  occ. eigenvalues --  -10.25581 -10.25291 -10.24341 -10.23725 -10.23362
 Alpha  occ. eigenvalues --  -10.22666 -10.22353 -10.21667 -10.20467 -10.20284
 Alpha  occ. eigenvalues --  -10.20093 -10.20027 -10.19874 -10.19688 -10.19312
 Alpha  occ. eigenvalues --  -10.19134 -10.19107 -10.19013 -10.18896 -10.18532
 Alpha  occ. eigenvalues --  -10.18422 -10.18404 -10.18313 -10.18154 -10.16872
 Alpha  occ. eigenvalues --   -7.97041  -7.94882  -5.93444  -5.93090  -5.92731
 Alpha  occ. eigenvalues --   -5.91397  -5.91011  -5.90372  -1.08994  -1.07938
 Alpha  occ. eigenvalues --   -1.07149  -1.03911  -1.03182  -1.00271  -0.94373
 Alpha  occ. eigenvalues --   -0.93653  -0.87714  -0.86094  -0.85473  -0.81356
 Alpha  occ. eigenvalues --   -0.80173  -0.78680  -0.77892  -0.76415  -0.76314
 Alpha  occ. eigenvalues --   -0.75888  -0.74783  -0.74098  -0.73464  -0.71403
 Alpha  occ. eigenvalues --   -0.70067  -0.68700  -0.67106  -0.66620  -0.65078
 Alpha  occ. eigenvalues --   -0.64822  -0.62075  -0.61153  -0.60966  -0.59699
 Alpha  occ. eigenvalues --   -0.59370  -0.57567  -0.56407  -0.55959  -0.54942
 Alpha  occ. eigenvalues --   -0.54882  -0.53329  -0.53076  -0.51260  -0.51069
 Alpha  occ. eigenvalues --   -0.50606  -0.49695  -0.49228  -0.48848  -0.48119
 Alpha  occ. eigenvalues --   -0.47669  -0.47171  -0.47017  -0.46717  -0.46010
 Alpha  occ. eigenvalues --   -0.45740  -0.45263  -0.44964  -0.44850  -0.44243
 Alpha  occ. eigenvalues --   -0.43247  -0.43134  -0.43036  -0.42664  -0.42428
 Alpha  occ. eigenvalues --   -0.41881  -0.41470  -0.41032  -0.40820  -0.40340
 Alpha  occ. eigenvalues --   -0.39921  -0.39602  -0.39138  -0.39011  -0.38717
 Alpha  occ. eigenvalues --   -0.38635  -0.38394  -0.37601  -0.37379  -0.36816
 Alpha  occ. eigenvalues --   -0.36543  -0.36041  -0.35655  -0.35306  -0.35227
 Alpha  occ. eigenvalues --   -0.35115  -0.34507  -0.34358  -0.33777  -0.33451
 Alpha  occ. eigenvalues --   -0.33120  -0.32763  -0.31983  -0.31422  -0.31259
 Alpha  occ. eigenvalues --   -0.31048  -0.30204  -0.28620  -0.28266  -0.26998
 Alpha  occ. eigenvalues --   -0.26580  -0.25735  -0.25015  -0.24591  -0.23569
 Alpha  occ. eigenvalues --   -0.22815  -0.22542  -0.21455  -0.21167
 Alpha virt. eigenvalues --   -0.03325  -0.03139  -0.01074  -0.00053   0.00776
 Alpha virt. eigenvalues --    0.01136   0.02032   0.02323   0.04074   0.05386
 Alpha virt. eigenvalues --    0.07054   0.07512   0.07825   0.07990   0.08744

 Mulliken charges:
               1
     1  C   -0.459349
     2  C   -0.050944
     3  O   -0.455772
     4  C    0.573512
     5  O   -0.499503
     6  C    0.101705
     7  C    0.002095
     8  N   -0.666613
     9  C    0.625969
    10  O   -0.491142
    11  C   -0.534217
    12  S    0.086003
    13  C   -0.078117
    14  C   -0.145471
    15  C   -0.134568
    16  C   -0.159057
    17  C    0.372331
    18  N   -0.709864
    19  C    0.590202
    20  O   -0.491567
    21  C   -0.081365
    22  C    0.342030
    23  O   -0.526797
    24  C   -0.231059
    25  C   -0.197495
    26  C   -0.137707
    27  C   -0.199607
    28  C    0.357702
    29  O   -0.489178
    30  C   -0.217322
    31  C   -0.226193
    32  S    0.235539
    33  C   -0.197694
    34  C    0.158701
    35  C   -0.366467
    36  C   -0.253742
    37  C   -0.267456
    38  C   -0.263777
    39  C   -0.254879
    40  C   -0.327912
    41  H    0.139624
    42  H    0.192864
    43  H    0.159459
    44  H    0.170847
    45  H    0.146500
    46  H    0.361771
    47  H    0.209714
    48  H    0.218677
    49  H    0.137268
    50  H    0.139217
    51  H    0.190214
    52  H    0.343261
    53  H    0.155398
    54  H    0.188823
    55  H    0.160450
    56  H    0.133780
    57  H    0.137015
    58  H    0.135474
    59  H    0.156709
    60  H    0.150673
    61  H    0.178571
    62  H    0.131551
    63  H    0.172284
    64  H    0.149273
    65  H    0.137016
    66  H    0.141290
    67  H    0.133073
    68  H    0.136017
    69  H    0.134041
    70  H    0.132485
    71  H    0.132466
    72  H    0.151968
    73  H    0.148003
    74  H    0.163271
 Sum of Mulliken charges =  -0.00000

 Dipole moment (field-independent basis, Debye):
    X=              1.6805    Y=              4.8869    Z=             -2.9778  Tot=              5.9643
 Quadrupole moment (field-independent basis, Debye-Ang):
   XX=           -206.0696   YY=           -232.4426   ZZ=           -255.3035
   XY=              7.4273   XZ=             -6.0634   YZ=             -8.8222

 Normal termination of Gaussian 16 at Sat Nov  5 12:06:47 2022.
