 Gaussian 16, Revision B.01,
 Gaussian 16:  ES64L-G16RevB.01 20-Dec-2017

 -----------------------------
 #p b3lyp/6-31g(d) opt SCF=XQC
 -----------------------------

 ------------------------------
 Gaussian input prepared by ASE
 ------------------------------
 Symbolic Z-matrix:
 Charge =  0 Multiplicity = 1

 SCF Done:  E(RB3LYP) =  -1067.40258089     A.U. after   15 cycles
 SCF Done:  E(RB3LYP) =  -1067.40737749     A.U. after   13 cycles
 SCF Done:  E(RB3LYP) =  -1067.40961620     A.U. after   13 cycles
 SCF Done:  E(RB3LYP) =  -1067.41001593     A.U. after   12 cycles
 SCF Done:  E(RB3LYP) =  -1067.41042389     A.U. after   12 cycles
 SCF Done:  E(RB3LYP) =  -1067.41054425     A.U. after   11 cycles
 SCF Done:  E(RB3LYP) =  -1067.41062629     A.U. after   11 cycles
 SCF Done:  E(RB3LYP) =  -1067.41066483     A.U. after   11 cycles
 SCF Done:  E(RB3LYP) =  -1067.41070215     A.U. after   11 cycles
 SCF Done:  E(RB3LYP) =  -1067.41070939     A.U. after    9 cycles
 SCF Done:  E(RB3LYP) =  -1067.41071206     A.U. after    9 cycles
 SCF Done:  E(RB3LYP) =  -1067.41071320     A.U. after    8 cycles
 SCF Done:  E(RB3LYP) =  -1067.41071351     A.U. after    8 cycles
 SCF Done:  E(RB3LYP) =  -1067.41071375     A.U. after    8 cycles
 SCF Done:  E(RB3LYP) =  -1067.41071385     A.U. after    7 cycles
 SCF Done:  E(RB3LYP) =  -1067.41071389     A.U. after    7 cycles
 Optimization completed.
    -- Stationary point found.

                         Standard orientation:
 ---------------------------------------------------------------------
 Center     Atomic      Atomic             Coordinates (Angstroms)
 Number     Number       Type             X           Y           Z
 ---------------------------------------------------------------------
      1          6           0       -1.705803   -2.310397   -0.995435
      2          6           0       -1.220866   -0.898110   -0.869729
      3          7           0        0.011668   -0.618077   -1.277396
      4          7           0        0.241037    0.704049   -1.045273
      5          6           0        1.503751    1.333009   -1.388739
      6          6           0        2.756322    0.840417   -0.634746
      7          8           0        3.704611    1.609090   -0.497743
      8          7           0        2.735599   -0.446002   -0.214692
      9          6           0        3.868079   -1.107394    0.439346
     10          6           0        5.123931   -1.255180   -0.463112
     11          6           0        6.305674   -1.204725    0.516876
     12          6           0        5.869045   -0.127546    1.525802
     13          6           0        4.367358   -0.403153    1.744539
     14          6           0       -0.849709    1.294384   -0.479112
     15          7           0       -0.920052    2.580073   -0.117001
     16          6           0       -2.082967    2.914707    0.437101
     17          6           0       -3.160145    2.032589    0.625484
     18          6           0       -3.079864    0.690203    0.233543
     19          6           0       -4.230954   -0.171564    0.459374
     20          6           0       -5.284453   -0.090401    1.337237
     21          6           0       -6.124748   -1.214884    1.081966
     22          6           0       -5.531977   -1.905152    0.067469
     23          8           0       -4.383558   -1.288481   -0.321085
     24          6           0       -1.848772    0.287494   -0.351919
     25          1           0       -0.882282   -2.934372   -1.352876
     26          1           0       -2.056654   -2.704509   -0.036014
     27          1           0       -2.538877   -2.389324   -1.699965
     28          1           0        1.684773    1.211481   -2.463555
     29          1           0        1.396957    2.396975   -1.176270
     30          1           0        1.926919   -1.001398   -0.473402
     31          1           0        3.493246   -2.103045    0.697131
     32          1           0        5.090808   -2.166461   -1.070645
     33          1           0        5.174561   -0.396980   -1.139562
     34          1           0        7.256271   -0.974363    0.023157
     35          1           0        6.426754   -2.173311    1.022901
     36          1           0        6.445536   -0.149466    2.457209
     37          1           0        5.991541    0.862989    1.074635
     38          1           0        4.217439   -1.075460    2.597995
     39          1           0        3.803973    0.510406    1.944098
     40          1           0       -2.184414    3.953493    0.745688
     41          1           0       -4.080113    2.415237    1.053970
     42          1           0       -5.428123    0.668511    2.093080
     43          1           0       -7.043090   -1.475618    1.588914
     44          1           0       -5.784811   -2.805734   -0.470997
 ---------------------------------------------------------------------

 The electronic state is 1-A.
 Alpha  occ. eigenvalues --  -19.23200 -19.10163 -14.41055 -14.36533 -14.34602
 Alpha  occ. eigenvalues --  -14.33844 -10.27855 -10.25942 -10.25800 -10.25495
 Alpha  occ. eigenvalues --  -10.23601 -10.23314 -10.23088 -10.23036 -10.21764
 Alpha  occ. eigenvalues --  -10.20716 -10.20598 -10.20450 -10.20207 -10.18780
 Alpha  occ. eigenvalues --  -10.16915 -10.16771 -10.16763 -10.16329  -1.12665
 Alpha  occ. eigenvalues --   -1.05846  -1.01952  -0.94949  -0.91148  -0.86576
 Alpha  occ. eigenvalues --   -0.83173  -0.81389  -0.81265  -0.78071  -0.75390
 Alpha  occ. eigenvalues --   -0.74917  -0.70530  -0.69639  -0.68251  -0.66314
 Alpha  occ. eigenvalues --   -0.63436  -0.61007  -0.60037  -0.59736  -0.56453
 Alpha  occ. eigenvalues --   -0.56017  -0.54787  -0.54117  -0.52362  -0.51434
 Alpha  occ. eigenvalues --   -0.50773  -0.48319  -0.47794  -0.46806  -0.46691
 Alpha  occ. eigenvalues --   -0.45727  -0.44735  -0.44194  -0.43677  -0.42090
 Alpha  occ. eigenvalues --   -0.41902  -0.41701  -0.40956  -0.40670  -0.40497
 Alpha  occ. eigenvalues --   -0.39700  -0.39451  -0.38780  -0.37695  -0.37438
 Alpha  occ. eigenvalues --   -0.36839  -0.35008  -0.33351  -0.32700  -0.32512
 Alpha  occ. eigenvalues --   -0.32201  -0.31811  -0.30756  -0.30451  -0.29444
 Alpha  occ. eigenvalues --   -0.27307  -0.25827  -0.25608  -0.23914  -0.23332
 Alpha  occ. eigenvalues --   -0.21595
 Alpha virt. eigenvalues --   -0.06567  -0.00328   0.01854   0.03247   0.04191
 Alpha virt. eigenvalues --    0.06776   0.08495   0.09363   0.10714   0.11059
 Alpha virt. eigenvalues --    0.11979   0.12765   0.13414   0.14244   0.14681

 Mulliken charges:
               1
     1  C   -0.509259
     2  C    0.295145
     3  N   -0.364487
     4  N   -0.361287
     5  C   -0.248235
     6  C    0.597230
     7  O   -0.528833
     8  N   -0.616813
     9  C    0.059054
    10  C   -0.274989
    11  C   -0.271945
    12  C   -0.269440
    13  C   -0.271492
    14  C    0.568500
    15  N   -0.499247
    16  C    0.044068
    17  C   -0.221899
    18  C    0.083018
    19  C    0.279580
    20  C   -0.187179
    21  C   -0.185115
    22  C    0.095665
    23  O   -0.442984
    24  C   -0.051030
    25  H    0.164599
    26  H    0.162265
    27  H    0.173418
    28  H    0.190665
    29  H    0.218688
    30  H    0.356296
    31  H    0.128801
    32  H    0.126286
    33  H    0.169296
    34  H    0.135534
    35  H    0.124816
    36  H    0.125709
    37  H    0.164617
    38  H    0.127425
    39  H    0.161361
    40  H    0.145885
    41  H    0.137159
    42  H    0.153436
    43  H    0.151857
    44  H    0.163861
 Sum of Mulliken charges =  -0.00000

 Dipole moment (field-independent basis, Debye):
    X=             -5.4198    Y=             -3.0891    Z=              1.0345  Tot=              6.3235
 Quadrupole moment (field-independent basis, Debye-Ang):
   XX=           -127.3103   YY=           -135.9380   ZZ=           -137.2367
   XY=             -5.5524   XZ=             -4.9284   YZ=              1.9806

 Normal termination of Gaussian 16 at Fri Nov  4 19:25:47 2022.
