 Gaussian 16, Revision B.01,
 Gaussian 16:  ES64L-G16RevB.01 20-Dec-2017

 -------------------------------------------------------------------
 #p b3lyp/6-31g(d) 6D 10F nosymm GFInput td=(50-50,nstate=2) SCF=XQC
 -------------------------------------------------------------------

 ------------------------------
 Gaussian input prepared by ASE
 ------------------------------
 Symbolic Z-matrix:
 Charge =  0 Multiplicity = 1

                          Input orientation:
 ---------------------------------------------------------------------
 Center     Atomic      Atomic             Coordinates (Angstroms)
 Number     Number       Type             X           Y           Z
 ---------------------------------------------------------------------
      1          6           0       -1.866696   -2.114320   -1.510920
      2          6           0       -1.568981   -0.701272   -1.110694
      3          7           0       -0.393660   -0.185629   -1.451989
      4          7           0       -0.334927    1.085065   -0.965787
      5          6           0        0.825881    1.931440   -1.175979
      6          6           0        2.149311    1.473833   -0.528511
      7          8           0        2.991144    2.320983   -0.241222
      8          7           0        2.307607    0.139389   -0.367429
      9          6           0        3.531933   -0.478954    0.148705
     10          6           0        4.775296   -0.280192   -0.761227
     11          6           0        5.962283   -0.263209    0.213560
     12          6           0        5.411004    0.530076    1.411760
     13          6           0        3.964026    0.019399    1.567755
     14          6           0       -1.480579    1.403604   -0.298872
     15          7           0       -1.711103    2.573705    0.306760
     16          6           0       -2.894922    2.636418    0.911756
     17          6           0       -3.842110    1.598787    0.921073
     18          6           0       -3.594964    0.380683    0.275161
     19          6           0       -4.617222   -0.654287    0.324938
     20          6           0       -5.651843   -0.886031    1.198405
     21          6           0       -6.342559   -2.041689    0.726084
     22          6           0       -5.687555   -2.436997   -0.401635
     23          8           0       -4.639436   -1.609089   -0.658813
     24          6           0       -2.335343    0.266977   -0.373650
     25          1           0       -0.976667   -2.541645   -1.980536
     26          1           0       -2.140577   -2.730013   -0.647890
     27          1           0       -2.698077   -2.165785   -2.219976
     28          1           0        0.996632    2.045639   -2.253276
     29          1           0        0.584966    2.910154   -0.760467
     30          1           0        1.573291   -0.458263   -0.732054
     31          1           0        3.297325   -1.546628    0.206200
     32          1           0        4.848408   -1.052670   -1.534893
     33          1           0        4.697087    0.691695   -1.257186
     34          1           0        6.862753    0.183190   -0.222722
     35          1           0        6.221278   -1.286459    0.521390
     36          1           0        6.006564    0.405337    2.322852
     37          1           0        5.391774    1.596548    1.162793
     38          1           0        3.923441   -0.819342    2.273252
     39          1           0        3.290096    0.793482    1.939818
     40          1           0       -3.125022    3.572758    1.416649
     41          1           0       -4.794351    1.764923    1.413004
     42          1           0       -5.876725   -0.313968    2.087258
     43          1           0       -7.206765   -2.515863    1.169522
     44          1           0       -5.832011   -3.241777   -1.106177
 ---------------------------------------------------------------------

 SCF Done:  E(RB3LYP) =  -1067.41071730     A.U. after   15 cycles

 Excitation energies and oscillator strengths:

 Excited state symmetry could not be determined.
 Excited State   1:      Triplet-?Sym    2.5201 eV  491.98 nm  f=0.0000  <S**2>=2.000
      85 -> 87         0.23762
      86 -> 87         0.63820
 This state for optimization and/or second-order correction.
 Total Energy, E(TD-HF/TD-DFT) =  -1067.31810447
 Copying the excited state density for this state as the 1-particle RhoCI density.

 Excited state symmetry could not be determined.
 Excited State   2:      Triplet-?Sym    3.3803 eV  366.79 nm  f=0.0000  <S**2>=2.000
      82 -> 87         0.34369
      84 -> 87        -0.18709
      85 -> 87         0.45503
      86 -> 87        -0.19690
      86 -> 88        -0.20243
      86 -> 89         0.13670

 Excited state symmetry could not be determined.
 Excited State   3:      Singlet-?Sym    3.6267 eV  341.86 nm  f=0.1338  <S**2>=0.000
      85 -> 87        -0.19155
      86 -> 87         0.66897

 Excited state symmetry could not be determined.
 Excited State   4:      Singlet-?Sym    4.1523 eV  298.59 nm  f=0.1958  <S**2>=0.000
      84 -> 87         0.24187
      85 -> 87         0.64228
      86 -> 87         0.15881

 Alpha  occ. eigenvalues --  -19.23200 -19.10163 -14.41055 -14.36533 -14.34602
 Alpha  occ. eigenvalues --  -14.33844 -10.27855 -10.25942 -10.25800 -10.25495
 Alpha  occ. eigenvalues --  -10.23601 -10.23314 -10.23088 -10.23036 -10.21764
 Alpha  occ. eigenvalues --  -10.20716 -10.20598 -10.20450 -10.20207 -10.18780
 Alpha  occ. eigenvalues --  -10.16915 -10.16771 -10.16763 -10.16329  -1.12665
 Alpha  occ. eigenvalues --   -1.05846  -1.01952  -0.94949  -0.91148  -0.86576
 Alpha  occ. eigenvalues --   -0.83173  -0.81389  -0.81265  -0.78071  -0.75390
 Alpha  occ. eigenvalues --   -0.74917  -0.70530  -0.69639  -0.68251  -0.66314
 Alpha  occ. eigenvalues --   -0.63436  -0.61007  -0.60037  -0.59736  -0.56453
 Alpha  occ. eigenvalues --   -0.56017  -0.54787  -0.54117  -0.52362  -0.51434
 Alpha  occ. eigenvalues --   -0.50773  -0.48319  -0.47794  -0.46806  -0.46691
 Alpha  occ. eigenvalues --   -0.45727  -0.44735  -0.44194  -0.43677  -0.42090
 Alpha  occ. eigenvalues --   -0.41902  -0.41701  -0.40956  -0.40670  -0.40497
 Alpha  occ. eigenvalues --   -0.39700  -0.39451  -0.38780  -0.37695  -0.37438
 Alpha  occ. eigenvalues --   -0.36839  -0.35008  -0.33351  -0.32700  -0.32512
 Alpha  occ. eigenvalues --   -0.32201  -0.31811  -0.30756  -0.30451  -0.29444
 Alpha  occ. eigenvalues --   -0.27307  -0.25826  -0.25608  -0.23914  -0.23332
 Alpha  occ. eigenvalues --   -0.21595
 Alpha virt. eigenvalues --   -0.06567  -0.00328   0.01854   0.03247   0.04191
 Alpha virt. eigenvalues --    0.06776   0.08495   0.09363   0.10714   0.11059
 Alpha virt. eigenvalues --    0.11979   0.12765   0.13414   0.14244   0.14681

 Mulliken charges:
               1
     1  C   -0.509251
     2  C    0.295140
     3  N   -0.364491
     4  N   -0.361296
     5  C   -0.248232
     6  C    0.597228
     7  O   -0.528829
     8  N   -0.616803
     9  C    0.059038
    10  C   -0.275007
    11  C   -0.271946
    12  C   -0.269417
    13  C   -0.271496
    14  C    0.568502
    15  N   -0.499242
    16  C    0.044069
    17  C   -0.221900
    18  C    0.083052
    19  C    0.279573
    20  C   -0.187173
    21  C   -0.185124
    22  C    0.095678
    23  O   -0.442989
    24  C   -0.051059
    25  H    0.164597
    26  H    0.162265
    27  H    0.173418
    28  H    0.190663
    29  H    0.218687
    30  H    0.356297
    31  H    0.128803
    32  H    0.126290
    33  H    0.169302
    34  H    0.135535
    35  H    0.124818
    36  H    0.125707
    37  H    0.164609
    38  H    0.127426
    39  H    0.161361
    40  H    0.145885
    41  H    0.137160
    42  H    0.153435
    43  H    0.151857
    44  H    0.163860
 Sum of Mulliken charges =  -0.00000

 Dipole moment (field-independent basis, Debye):
    X=             -4.9413    Y=             -3.9262    Z=              0.3949  Tot=              6.3236
 Quadrupole moment (field-independent basis, Debye-Ang):
   XX=           -121.7341   YY=           -139.0692   ZZ=           -136.5296
   XY=             -2.1042   XZ=             -5.9021   YZ=              1.6341

 Normal termination of Gaussian 16 at Sat Nov  5 11:50:37 2022.
