 Gaussian 16, Revision B.01,
 Gaussian 16:  ES64L-G16RevB.01 20-Dec-2017

 -------------------------------------------------------------------
 #p b3lyp/6-31g(d) 6D 10F nosymm GFInput td=(50-50,nstate=2) SCF=XQC
 -------------------------------------------------------------------

 ------------------------------
 Gaussian input prepared by ASE
 ------------------------------
 Symbolic Z-matrix:
 Charge =  0 Multiplicity = 1

                          Input orientation:
 ---------------------------------------------------------------------
 Center     Atomic      Atomic             Coordinates (Angstroms)
 Number     Number       Type             X           Y           Z
 ---------------------------------------------------------------------
      1          6           0       -2.648798   -4.956193   -1.823727
      2          7           0       -2.819768   -3.579738   -1.341640
      3          6           0       -1.800845   -2.645423   -1.590546
      4          8           0       -0.781444   -2.960777   -2.193340
      5          6           0       -2.056224   -1.303395   -1.080519
      6          6           0       -1.157635   -0.217536   -1.232467
      7         16           0        0.371553   -0.449473   -2.105733
      8          6           0        1.102053    1.246607   -2.028347
      9          6           0        2.600851    1.189263   -1.734015
     10          8           0        3.405360    1.363118   -2.643097
     11          7           0        2.980708    0.960477   -0.432909
     12          6           0        2.064407    0.669941    0.695887
     13          6           0        2.941872    0.809477    1.959954
     14          6           0        4.347625    0.724695    1.411837
     15          6           0        5.555313    0.590562    2.083689
     16          6           0        6.747309    0.584641    1.350083
     17          6           0        6.712116    0.720470   -0.039202
     18          6           0        5.504075    0.858417   -0.731061
     19          6           0        4.323688    0.852679    0.015597
     20          7           0       -1.449160    0.985349   -0.732029
     21          6           0       -2.622448    1.142677   -0.093964
     22          6           0       -2.950067    2.482949    0.438952
     23          6           0       -2.516902    3.729885   -0.321961
     24          6           0       -1.852284    3.393456    0.970837
     25          7           0       -3.542797    0.191056    0.100151
     26          6           0       -3.250249   -1.019852   -0.391007
     27          7           0       -4.187298   -2.011193   -0.194779
     28          6           0       -5.429834   -1.700341    0.524991
     29          6           0       -4.008695   -3.320574   -0.661516
     30          8           0       -4.842192   -4.193326   -0.486408
     31          1           0       -1.687623   -5.005209   -2.330397
     32          1           0       -2.675496   -5.650121   -0.980639
     33          1           0       -3.459451   -5.211253   -2.509783
     34          1           0        0.527927    1.823415   -1.301780
     35          1           0        1.001500    1.702942   -3.013760
     36          1           0        1.215269    1.356220    0.694644
     37          1           0        1.675528   -0.349499    0.594971
     38          1           0        2.773455    1.775835    2.454247
     39          1           0        2.714188    0.028644    2.692814
     40          1           0        5.573676    0.491020    3.166404
     41          1           0        7.698828    0.475386    1.862787
     42          1           0        7.640869    0.716814   -0.603524
     43          1           0        5.472205    0.965635   -1.805539
     44          1           0       -3.910225    2.515330    0.941970
     45          1           0       -3.223109    4.554494   -0.352162
     46          1           0       -1.958308    3.565540   -1.237880
     47          1           0       -0.838983    3.006312    0.935162
     48          1           0       -2.089648    3.979642    1.853906
     49          1           0       -6.015363   -2.615630    0.564815
     50          1           0       -5.977761   -0.915633   -0.000776
     51          1           0       -5.197766   -1.347781    1.532086
 ---------------------------------------------------------------------

 SCF Done:  E(RB3LYP) =  -1710.55817444     A.U. after   15 cycles

 Excitation energies and oscillator strengths:

 Excited state symmetry could not be determined.
 Excited State   1:      Triplet-?Sym    3.3307 eV  372.25 nm  f=0.0000  <S**2>=2.000
     108 ->112         0.11129
     109 ->115        -0.13630
     110 ->112         0.18522
     111 ->112         0.53557
     111 ->114        -0.31922
 This state for optimization and/or second-order correction.
 Total Energy, E(TD-HF/TD-DFT) =  -1710.43577511
 Copying the excited state density for this state as the 1-particle RhoCI density.

 Excited state symmetry could not be determined.
 Excited State   2:      Singlet-?Sym    3.4076 eV  363.84 nm  f=0.0062  <S**2>=0.000
     111 ->112         0.70558

 Excited state symmetry could not be determined.
 Excited State   3:      Triplet-?Sym    3.4190 eV  362.63 nm  f=0.0000  <S**2>=2.000
     107 ->112         0.12065
     107 ->113        -0.11839
     108 ->112         0.26330
     109 ->112         0.12456
     109 ->115         0.15181
     110 ->112         0.43572
     111 ->114         0.33011

 Excited state symmetry could not be determined.
 Excited State   4:      Singlet-?Sym    3.9848 eV  311.15 nm  f=0.0077  <S**2>=0.000
     111 ->113         0.70409

 Alpha  occ. eigenvalues --  -88.90678 -19.14238 -19.14037 -19.11658 -14.41223
 Alpha  occ. eigenvalues --  -14.40389 -14.37901 -14.35296 -14.34953 -10.34478
 Alpha  occ. eigenvalues --  -10.31864 -10.30426 -10.29434 -10.29404 -10.28976
 Alpha  occ. eigenvalues --  -10.23644 -10.23031 -10.22940 -10.22535 -10.22377
 Alpha  occ. eigenvalues --  -10.22148 -10.21493 -10.20947 -10.20806 -10.20565
 Alpha  occ. eigenvalues --  -10.19401 -10.18911 -10.18497 -10.18375 -10.18047
 Alpha  occ. eigenvalues --   -7.96635  -5.93145  -5.92702  -5.92187  -1.08803
 Alpha  occ. eigenvalues --   -1.05737  -1.03786  -1.02244  -0.98114  -0.95773
 Alpha  occ. eigenvalues --   -0.95078  -0.90713  -0.87985  -0.84692  -0.83017
 Alpha  occ. eigenvalues --   -0.80333  -0.79149  -0.75532  -0.74308  -0.72962
 Alpha  occ. eigenvalues --   -0.72703  -0.70970  -0.69449  -0.67006  -0.64334
 Alpha  occ. eigenvalues --   -0.63931  -0.62874  -0.61781  -0.60887  -0.58705
 Alpha  occ. eigenvalues --   -0.57539  -0.56159  -0.55074  -0.54748  -0.51826
 Alpha  occ. eigenvalues --   -0.51236  -0.49955  -0.49730  -0.48752  -0.48204
 Alpha  occ. eigenvalues --   -0.47795  -0.47429  -0.46787  -0.46616  -0.45722
 Alpha  occ. eigenvalues --   -0.45239  -0.45126  -0.44396  -0.43591  -0.43069
 Alpha  occ. eigenvalues --   -0.41864  -0.41291  -0.41186  -0.40900  -0.40626
 Alpha  occ. eigenvalues --   -0.40317  -0.40254  -0.39787  -0.39164  -0.38736
 Alpha  occ. eigenvalues --   -0.38475  -0.37890  -0.36222  -0.35675  -0.35248
 Alpha  occ. eigenvalues --   -0.34723  -0.34010  -0.33773  -0.33730  -0.31644
 Alpha  occ. eigenvalues --   -0.30013  -0.29222  -0.29075  -0.28405  -0.28024
 Alpha  occ. eigenvalues --   -0.26685  -0.26232  -0.25513  -0.24331  -0.24272
 Alpha  occ. eigenvalues --   -0.20930
 Alpha virt. eigenvalues --   -0.06793  -0.04718  -0.01498   0.00030   0.00623
 Alpha virt. eigenvalues --    0.02860   0.03669   0.04486   0.06344   0.08257
 Alpha virt. eigenvalues --    0.08760   0.10228   0.10791   0.10886   0.11888

 Mulliken charges:
               1
     1  C   -0.320447
     2  N   -0.558787
     3  C    0.615003
     4  O   -0.499004
     5  C    0.000921
     6  C    0.050760
     7  S    0.268674
     8  C   -0.555365
     9  C    0.575490
    10  O   -0.494110
    11  N   -0.551663
    12  C   -0.153078
    13  C   -0.358258
    14  C    0.084977
    15  C   -0.205544
    16  C   -0.127728
    17  C   -0.148468
    18  C   -0.150037
    19  C    0.328923
    20  N   -0.536423
    21  C    0.508351
    22  C   -0.174361
    23  C   -0.302506
    24  C   -0.308601
    25  N   -0.576612
    26  C    0.541095
    27  N   -0.587140
    28  C   -0.317442
    29  C    0.789815
    30  O   -0.506749
    31  H    0.207023
    32  H    0.182476
    33  H    0.183394
    34  H    0.222890
    35  H    0.212326
    36  H    0.168541
    37  H    0.182901
    38  H    0.164379
    39  H    0.163335
    40  H    0.124668
    41  H    0.126315
    42  H    0.131837
    43  H    0.182219
    44  H    0.161485
    45  H    0.165324
    46  H    0.178849
    47  H    0.173222
    48  H    0.164585
    49  H    0.209594
    50  H    0.182151
    51  H    0.180799
 Sum of Mulliken charges =  -0.00000

 Dipole moment (field-independent basis, Debye):
    X=             -3.2206    Y=              2.0592    Z=              4.2290  Tot=              5.7006
 Quadrupole moment (field-independent basis, Debye-Ang):
   XX=           -181.2850   YY=           -179.8459   ZZ=           -182.1308
   XY=            -12.0173   XZ=             11.6972   YZ=              2.2420

 Normal termination of Gaussian 16 at Sat Nov  5 11:51:18 2022.
