 Gaussian 16, Revision B.01,
 Gaussian 16:  ES64L-G16RevB.01 20-Dec-2017

 -----------------------------
 #p b3lyp/6-31g(d) opt SCF=XQC
 -----------------------------

 ------------------------------
 Gaussian input prepared by ASE
 ------------------------------
 Symbolic Z-matrix:
 Charge =  0 Multiplicity = 1

 SCF Done:  E(RB3LYP) =  -1710.54844238     A.U. after   15 cycles
 SCF Done:  E(RB3LYP) =  -1710.55447145     A.U. after   14 cycles
 SCF Done:  E(RB3LYP) =  -1710.55466761     A.U. after   15 cycles
 SCF Done:  E(RB3LYP) =  -1710.55580692     A.U. after   13 cycles
 SCF Done:  E(RB3LYP) =  -1710.55650934     A.U. after   15 cycles
 SCF Done:  E(RB3LYP) =  -1710.55766538     A.U. after   13 cycles
 SCF Done:  E(RB3LYP) =  -1710.55790270     A.U. after   12 cycles
 SCF Done:  E(RB3LYP) =  -1710.55807529     A.U. after   11 cycles
 SCF Done:  E(RB3LYP) =  -1710.55814693     A.U. after   11 cycles
 SCF Done:  E(RB3LYP) =  -1710.55816170     A.U. after   10 cycles
 SCF Done:  E(RB3LYP) =  -1710.55816939     A.U. after    8 cycles
 SCF Done:  E(RB3LYP) =  -1710.55817308     A.U. after    8 cycles
 SCF Done:  E(RB3LYP) =  -1710.55817402     A.U. after    8 cycles
 SCF Done:  E(RB3LYP) =  -1710.55817437     A.U. after    7 cycles
 SCF Done:  E(RB3LYP) =  -1710.55817446     A.U. after    7 cycles
 SCF Done:  E(RB3LYP) =  -1710.55817456     A.U. after    7 cycles
 SCF Done:  E(RB3LYP) =  -1710.55817461     A.U. after    7 cycles
 SCF Done:  E(RB3LYP) =  -1710.55817467     A.U. after    7 cycles
 SCF Done:  E(RB3LYP) =  -1710.55817469     A.U. after    7 cycles
 Optimization completed.
    -- Stationary point found.

                         Standard orientation:
 ---------------------------------------------------------------------
 Center     Atomic      Atomic             Coordinates (Angstroms)
 Number     Number       Type             X           Y           Z
 ---------------------------------------------------------------------
      1          6           0        4.178805   -3.696816   -0.011178
      2          7           0        3.829726   -2.272801   -0.092362
      3          6           0        2.584531   -1.853225    0.404175
      4          8           0        1.793225   -2.650552    0.894169
      5          6           0        2.323446   -0.423390    0.286741
      6          6           0        1.130725    0.199901    0.732349
      7         16           0       -0.140401   -0.771104    1.504486
      8          6           0       -1.402907    0.519842    1.899258
      9          6           0       -2.815823    0.020578    1.598061
     10          8           0       -3.541192   -0.341073    2.518354
     11          7           0       -3.218946    0.020564    0.283906
     12          6           0       -2.370565    0.373522   -0.879653
     13          6           0       -3.360267    0.521257   -2.056914
     14          6           0       -4.596330   -0.189487   -1.556158
     15          6           0       -5.746740   -0.557733   -2.240875
     16          6           0       -6.791373   -1.171027   -1.539679
     17          6           0       -6.671436   -1.398189   -0.167158
     18          6           0       -5.520068   -1.031598    0.537840
     19          6           0       -4.483633   -0.429457   -0.179150
     20          7           0        0.951242    1.514666    0.585603
     21          6           0        1.936522    2.232795    0.018155
     22          6           0        1.741517    3.692279   -0.121636
     23          6           0        0.988766    4.464787    0.954500
     24          6           0        0.355891    4.266128   -0.382000
     25          7           0        3.100427    1.748899   -0.430703
     26          6           0        3.280765    0.428971   -0.295099
     27          7           0        4.473481   -0.084279   -0.756975
     28          6           0        5.464166    0.817506   -1.360233
     29          6           0        4.791371   -1.446607   -0.671952
     30          8           0        5.849185   -1.894858   -1.080823
     31          1           0        3.343238   -4.209066    0.460418
     32          1           0        4.356823   -4.092452   -1.013589
     33          1           0        5.089592   -3.821396    0.578594
     34          1           0       -1.128550    1.428920    1.362106
     35          1           0       -1.368166    0.709121    2.972738
     36          1           0       -1.805904    1.287827   -0.686724
     37          1           0       -1.653553   -0.434130   -1.064748
     38          1           0       -3.574897    1.578504   -2.263554
     39          1           0       -2.954189    0.089021   -2.977184
     40          1           0       -5.833844   -0.371844   -3.308760
     41          1           0       -7.694973   -1.468710   -2.064164
     42          1           0       -7.486388   -1.873288    0.372462
     43          1           0       -5.423680   -1.203708    1.599961
     44          1           0        2.582078    4.188253   -0.594338
     45          1           0        1.375740    5.446039    1.213374
     46          1           0        0.608240    3.883025    1.787985
     47          1           0       -0.459701    3.553983   -0.456780
     48          1           0        0.296661    5.106590   -1.067479
     49          1           0        6.316914    0.209012   -1.651336
     50          1           0        5.763616    1.578460   -0.636560
     51          1           0        5.031939    1.315805   -2.230446
 ---------------------------------------------------------------------

 The electronic state is 1-A.
 Alpha  occ. eigenvalues --  -88.90678 -19.14238 -19.14037 -19.11658 -14.41223
 Alpha  occ. eigenvalues --  -14.40389 -14.37901 -14.35296 -14.34953 -10.34478
 Alpha  occ. eigenvalues --  -10.31864 -10.30426 -10.29434 -10.29404 -10.28977
 Alpha  occ. eigenvalues --  -10.23644 -10.23031 -10.22940 -10.22535 -10.22377
 Alpha  occ. eigenvalues --  -10.22148 -10.21493 -10.20947 -10.20806 -10.20565
 Alpha  occ. eigenvalues --  -10.19401 -10.18911 -10.18497 -10.18374 -10.18047
 Alpha  occ. eigenvalues --   -7.96635  -5.93145  -5.92703  -5.92187  -1.08803
 Alpha  occ. eigenvalues --   -1.05737  -1.03786  -1.02244  -0.98114  -0.95773
 Alpha  occ. eigenvalues --   -0.95078  -0.90713  -0.87985  -0.84692  -0.83017
 Alpha  occ. eigenvalues --   -0.80333  -0.79149  -0.75532  -0.74308  -0.72962
 Alpha  occ. eigenvalues --   -0.72703  -0.70970  -0.69449  -0.67006  -0.64334
 Alpha  occ. eigenvalues --   -0.63931  -0.62874  -0.61781  -0.60887  -0.58705
 Alpha  occ. eigenvalues --   -0.57539  -0.56159  -0.55074  -0.54748  -0.51826
 Alpha  occ. eigenvalues --   -0.51236  -0.49955  -0.49730  -0.48752  -0.48204
 Alpha  occ. eigenvalues --   -0.47795  -0.47429  -0.46787  -0.46616  -0.45722
 Alpha  occ. eigenvalues --   -0.45239  -0.45126  -0.44396  -0.43591  -0.43069
 Alpha  occ. eigenvalues --   -0.41864  -0.41291  -0.41186  -0.40900  -0.40626
 Alpha  occ. eigenvalues --   -0.40317  -0.40254  -0.39787  -0.39164  -0.38736
 Alpha  occ. eigenvalues --   -0.38475  -0.37890  -0.36222  -0.35675  -0.35248
 Alpha  occ. eigenvalues --   -0.34723  -0.34010  -0.33773  -0.33730  -0.31644
 Alpha  occ. eigenvalues --   -0.30013  -0.29222  -0.29075  -0.28405  -0.28024
 Alpha  occ. eigenvalues --   -0.26685  -0.26232  -0.25514  -0.24331  -0.24273
 Alpha  occ. eigenvalues --   -0.20930
 Alpha virt. eigenvalues --   -0.06793  -0.04719  -0.01498   0.00030   0.00623
 Alpha virt. eigenvalues --    0.02860   0.03669   0.04486   0.06344   0.08257
 Alpha virt. eigenvalues --    0.08760   0.10228   0.10791   0.10886   0.11888

 Mulliken charges:
               1
     1  C   -0.320450
     2  N   -0.558788
     3  C    0.614999
     4  O   -0.499006
     5  C    0.000912
     6  C    0.050766
     7  S    0.268678
     8  C   -0.555365
     9  C    0.575466
    10  O   -0.494104
    11  N   -0.551655
    12  C   -0.153071
    13  C   -0.358261
    14  C    0.084979
    15  C   -0.205545
    16  C   -0.127726
    17  C   -0.148464
    18  C   -0.150051
    19  C    0.328938
    20  N   -0.536435
    21  C    0.508374
    22  C   -0.174371
    23  C   -0.302508
    24  C   -0.308597
    25  N   -0.576623
    26  C    0.541107
    27  N   -0.587150
    28  C   -0.317444
    29  C    0.789842
    30  O   -0.506754
    31  H    0.207023
    32  H    0.182477
    33  H    0.183394
    34  H    0.222888
    35  H    0.212328
    36  H    0.168541
    37  H    0.182897
    38  H    0.164378
    39  H    0.163336
    40  H    0.124668
    41  H    0.126314
    42  H    0.131837
    43  H    0.182218
    44  H    0.161485
    45  H    0.165325
    46  H    0.178849
    47  H    0.173220
    48  H    0.164585
    49  H    0.209594
    50  H    0.182151
    51  H    0.180800
 Sum of Mulliken charges =  -0.00000

 Dipole moment (field-independent basis, Debye):
    X=              1.9203    Y=              4.0808    Z=             -3.4867  Tot=              5.7007
 Quadrupole moment (field-independent basis, Debye-Ang):
   XX=           -187.0250   YY=           -171.1479   ZZ=           -180.3578
   XY=              5.4584   XZ=             13.8482   YZ=              1.2123

 Normal termination of Gaussian 16 at Fri Nov  4 19:37:42 2022.
