 Gaussian 16, Revision B.01,
 Gaussian 16:  ES64L-G16RevB.01 20-Dec-2017

 -------------------------------------------------------------------
 #p b3lyp/6-31g(d) 6D 10F nosymm GFInput td=(50-50,nstate=2) SCF=XQC
 -------------------------------------------------------------------

 ------------------------------
 Gaussian input prepared by ASE
 ------------------------------
 Symbolic Z-matrix:
 Charge =  0 Multiplicity = 1

                          Input orientation:
 ---------------------------------------------------------------------
 Center     Atomic      Atomic             Coordinates (Angstroms)
 Number     Number       Type             X           Y           Z
 ---------------------------------------------------------------------
      1          7           0        1.709957   -6.581970    0.587850
      2          6           0        0.651210   -5.707625    0.596988
      3          7           0       -0.569497   -6.315344    0.757698
      4          6           0       -1.647100   -5.552149    0.743635
      5          7           0       -2.860373   -6.150443    0.944484
      6          6           0       -1.520035   -4.140773    0.565988
      7          6           0       -2.334916   -3.016623    0.507246
      8          7           0       -1.504245   -1.968021    0.315970
      9          6           0       -1.900720   -0.576053    0.181338
     10          8           0       -1.882133   -0.165103   -1.174417
     11          6           0       -0.953227    0.913552   -1.385419
     12          6           0       -0.309927    0.771646   -2.751248
     13          8           0        0.479230   -0.418478   -2.769631
     14          6           0        1.259994   -0.588270   -3.866638
     15          8           0        1.264913    0.196468   -4.795738
     16          6           0        2.072899   -1.831965   -3.795722
     17          6           0        2.033349   -2.687834   -2.686178
     18          6           0        2.808894   -3.846484   -2.677736
     19          6           0        3.624460   -4.151732   -3.769596
     20          6           0        3.668036   -3.296653   -4.875419
     21          6           0        2.894073   -2.139688   -4.889916
     22          6           0       -0.017310    0.856858   -0.163837
     23          8           0        0.543574    2.123463    0.186964
     24          6           0        1.764974    2.431973   -0.332908
     25          8           0        2.341440    1.733286   -1.140317
     26          6           0        2.285909    3.719778    0.200801
     27          6           0        3.497856    4.196423   -0.318266
     28          6           0        4.032799    5.394110    0.148468
     29          6           0        3.362529    6.119880    1.136930
     30          6           0        2.156138    5.645915    1.658433
     31          6           0        1.615024    4.448770    1.193375
     32          6           0       -0.955079    0.374916    0.945617
     33          8           0       -1.693630    1.517557    1.414534
     34          6           0       -2.409670    1.344879    2.557511
     35          8           0       -2.501605    0.271301    3.120547
     36          6           0       -3.053048    2.604932    3.016255
     37          6           0       -3.825256    2.555326    4.185302
     38          6           0       -4.447421    3.707277    4.658862
     39          6           0       -4.303016    4.913223    3.967391
     40          6           0       -3.534454    4.966005    2.801807
     41          6           0       -2.908418    3.816206    2.323977
     42          7           0       -0.185152   -2.306762    0.245794
     43          6           0       -0.186586   -3.639348    0.401885
     44          7           0        0.919394   -4.422883    0.415388
     45          1           0        2.617815   -6.171750    0.754789
     46          1           0        1.537361   -7.489552    0.995055
     47          1           0       -3.692702   -5.681059    0.619183
     48          1           0       -2.862272   -7.159615    0.872013
     49          1           0       -3.402892   -2.875160    0.596747
     50          1           0       -2.920641   -0.513929    0.568197
     51          1           0       -1.496955    1.870159   -1.369636
     52          1           0       -1.085648    0.711795   -3.522395
     53          1           0        0.318557    1.640326   -2.965311
     54          1           0        1.403212   -2.450648   -1.836585
     55          1           0        2.762553   -4.502788   -1.813993
     56          1           0        4.227465   -5.056544   -3.761279
     57          1           0        4.303890   -3.534088   -5.724281
     58          1           0        2.909491   -1.461234   -5.736770
     59          1           0        0.768546    0.118274   -0.325794
     60          1           0        4.001406    3.614356   -1.083053
     61          1           0        4.971397    5.761997   -0.256315
     62          1           0        3.781187    7.054045    1.501989
     63          1           0        1.637906    6.208848    2.429811
     64          1           0        0.681612    4.071938    1.596381
     65          1           0       -0.455281   -0.114908    1.779884
     66          1           0       -3.922491    1.608207    4.705700
     67          1           0       -5.044483    3.666776    5.565499
     68          1           0       -4.789416    5.812012    4.337016
     69          1           0       -3.423185    5.903860    2.264878
     70          1           0       -2.310259    3.849139    1.420217
 ---------------------------------------------------------------------

 SCF Done:  E(RB3LYP) =  -2052.08041336     A.U. after   14 cycles

 Excitation energies and oscillator strengths:

 Excited state symmetry could not be determined.
 Excited State   1:      Triplet-?Sym    2.9525 eV  419.92 nm  f=0.0000  <S**2>=2.000
     151 ->158        -0.10310
     155 ->158         0.66683
 This state for optimization and/or second-order correction.
 Total Energy, E(TD-HF/TD-DFT) =  -2051.97190976
 Copying the excited state density for this state as the 1-particle RhoCI density.

 Excited state symmetry could not be determined.
 Excited State   2:      Triplet-?Sym    3.4996 eV  354.28 nm  f=0.0000  <S**2>=2.000
     145 ->156         0.57290
     145 ->165        -0.10079
     146 ->156         0.19565
     146 ->160        -0.32096

 Excited state symmetry could not be determined.
 Excited State   3:      Singlet-?Sym    3.6134 eV  343.12 nm  f=0.0047  <S**2>=0.000
     155 ->156         0.70628

 Excited state symmetry could not be determined.
 Excited State   4:      Singlet-?Sym    3.8718 eV  320.23 nm  f=0.0036  <S**2>=0.000
     155 ->157         0.70642

 Alpha  occ. eigenvalues --  -19.20757 -19.20000 -19.17559 -19.16908 -19.14900
 Alpha  occ. eigenvalues --  -19.13997 -19.11576 -14.42579 -14.36488 -14.34226
 Alpha  occ. eigenvalues --  -14.33916 -14.31613 -14.30216 -10.33038 -10.32184
 Alpha  occ. eigenvalues --  -10.29818 -10.29716 -10.28148 -10.27938 -10.26857
 Alpha  occ. eigenvalues --  -10.25731 -10.25324 -10.24273 -10.23734 -10.23617
 Alpha  occ. eigenvalues --  -10.21675 -10.21176 -10.21079 -10.20902 -10.20866
 Alpha  occ. eigenvalues --  -10.20777 -10.20720 -10.20474 -10.20347 -10.20087
 Alpha  occ. eigenvalues --  -10.20072 -10.19976 -10.19381 -10.18313 -10.18052
 Alpha  occ. eigenvalues --  -10.17759 -10.17699 -10.17254 -10.17150  -1.12098
 Alpha  occ. eigenvalues --   -1.10649  -1.08701  -1.07488  -1.04312  -1.02785
 Alpha  occ. eigenvalues --   -1.01902  -0.99494  -0.99046  -0.94365  -0.88870
 Alpha  occ. eigenvalues --   -0.87325  -0.86576  -0.86230  -0.84021  -0.83011
 Alpha  occ. eigenvalues --   -0.81745  -0.80174  -0.78115  -0.77063  -0.76412
 Alpha  occ. eigenvalues --   -0.76134  -0.75501  -0.74317  -0.72896  -0.70656
 Alpha  occ. eigenvalues --   -0.68554  -0.65731  -0.65311  -0.64007  -0.62959
 Alpha  occ. eigenvalues --   -0.62464  -0.61774  -0.61102  -0.59863  -0.59425
 Alpha  occ. eigenvalues --   -0.59125  -0.58541  -0.57429  -0.56653  -0.55478
 Alpha  occ. eigenvalues --   -0.54905  -0.54207  -0.53751  -0.52808  -0.52721
 Alpha  occ. eigenvalues --   -0.51525  -0.50564  -0.50253  -0.49776  -0.49338
 Alpha  occ. eigenvalues --   -0.47908  -0.47804  -0.47145  -0.46892  -0.46641
 Alpha  occ. eigenvalues --   -0.46174  -0.45809  -0.45553  -0.45319  -0.45099
 Alpha  occ. eigenvalues --   -0.45065  -0.44664  -0.44417  -0.44129  -0.43823
 Alpha  occ. eigenvalues --   -0.43712  -0.43299  -0.43066  -0.42778  -0.42368
 Alpha  occ. eigenvalues --   -0.41683  -0.40923  -0.40464  -0.40119  -0.39641
 Alpha  occ. eigenvalues --   -0.38628  -0.37834  -0.37711  -0.37158  -0.36809
 Alpha  occ. eigenvalues --   -0.36699  -0.36476  -0.35917  -0.35736  -0.35522
 Alpha  occ. eigenvalues --   -0.34855  -0.34642  -0.34184  -0.33786  -0.32504
 Alpha  occ. eigenvalues --   -0.31838  -0.31077  -0.30296  -0.29795  -0.29003
 Alpha  occ. eigenvalues --   -0.28862  -0.28379  -0.28081  -0.27805  -0.26955
 Alpha  occ. eigenvalues --   -0.26784  -0.26348  -0.26192  -0.26037  -0.25588
 Alpha  occ. eigenvalues --   -0.24445  -0.24269  -0.23723  -0.23475  -0.20476
 Alpha virt. eigenvalues --   -0.05774  -0.04943  -0.03607  -0.02411  -0.01691
 Alpha virt. eigenvalues --   -0.00922   0.01627   0.03257   0.04330   0.04677
 Alpha virt. eigenvalues --    0.05424   0.06123   0.06481   0.07881   0.08124

 Mulliken charges:
               1
     1  N   -0.765033
     2  C    0.621279
     3  N   -0.577175
     4  C    0.464071
     5  N   -0.770917
     6  C   -0.016231
     7  C    0.040510
     8  N   -0.237467
     9  C    0.259735
    10  O   -0.496714
    11  C    0.109365
    12  C   -0.034210
    13  O   -0.474576
    14  C    0.610118
    15  O   -0.502210
    16  C    0.040225
    17  C   -0.173680
    18  C   -0.151509
    19  C   -0.118482
    20  C   -0.140792
    21  C   -0.151712
    22  C    0.092546
    23  O   -0.504322
    24  C    0.596652
    25  O   -0.476968
    26  C    0.040855
    27  C   -0.148636
    28  C   -0.138778
    29  C   -0.115424
    30  C   -0.138004
    31  C   -0.162188
    32  C    0.057035
    33  O   -0.498796
    34  C    0.602156
    35  O   -0.492393
    36  C    0.041356
    37  C   -0.149635
    38  C   -0.138273
    39  C   -0.115234
    40  C   -0.137744
    41  C   -0.163500
    42  N   -0.436013
    43  C    0.532700
    44  N   -0.563731
    45  H    0.338289
    46  H    0.334501
    47  H    0.333762
    48  H    0.343141
    49  H    0.173609
    50  H    0.166428
    51  H    0.146927
    52  H    0.163994
    53  H    0.175020
    54  H    0.200929
    55  H    0.151811
    56  H    0.126656
    57  H    0.127777
    58  H    0.154217
    59  H    0.234512
    60  H    0.169750
    61  H    0.141293
    62  H    0.138657
    63  H    0.137329
    64  H    0.162016
    65  H    0.203495
    66  H    0.165588
    67  H    0.142224
    68  H    0.141523
    69  H    0.141309
    70  H    0.166987
 Sum of Mulliken charges =  -0.00000

 Dipole moment (field-independent basis, Debye):
    X=             -4.6233    Y=              1.4836    Z=              4.6373  Tot=              6.7142
 Quadrupole moment (field-independent basis, Debye-Ang):
   XX=           -217.1320   YY=           -189.9868   ZZ=           -260.2922
   XY=              5.3103   XZ=             -2.2176   YZ=             10.4063

 Normal termination of Gaussian 16 at Sat Nov  5 12:00:24 2022.
