 Gaussian 16, Revision B.01,
 Gaussian 16:  ES64L-G16RevB.01 20-Dec-2017

 -----------------------------
 #p b3lyp/6-31g(d) opt SCF=XQC
 -----------------------------

 ------------------------------
 Gaussian input prepared by ASE
 ------------------------------
 Symbolic Z-matrix:
 Charge =  0 Multiplicity = 1

 SCF Done:  E(RB3LYP) =  -2052.05625922     A.U. after   15 cycles
 SCF Done:  E(RB3LYP) =  -2052.06238697     A.U. after   15 cycles
 SCF Done:  E(RB3LYP) =  -2052.06741951     A.U. after   14 cycles
 SCF Done:  E(RB3LYP) =  -2052.06642212     A.U. after   13 cycles
 SCF Done:  E(RB3LYP) =  -2052.07139104     A.U. after   12 cycles
 SCF Done:  E(RB3LYP) =  -2052.07322257     A.U. after   12 cycles
 SCF Done:  E(RB3LYP) =  -2052.07332776     A.U. after   13 cycles
 SCF Done:  E(RB3LYP) =  -2052.07529779     A.U. after   12 cycles
 SCF Done:  E(RB3LYP) =  -2052.07589333     A.U. after   12 cycles
 SCF Done:  E(RB3LYP) =  -2052.07598334     A.U. after   12 cycles
 SCF Done:  E(RB3LYP) =  -2052.07959318     A.U. after   13 cycles
 SCF Done:  E(RB3LYP) =  -2052.07995631     A.U. after   12 cycles
 SCF Done:  E(RB3LYP) =  -2052.08021220     A.U. after   12 cycles
 SCF Done:  E(RB3LYP) =  -2052.08033989     A.U. after   12 cycles
 SCF Done:  E(RB3LYP) =  -2052.08037427     A.U. after   12 cycles
 SCF Done:  E(RB3LYP) =  -2052.08041429     A.U. after   11 cycles
 SCF Done:  E(RB3LYP) =  -2052.08041686     A.U. after    9 cycles
 SCF Done:  E(RB3LYP) =  -2052.08041798     A.U. after    9 cycles
 SCF Done:  E(RB3LYP) =  -2052.08041829     A.U. after    7 cycles
 SCF Done:  E(RB3LYP) =  -2052.08041840     A.U. after    7 cycles
 Optimization completed.
    -- Stationary point found.

                         Standard orientation:
 ---------------------------------------------------------------------
 Center     Atomic      Atomic             Coordinates (Angstroms)
 Number     Number       Type             X           Y           Z
 ---------------------------------------------------------------------
      1          7           0        5.851431   -1.891711    2.678148
      2          6           0        4.836008   -2.275001    1.837011
      3          7           0        5.038535   -3.495896    1.242306
      4          6           0        4.126911   -3.927653    0.390004
      5          7           0        4.306530   -5.161405   -0.172062
      6          6           0        2.974440   -3.130934    0.112993
      7          6           0        1.819053   -3.195224   -0.656515
      8          7           0        1.150738   -2.045597   -0.415933
      9          6           0       -0.118487   -1.654269   -1.006547
     10          8           0        0.068142   -0.713680   -2.049503
     11          6           0       -0.597000    0.529838   -1.762913
     12          6           0        0.223458    1.683267   -2.306892
     13          8           0        1.462788    1.743493   -1.599831
     14          6           0        2.230119    2.834126   -1.851965
     15          8           0        1.909805    3.689808   -2.654631
     16          6           0        3.486237    2.838787   -1.055244
     17          6           0        3.789134    1.827915   -0.132446
     18          6           0        4.986675    1.877145    0.579932
     19          6           0        5.879884    2.931405    0.376964
     20          6           0        5.577084    3.942747   -0.540317
     21          6           0        4.383834    3.897270   -1.255777
     22          6           0       -0.831236    0.496528   -0.241256
     23          8           0       -1.971881    1.247690    0.179013
     24          6           0       -1.763778    2.539008    0.561709
     25          8           0       -0.689487    3.095945    0.471682
     26          6           0       -3.005954    3.169587    1.085186
     27          6           0       -2.949487    4.526127    1.434535
     28          6           0       -4.081541    5.164952    1.933351
     29          6           0       -5.273832    4.452599    2.088456
     30          6           0       -5.332422    3.099825    1.744134
     31          6           0       -4.202901    2.455907    1.242348
     32          6           0       -1.060206   -0.993593    0.022712
     33          8           0       -2.427958   -1.287546   -0.314652
     34          6           0       -2.895512   -2.504967    0.070326
     35          8           0       -2.190522   -3.344467    0.595929
     36          6           0       -4.342152   -2.674877   -0.230470
     37          6           0       -4.941954   -3.893766    0.115915
     38          6           0       -6.293918   -4.103309   -0.142206
     39          6           0       -7.052850   -3.098314   -0.748255
     40          6           0       -6.458076   -1.882572   -1.095064
     41          6           0       -5.105437   -1.666979   -0.837833
     42          7           0        1.773486   -1.212267    0.465782
     43          6           0        2.892722   -1.873563    0.797672
     44          7           0        3.828942   -1.430026    1.671781
     45          1           0        5.622244   -1.160239    3.336006
     46          1           0        6.454039   -2.630981    3.009288
     47          1           0        3.835884   -5.372581   -1.039709
     48          1           0        5.230907   -5.557253   -0.060182
     49          1           0        1.419507   -3.945188   -1.324730
     50          1           0       -0.556933   -2.568721   -1.413121
     51          1           0       -1.573387    0.545452   -2.270270
     52          1           0        0.415010    1.531290   -3.374695
     53          1           0       -0.321032    2.623884   -2.187773
     54          1           0        3.095404    1.010621    0.028512
     55          1           0        5.210166    1.083418    1.286320
     56          1           0        6.813785    2.967017    0.932779
     57          1           0        6.272014    4.763605   -0.696900
     58          1           0        4.126984    4.669144   -1.974065
     59          1           0        0.064602    0.828321    0.284760
     60          1           0       -2.012130    5.057717    1.307898
     61          1           0       -4.035571    6.216536    2.202080
     62          1           0       -6.156900    4.951311    2.479202
     63          1           0       -6.258730    2.545881    1.868957
     64          1           0       -4.239060    1.405152    0.977243
     65          1           0       -0.850905   -1.309973    1.043409
     66          1           0       -4.333157   -4.658987    0.586135
     67          1           0       -6.756881   -5.048182    0.127967
     68          1           0       -8.107967   -3.262571   -0.950191
     69          1           0       -7.048855   -1.102186   -1.566472
     70          1           0       -4.636675   -0.726175   -1.103937
 ---------------------------------------------------------------------

 The electronic state is 1-A.
 Alpha  occ. eigenvalues --  -19.20757 -19.20000 -19.17559 -19.16909 -19.14900
 Alpha  occ. eigenvalues --  -19.13997 -19.11576 -14.42579 -14.36488 -14.34226
 Alpha  occ. eigenvalues --  -14.33916 -14.31613 -14.30216 -10.33038 -10.32184
 Alpha  occ. eigenvalues --  -10.29818 -10.29716 -10.28147 -10.27938 -10.26857
 Alpha  occ. eigenvalues --  -10.25731 -10.25324 -10.24273 -10.23734 -10.23617
 Alpha  occ. eigenvalues --  -10.21675 -10.21176 -10.21079 -10.20902 -10.20866
 Alpha  occ. eigenvalues --  -10.20777 -10.20720 -10.20474 -10.20347 -10.20087
 Alpha  occ. eigenvalues --  -10.20072 -10.19976 -10.19381 -10.18313 -10.18052
 Alpha  occ. eigenvalues --  -10.17759 -10.17699 -10.17254 -10.17150  -1.12098
 Alpha  occ. eigenvalues --   -1.10649  -1.08701  -1.07488  -1.04312  -1.02785
 Alpha  occ. eigenvalues --   -1.01902  -0.99494  -0.99045  -0.94365  -0.88870
 Alpha  occ. eigenvalues --   -0.87325  -0.86576  -0.86230  -0.84021  -0.83011
 Alpha  occ. eigenvalues --   -0.81745  -0.80174  -0.78115  -0.77063  -0.76412
 Alpha  occ. eigenvalues --   -0.76134  -0.75501  -0.74317  -0.72896  -0.70655
 Alpha  occ. eigenvalues --   -0.68554  -0.65731  -0.65311  -0.64007  -0.62959
 Alpha  occ. eigenvalues --   -0.62464  -0.61774  -0.61102  -0.59863  -0.59425
 Alpha  occ. eigenvalues --   -0.59125  -0.58541  -0.57429  -0.56653  -0.55478
 Alpha  occ. eigenvalues --   -0.54905  -0.54207  -0.53751  -0.52808  -0.52721
 Alpha  occ. eigenvalues --   -0.51525  -0.50564  -0.50253  -0.49776  -0.49338
 Alpha  occ. eigenvalues --   -0.47908  -0.47804  -0.47145  -0.46892  -0.46641
 Alpha  occ. eigenvalues --   -0.46174  -0.45809  -0.45553  -0.45319  -0.45099
 Alpha  occ. eigenvalues --   -0.45065  -0.44664  -0.44417  -0.44129  -0.43823
 Alpha  occ. eigenvalues --   -0.43712  -0.43299  -0.43066  -0.42778  -0.42369
 Alpha  occ. eigenvalues --   -0.41684  -0.40923  -0.40465  -0.40119  -0.39641
 Alpha  occ. eigenvalues --   -0.38628  -0.37834  -0.37711  -0.37158  -0.36809
 Alpha  occ. eigenvalues --   -0.36699  -0.36476  -0.35917  -0.35736  -0.35522
 Alpha  occ. eigenvalues --   -0.34855  -0.34643  -0.34184  -0.33786  -0.32504
 Alpha  occ. eigenvalues --   -0.31839  -0.31077  -0.30296  -0.29795  -0.29003
 Alpha  occ. eigenvalues --   -0.28862  -0.28379  -0.28081  -0.27805  -0.26955
 Alpha  occ. eigenvalues --   -0.26784  -0.26348  -0.26192  -0.26037  -0.25588
 Alpha  occ. eigenvalues --   -0.24445  -0.24269  -0.23723  -0.23475  -0.20476
 Alpha virt. eigenvalues --   -0.05774  -0.04943  -0.03607  -0.02411  -0.01691
 Alpha virt. eigenvalues --   -0.00922   0.01627   0.03258   0.04330   0.04677
 Alpha virt. eigenvalues --    0.05424   0.06123   0.06481   0.07881   0.08124

 Mulliken charges:
               1
     1  N   -0.765029
     2  C    0.621276
     3  N   -0.577179
     4  C    0.464080
     5  N   -0.770916
     6  C   -0.016209
     7  C    0.040469
     8  N   -0.237444
     9  C    0.259714
    10  O   -0.496703
    11  C    0.109341
    12  C   -0.034199
    13  O   -0.474561
    14  C    0.610099
    15  O   -0.502212
    16  C    0.040263
    17  C   -0.173668
    18  C   -0.151503
    19  C   -0.118483
    20  C   -0.140787
    21  C   -0.151727
    22  C    0.092556
    23  O   -0.504316
    24  C    0.596647
    25  O   -0.476963
    26  C    0.040861
    27  C   -0.148630
    28  C   -0.138782
    29  C   -0.115422
    30  C   -0.137996
    31  C   -0.162212
    32  C    0.057047
    33  O   -0.498797
    34  C    0.602167
    35  O   -0.492392
    36  C    0.041351
    37  C   -0.149634
    38  C   -0.138275
    39  C   -0.115233
    40  C   -0.137742
    41  C   -0.163505
    42  N   -0.435979
    43  C    0.532670
    44  N   -0.563728
    45  H    0.338287
    46  H    0.334500
    47  H    0.333762
    48  H    0.343140
    49  H    0.173606
    50  H    0.166427
    51  H    0.146928
    52  H    0.163992
    53  H    0.175016
    54  H    0.200889
    55  H    0.151811
    56  H    0.126656
    57  H    0.127778
    58  H    0.154218
    59  H    0.234506
    60  H    0.169747
    61  H    0.141293
    62  H    0.138657
    63  H    0.137328
    64  H    0.162020
    65  H    0.203494
    66  H    0.165588
    67  H    0.142223
    68  H    0.141523
    69  H    0.141309
    70  H    0.166988
 Sum of Mulliken charges =  -0.00000

 Dipole moment (field-independent basis, Debye):
    X=             -4.2181    Y=             -5.2233    Z=              0.0602  Tot=              6.7141
 Quadrupole moment (field-independent basis, Debye-Ang):
   XX=           -195.9091   YY=           -225.7827   ZZ=           -245.1068
   XY=            -18.1623   XZ=              7.3846   YZ=             20.0995

 Normal termination of Gaussian 16 at Fri Nov  4 21:38:44 2022.
