 Gaussian 16, Revision B.01,
 Gaussian 16:  ES64L-G16RevB.01 20-Dec-2017

 -------------------------------------------------------------------
 #p b3lyp/6-31g(d) 6D 10F nosymm GFInput td=(50-50,nstate=2) SCF=XQC
 -------------------------------------------------------------------

 ------------------------------
 Gaussian input prepared by ASE
 ------------------------------
 Symbolic Z-matrix:
 Charge =  0 Multiplicity = 1

                          Input orientation:
 ---------------------------------------------------------------------
 Center     Atomic      Atomic             Coordinates (Angstroms)
 Number     Number       Type             X           Y           Z
 ---------------------------------------------------------------------
      1          6           0       -3.217734   -0.755712   -0.382508
      2          6           0       -2.626476    0.402035    0.432624
      3          6           0       -3.477368    1.674634    0.310243
      4          6           0       -1.189088    0.708081    0.015364
      5          8           0       -0.387139   -0.454244    0.267935
      6          6           0        0.930880   -0.429487   -0.038213
      7          6           0        1.640087   -1.608456    0.238216
      8          6           0        3.007434   -1.687365   -0.039618
      9          6           0        3.719532   -2.900449    0.248445
     10          7           0        4.297015   -3.882293    0.481297
     11          6           0        3.692227   -0.595333   -0.596804
     12          6           0        2.976645    0.573720   -0.867670
     13          6           0        3.651334    1.705801   -1.437005
     14          7           0        4.190774    2.626952   -1.898110
     15          6           0        1.599999    0.666831   -0.592797
     16          1           0       -3.279300   -0.493227   -1.446810
     17          1           0       -2.607288   -1.658710   -0.290773
     18          1           0       -4.230853   -0.992168   -0.039109
     19          1           0       -2.595117    0.104477    1.489987
     20          1           0       -3.522014    2.024138   -0.729188
     21          1           0       -4.504589    1.481704    0.636877
     22          1           0       -3.079425    2.491376    0.924051
     23          1           0       -0.789716    1.556066    0.588993
     24          1           0       -1.142862    0.961005   -1.054235
     25          1           0        1.109983   -2.450669    0.668456
     26          1           0        4.752101   -0.658574   -0.811501
     27          1           0        1.080959    1.589870   -0.816235
 ---------------------------------------------------------------------

 SCF Done:  E(RB3LYP) =  -649.202087747     A.U. after   15 cycles

 Excitation energies and oscillator strengths:

 Excited state symmetry could not be determined.
 Excited State   1:      Triplet-?Sym    3.1931 eV  388.29 nm  f=0.0000  <S**2>=2.000
      51 -> 55         0.10888
      52 -> 54         0.48477
      53 -> 54         0.31758
      53 -> 55        -0.37717
 This state for optimization and/or second-order correction.
 Total Energy, E(TD-HF/TD-DFT) =  -649.084743329
 Copying the excited state density for this state as the 1-particle RhoCI density.

 Excited state symmetry could not be determined.
 Excited State   2:      Triplet-?Sym    3.4637 eV  357.96 nm  f=0.0000  <S**2>=2.000
      52 -> 54        -0.24402
      53 -> 54         0.62391
      53 -> 55         0.18812

 Excited state symmetry could not be determined.
 Excited State   3:      Singlet-?Sym    4.3868 eV  282.63 nm  f=0.0522  <S**2>=0.000
      52 -> 55         0.24807
      53 -> 54         0.65519

 Excited state symmetry could not be determined.
 Excited State   4:      Singlet-?Sym    5.2188 eV  237.57 nm  f=0.0073  <S**2>=0.000
      52 -> 54        -0.46722
      53 -> 55         0.51264

 Alpha  occ. eigenvalues --  -19.20950 -14.35028 -14.34921 -10.29195 -10.26497
 Alpha  occ. eigenvalues --  -10.26332 -10.26258 -10.24262 -10.24153 -10.23859
 Alpha  occ. eigenvalues --  -10.23747 -10.23557 -10.21382 -10.19563 -10.18865
 Alpha  occ. eigenvalues --   -1.09775  -0.92580  -0.91710  -0.89503  -0.83351
 Alpha  occ. eigenvalues --   -0.81475  -0.78905  -0.72088  -0.70140  -0.68304
 Alpha  occ. eigenvalues --   -0.66595  -0.60120  -0.58998  -0.53299  -0.53208
 Alpha  occ. eigenvalues --   -0.51755  -0.51214  -0.50753  -0.46241  -0.45530
 Alpha  occ. eigenvalues --   -0.43204  -0.42661  -0.42309  -0.40952  -0.39926
 Alpha  occ. eigenvalues --   -0.38450  -0.38354  -0.37870  -0.37336  -0.36745
 Alpha  occ. eigenvalues --   -0.35773  -0.34997  -0.34862  -0.34437  -0.34120
 Alpha  occ. eigenvalues --   -0.32771  -0.28330  -0.26009
 Alpha virt. eigenvalues --   -0.07714  -0.05167   0.01554   0.03245   0.04337
 Alpha virt. eigenvalues --    0.06288   0.07028   0.09215   0.10212   0.10601
 Alpha virt. eigenvalues --    0.11369   0.13080   0.13266   0.14393   0.15225

 Mulliken charges:
               1
     1  C   -0.446356
     2  C   -0.099994
     3  C   -0.453854
     4  C   -0.035225
     5  O   -0.523088
     6  C    0.401075
     7  C   -0.186256
     8  C    0.143172
     9  C    0.242746
    10  N   -0.468749
    11  C   -0.159564
    12  C    0.141139
    13  C    0.240572
    14  N   -0.470403
    15  C   -0.205715
    16  H    0.141236
    17  H    0.164262
    18  H    0.150092
    19  H    0.146795
    20  H    0.147161
    21  H    0.157862
    22  H    0.147933
    23  H    0.147909
    24  H    0.144912
    25  H    0.177106
    26  H    0.182364
    27  H    0.172871
 Sum of Mulliken charges =  -0.00000

 Dipole moment (field-independent basis, Debye):
    X=             -5.6578    Y=              1.3941    Z=              0.7562  Tot=              5.8759
 Quadrupole moment (field-independent basis, Debye-Ang):
   XX=           -106.4862   YY=           -109.3326   ZZ=            -91.3073
   XY=              1.6565   XZ=              3.4759   YZ=              7.6114

 Normal termination of Gaussian 16 at Sat Nov  5 11:46:02 2022.
