 Gaussian 16, Revision B.01,
 Gaussian 16:  ES64L-G16RevB.01 20-Dec-2017

 -----------------------------
 #p b3lyp/6-31g(d) opt SCF=XQC
 -----------------------------

 ------------------------------
 Gaussian input prepared by ASE
 ------------------------------
 Symbolic Z-matrix:
 Charge =  0 Multiplicity = 1

 SCF Done:  E(RB3LYP) =  -649.198682129     A.U. after   15 cycles
 SCF Done:  E(RB3LYP) =  -649.201983584     A.U. after   12 cycles
 SCF Done:  E(RB3LYP) =  -649.202075311     A.U. after   11 cycles
 SCF Done:  E(RB3LYP) =  -649.202085644     A.U. after   10 cycles
 SCF Done:  E(RB3LYP) =  -649.202086791     A.U. after    8 cycles
 SCF Done:  E(RB3LYP) =  -649.202086942     A.U. after    7 cycles
 Optimization completed.
    -- Stationary point found.

                         Standard orientation:
 ---------------------------------------------------------------------
 Center     Atomic      Atomic             Coordinates (Angstroms)
 Number     Number       Type             X           Y           Z
 ---------------------------------------------------------------------
      1          6           0        3.915617   -1.251129    0.937269
      2          6           0        3.673669   -0.333422   -0.268418
      3          6           0        4.778872    0.723784   -0.407501
      4          6           0        2.314173    0.358509   -0.185604
      5          8           0        1.292419   -0.648390   -0.194881
      6          6           0       -0.006099   -0.275829   -0.113869
      7          6           0       -0.939686   -1.323499   -0.126539
      8          6           0       -2.307317   -1.046836   -0.048439
      9          6           0       -3.250512   -2.129347   -0.062226
     10          7           0       -4.015031   -3.005197   -0.073274
     11          6           0       -2.769291    0.276065    0.043460
     12          6           0       -1.831314    1.311527    0.054846
     13          6           0       -2.275374    2.673567    0.147654
     14          7           0       -2.627262    3.779321    0.222591
     15          6           0       -0.451674    1.047222   -0.023334
     16          1           0        3.946487   -0.672037    1.869538
     17          1           0        3.125327   -2.001626    1.030335
     18          1           0        4.873216   -1.774139    0.838732
     19          1           0        3.663536   -0.948445   -1.179014
     20          1           0        4.815224    1.378532    0.472582
     21          1           0        5.758671    0.243883   -0.501225
     22          1           0        4.630009    1.354893   -1.291655
     23          1           0        2.167695    1.031944   -1.041557
     24          1           0        2.237852    0.950893    0.738195
     25          1           0       -0.581443   -2.344308   -0.197606
     26          1           0       -3.829802    0.488376    0.104002
     27          1           0        0.243535    1.876613   -0.012297
 ---------------------------------------------------------------------

 The electronic state is 1-A.
 Alpha  occ. eigenvalues --  -19.20950 -14.35028 -14.34921 -10.29195 -10.26497
 Alpha  occ. eigenvalues --  -10.26332 -10.26258 -10.24262 -10.24153 -10.23859
 Alpha  occ. eigenvalues --  -10.23747 -10.23557 -10.21382 -10.19563 -10.18865
 Alpha  occ. eigenvalues --   -1.09775  -0.92580  -0.91710  -0.89503  -0.83351
 Alpha  occ. eigenvalues --   -0.81475  -0.78905  -0.72088  -0.70140  -0.68304
 Alpha  occ. eigenvalues --   -0.66595  -0.60120  -0.58998  -0.53299  -0.53208
 Alpha  occ. eigenvalues --   -0.51755  -0.51214  -0.50753  -0.46241  -0.45530
 Alpha  occ. eigenvalues --   -0.43204  -0.42661  -0.42309  -0.40952  -0.39926
 Alpha  occ. eigenvalues --   -0.38450  -0.38354  -0.37870  -0.37336  -0.36745
 Alpha  occ. eigenvalues --   -0.35773  -0.34997  -0.34862  -0.34437  -0.34120
 Alpha  occ. eigenvalues --   -0.32771  -0.28330  -0.26009
 Alpha virt. eigenvalues --   -0.07714  -0.05167   0.01554   0.03245   0.04337
 Alpha virt. eigenvalues --    0.06288   0.07028   0.09215   0.10212   0.10601
 Alpha virt. eigenvalues --    0.11369   0.13080   0.13266   0.14393   0.15225

 Mulliken charges:
               1
     1  C   -0.446351
     2  C   -0.100009
     3  C   -0.453845
     4  C   -0.035223
     5  O   -0.523088
     6  C    0.401077
     7  C   -0.186265
     8  C    0.143188
     9  C    0.242745
    10  N   -0.468750
    11  C   -0.159576
    12  C    0.141149
    13  C    0.240571
    14  N   -0.470403
    15  C   -0.205717
    16  H    0.141233
    17  H    0.164262
    18  H    0.150091
    19  H    0.146796
    20  H    0.147160
    21  H    0.157861
    22  H    0.147931
    23  H    0.147910
    24  H    0.144913
    25  H    0.177105
    26  H    0.182364
    27  H    0.172871
 Sum of Mulliken charges =  -0.00000

 Dipole moment (field-independent basis, Debye):
    X=              5.8694    Y=             -0.0277    Z=             -0.2742  Tot=              5.8759
 Quadrupole moment (field-independent basis, Debye-Ang):
   XX=            -95.8182   YY=           -111.7571   ZZ=            -87.7558
   XY=             -1.6734   XZ=             -0.3452   YZ=             -1.1765

 Normal termination of Gaussian 16 at Fri Nov  4 19:10:53 2022.
