 Gaussian 16, Revision B.01,
 Gaussian 16:  ES64L-G16RevB.01 20-Dec-2017

 -------------------------------------------------------------------
 #p b3lyp/6-31g(d) 6D 10F nosymm GFInput td=(50-50,nstate=2) SCF=XQC
 -------------------------------------------------------------------

 ------------------------------
 Gaussian input prepared by ASE
 ------------------------------
 Symbolic Z-matrix:
 Charge =  0 Multiplicity = 1

                          Input orientation:
 ---------------------------------------------------------------------
 Center     Atomic      Atomic             Coordinates (Angstroms)
 Number     Number       Type             X           Y           Z
 ---------------------------------------------------------------------
      1          8           0        0.113145    3.095537   -0.612891
      2          6           0        0.416335    2.318234   -1.513937
      3          6           0        1.788548    2.361272   -2.187012
      4          6           0        2.927429    2.539783   -1.161810
      5          6           0        3.152859    1.322816   -0.287513
      6          6           0        2.439780    1.147455    0.909161
      7          6           0        2.640705    0.017504    1.699145
      8          6           0        3.551038   -0.964234    1.308464
      9          6           0        4.255258   -0.810851    0.103509
     10          6           0        4.056454    0.328364   -0.676288
     11          8           0        5.159657   -1.752021   -0.335077
     12          6           0        5.052356   -3.007764    0.333428
     13          6           0        4.917832   -2.795982    1.833372
     14          8           0        3.729795   -2.061435    2.121154
     15          7           0       -0.456389    1.394187   -2.015228
     16          6           0       -1.780963    1.185594   -1.445475
     17          6           0       -1.802096    0.108415   -0.338847
     18          6           0       -3.190651   -0.143956    0.207159
     19          6           0       -3.596944    0.393775    1.366100
     20          6           0       -4.961310    0.185211    1.976363
     21          6           0       -5.723032   -0.975048    1.318072
     22          6           0       -5.579401   -0.920342   -0.207493
     23          6           0       -4.104258   -1.029202   -0.620610
     24          1           0        1.962092    1.467553   -2.799510
     25          1           0        1.782251    3.222873   -2.868466
     26          1           0        3.848591    2.778408   -1.706366
     27          1           0        2.679761    3.407084   -0.541740
     28          1           0        1.727020    1.905017    1.220092
     29          1           0        2.107592   -0.118870    2.635418
     30          1           0        4.629268    0.419879   -1.595853
     31          1           0        4.179632   -3.559233   -0.044307
     32          1           0        5.960157   -3.566140    0.088938
     33          1           0        5.795036   -2.253685    2.213795
     34          1           0        4.829129   -3.748055    2.363684
     35          1           0       -0.101646    0.706297   -2.664643
     36          1           0       -2.101032    2.142406   -1.028100
     37          1           0       -2.467828    0.923215   -2.258451
     38          1           0       -1.385872   -0.825053   -0.747409
     39          1           0       -1.127709    0.435352    0.459827
     40          1           0       -2.906221    1.029216    1.921268
     41          1           0       -4.858859    0.006651    3.055855
     42          1           0       -5.545713    1.115565    1.889555
     43          1           0       -5.316825   -1.928992    1.682641
     44          1           0       -6.780063   -0.949530    1.609877
     45          1           0       -5.988881    0.031503   -0.573988
     46          1           0       -6.163104   -1.718774   -0.682130
     47          1           0       -3.997561   -0.785867   -1.687535
     48          1           0       -3.765366   -2.074132   -0.528013
 ---------------------------------------------------------------------

 SCF Done:  E(RB3LYP) =  -1019.50231192     A.U. after   15 cycles

 Excitation energies and oscillator strengths:

 Excited state symmetry could not be determined.
 Excited State   1:      Triplet-?Sym    3.6198 eV  342.52 nm  f=0.0000  <S**2>=2.000
      83 -> 86         0.43827
      85 -> 87         0.50091
      85 -> 88         0.15551
 This state for optimization and/or second-order correction.
 Total Energy, E(TD-HF/TD-DFT) =  -1019.36928756
 Copying the excited state density for this state as the 1-particle RhoCI density.

 Excited state symmetry could not be determined.
 Excited State   2:      Triplet-?Sym    4.0914 eV  303.03 nm  f=0.0000  <S**2>=2.000
      85 -> 86         0.68963

 Excited state symmetry could not be determined.
 Excited State   3:      Singlet-?Sym    4.9444 eV  250.76 nm  f=0.0473  <S**2>=0.000
      83 -> 87        -0.31462
      85 -> 86         0.61989

 Excited state symmetry could not be determined.
 Excited State   4:      Singlet-?Sym    5.5514 eV  223.34 nm  f=0.0307  <S**2>=0.000
      83 -> 86         0.26613
      85 -> 87         0.62723
      85 -> 89         0.10659

 Alpha  occ. eigenvalues --  -19.17691 -19.17588 -19.10223 -14.35500 -10.27769
 Alpha  occ. eigenvalues --  -10.24975 -10.24908 -10.23976 -10.23810 -10.21546
 Alpha  occ. eigenvalues --  -10.19223 -10.18502 -10.18372 -10.18237 -10.18100
 Alpha  occ. eigenvalues --  -10.18074 -10.18044 -10.18000 -10.17924 -10.17818
 Alpha  occ. eigenvalues --  -10.17691 -10.17413 -10.17163  -1.08095  -1.04517
 Alpha  occ. eigenvalues --   -1.02117  -0.91409  -0.85009  -0.83096  -0.79446
 Alpha  occ. eigenvalues --   -0.77434  -0.76121  -0.74222  -0.73467  -0.71883
 Alpha  occ. eigenvalues --   -0.70143  -0.66777  -0.64590  -0.62275  -0.61147
 Alpha  occ. eigenvalues --   -0.60314  -0.57999  -0.57520  -0.55772  -0.53276
 Alpha  occ. eigenvalues --   -0.51091  -0.50940  -0.50395  -0.49438  -0.47812
 Alpha  occ. eigenvalues --   -0.46394  -0.45418  -0.44867  -0.44429  -0.44070
 Alpha  occ. eigenvalues --   -0.43741  -0.43188  -0.42717  -0.42302  -0.42078
 Alpha  occ. eigenvalues --   -0.40362  -0.39929  -0.39311  -0.38935  -0.38629
 Alpha  occ. eigenvalues --   -0.37817  -0.37481  -0.37220  -0.36471  -0.36233
 Alpha  occ. eigenvalues --   -0.35454  -0.34286  -0.33992  -0.33096  -0.32726
 Alpha  occ. eigenvalues --   -0.32326  -0.31099  -0.30257  -0.29871  -0.29801
 Alpha  occ. eigenvalues --   -0.25159  -0.24049  -0.22687  -0.22397  -0.20291
 Alpha virt. eigenvalues --    0.00717   0.01824   0.02822   0.03781   0.07542
 Alpha virt. eigenvalues --    0.08753   0.09054   0.10305   0.11578   0.11907
 Alpha virt. eigenvalues --    0.12549   0.12827   0.12948   0.13698   0.14606

 Mulliken charges:
               1
     1  O   -0.532615
     2  C    0.624498
     3  C   -0.351253
     4  C   -0.347694
     5  C    0.156849
     6  C   -0.197969
     7  C   -0.193204
     8  C    0.325603
     9  C    0.335544
    10  C   -0.258152
    11  O   -0.525362
    12  C   -0.057805
    13  C   -0.059249
    14  O   -0.523060
    15  N   -0.595240
    16  C   -0.134142
    17  C   -0.335585
    18  C    0.177649
    19  C   -0.174262
    20  C   -0.293067
    21  C   -0.263089
    22  C   -0.262034
    23  C   -0.329771
    24  H    0.131910
    25  H    0.167937
    26  H    0.139420
    27  H    0.174267
    28  H    0.154875
    29  H    0.138625
    30  H    0.128277
    31  H    0.154786
    32  H    0.156709
    33  H    0.157475
    34  H    0.156887
    35  H    0.320561
    36  H    0.187689
    37  H    0.139986
    38  H    0.126872
    39  H    0.165623
    40  H    0.122136
    41  H    0.139823
    42  H    0.143666
    43  H    0.134707
    44  H    0.130301
    45  H    0.135692
    46  H    0.128984
    47  H    0.133923
    48  H    0.142282
 Sum of Mulliken charges =  -0.00000

 Dipole moment (field-independent basis, Debye):
    X=              0.3192    Y=             -3.7030    Z=             -1.8816  Tot=              4.1659
 Quadrupole moment (field-independent basis, Debye-Ang):
   XX=           -125.5807   YY=           -137.0169   ZZ=           -129.1482
   XY=             -7.9129   XZ=              0.8636   YZ=             -3.3453

 Normal termination of Gaussian 16 at Sat Nov  5 11:46:40 2022.
