 Gaussian 16, Revision B.01,
 Gaussian 16:  ES64L-G16RevB.01 20-Dec-2017

 -----------------------------
 #p b3lyp/6-31g(d) opt SCF=XQC
 -----------------------------

 ------------------------------
 Gaussian input prepared by ASE
 ------------------------------
 Symbolic Z-matrix:
 Charge =  0 Multiplicity = 1

 SCF Done:  E(RB3LYP) =  -1019.49250850     A.U. after   15 cycles
 SCF Done:  E(RB3LYP) =  -1019.49802998     A.U. after   14 cycles
 SCF Done:  E(RB3LYP) =  -1019.49787204     A.U. after   12 cycles
 SCF Done:  E(RB3LYP) =  -1019.50014599     A.U. after   12 cycles
 SCF Done:  E(RB3LYP) =  -1019.50043256     A.U. after   11 cycles
 SCF Done:  E(RB3LYP) =  -1019.50062438     A.U. after   11 cycles
 SCF Done:  E(RB3LYP) =  -1019.50090339     A.U. after   12 cycles
 SCF Done:  E(RB3LYP) =  -1019.50120936     A.U. after   14 cycles
 SCF Done:  E(RB3LYP) =  -1019.50149466     A.U. after   12 cycles
 SCF Done:  E(RB3LYP) =  -1019.50177264     A.U. after   12 cycles
 SCF Done:  E(RB3LYP) =  -1019.50229418     A.U. after   12 cycles
 SCF Done:  E(RB3LYP) =  -1019.50227141     A.U. after   12 cycles
 SCF Done:  E(RB3LYP) =  -1019.50230246     A.U. after   11 cycles
 SCF Done:  E(RB3LYP) =  -1019.50230596     A.U. after   10 cycles
 SCF Done:  E(RB3LYP) =  -1019.50230672     A.U. after   10 cycles
 SCF Done:  E(RB3LYP) =  -1019.50230517     A.U. after   10 cycles
 SCF Done:  E(RB3LYP) =  -1019.50230783     A.U. after   10 cycles
 SCF Done:  E(RB3LYP) =  -1019.50230842     A.U. after    9 cycles
 SCF Done:  E(RB3LYP) =  -1019.50230859     A.U. after    9 cycles
 SCF Done:  E(RB3LYP) =  -1019.50230862     A.U. after    7 cycles
 Optimization completed.
    -- Stationary point found.

                         Standard orientation:
 ---------------------------------------------------------------------
 Center     Atomic      Atomic             Coordinates (Angstroms)
 Number     Number       Type             X           Y           Z
 ---------------------------------------------------------------------
      1          8           0       -0.675280    2.850055    1.117417
      2          6           0       -0.307137    2.739204   -0.048856
      3          6           0        1.047021    3.270410   -0.519947
      4          6           0        2.173853    2.943646    0.481767
      5          6           0        2.526573    1.471046    0.538848
      6          6           0        1.846883    0.595410    1.400559
      7          6           0        2.165805   -0.760440    1.435099
      8          6           0        3.163590   -1.272310    0.605907
      9          6           0        3.836526   -0.410939   -0.275324
     10          6           0        3.518918    0.947040   -0.296159
     11          8           0        4.823926   -0.863094   -1.121900
     12          6           0        4.847127   -2.281594   -1.272315
     13          6           0        4.708547   -2.957168    0.083110
     14          8           0        3.457489   -2.615779    0.676506
     15          7           0       -1.090579    2.181513   -1.019425
     16          6           0       -2.382236    1.575701   -0.724064
     17          6           0       -2.286077    0.067025   -0.407779
     18          6           0       -3.637377   -0.567180   -0.159437
     19          6           0       -4.081933   -0.807018    1.082425
     20          6           0       -5.412759   -1.438916    1.409563
     21          6           0       -6.064305   -2.093952    0.182296
     22          6           0       -5.943006   -1.183523   -1.045457
     23          6           0       -4.468783   -0.913929   -1.380940
     24          1           0        1.300616    2.890976   -1.517807
     25          1           0        0.949193    4.361259   -0.605110
     26          1           0        3.061387    3.525018    0.205520
     27          1           0        1.849160    3.290611    1.467783
     28          1           0        1.066790    0.984212    2.047779
     29          1           0        1.658613   -1.442693    2.110898
     30          1           0        4.070184    1.586419   -0.981281
     31          1           0        4.028556   -2.601137   -1.932832
     32          1           0        5.802536   -2.526314   -1.744508
     33          1           0        5.532502   -2.646301    0.740951
     34          1           0        4.719073   -4.046397   -0.011809
     35          1           0       -0.677195    2.008213   -1.924884
     36          1           0       -2.789899    2.103481    0.140456
     37          1           0       -3.048777    1.754023   -1.575816
     38          1           0       -1.784916   -0.438062   -1.247573
     39          1           0       -1.638423   -0.051154    0.467516
     40          1           0       -3.450800   -0.533267    1.928491
     41          1           0       -5.281815   -2.180686    2.209758
     42          1           0       -6.086267   -0.674118    1.829198
     43          1           0       -5.562857   -3.048987   -0.028373
     44          1           0       -7.115587   -2.328054    0.389944
     45          1           0       -6.447526   -0.229427   -0.837705
     46          1           0       -6.450833   -1.627375   -1.910669
     47          1           0       -4.397796   -0.107564   -2.125025
     48          1           0       -4.028325   -1.797812   -1.870886
 ---------------------------------------------------------------------

 The electronic state is 1-A.
 Alpha  occ. eigenvalues --  -19.17691 -19.17588 -19.10223 -14.35500 -10.27769
 Alpha  occ. eigenvalues --  -10.24975 -10.24908 -10.23976 -10.23810 -10.21546
 Alpha  occ. eigenvalues --  -10.19223 -10.18502 -10.18372 -10.18237 -10.18100
 Alpha  occ. eigenvalues --  -10.18074 -10.18044 -10.18000 -10.17924 -10.17818
 Alpha  occ. eigenvalues --  -10.17691 -10.17413 -10.17163  -1.08095  -1.04517
 Alpha  occ. eigenvalues --   -1.02117  -0.91409  -0.85009  -0.83096  -0.79446
 Alpha  occ. eigenvalues --   -0.77434  -0.76121  -0.74222  -0.73467  -0.71883
 Alpha  occ. eigenvalues --   -0.70143  -0.66777  -0.64590  -0.62275  -0.61147
 Alpha  occ. eigenvalues --   -0.60314  -0.57999  -0.57520  -0.55772  -0.53276
 Alpha  occ. eigenvalues --   -0.51091  -0.50940  -0.50395  -0.49438  -0.47812
 Alpha  occ. eigenvalues --   -0.46394  -0.45418  -0.44867  -0.44429  -0.44070
 Alpha  occ. eigenvalues --   -0.43741  -0.43188  -0.42717  -0.42302  -0.42078
 Alpha  occ. eigenvalues --   -0.40362  -0.39929  -0.39311  -0.38935  -0.38629
 Alpha  occ. eigenvalues --   -0.37817  -0.37481  -0.37219  -0.36471  -0.36233
 Alpha  occ. eigenvalues --   -0.35454  -0.34286  -0.33992  -0.33096  -0.32726
 Alpha  occ. eigenvalues --   -0.32326  -0.31099  -0.30257  -0.29871  -0.29801
 Alpha  occ. eigenvalues --   -0.25159  -0.24049  -0.22687  -0.22397  -0.20290
 Alpha virt. eigenvalues --    0.00717   0.01824   0.02822   0.03781   0.07541
 Alpha virt. eigenvalues --    0.08753   0.09054   0.10305   0.11578   0.11907
 Alpha virt. eigenvalues --    0.12549   0.12827   0.12948   0.13698   0.14606

 Mulliken charges:
               1
     1  O   -0.532620
     2  C    0.624523
     3  C   -0.351253
     4  C   -0.347719
     5  C    0.156854
     6  C   -0.197952
     7  C   -0.193212
     8  C    0.325565
     9  C    0.335585
    10  C   -0.258169
    11  O   -0.525363
    12  C   -0.057811
    13  C   -0.059238
    14  O   -0.523051
    15  N   -0.595245
    16  C   -0.134153
    17  C   -0.335594
    18  C    0.177639
    19  C   -0.174238
    20  C   -0.293073
    21  C   -0.263095
    22  C   -0.262039
    23  C   -0.329766
    24  H    0.131909
    25  H    0.167937
    26  H    0.139423
    27  H    0.174271
    28  H    0.154874
    29  H    0.138624
    30  H    0.128276
    31  H    0.154787
    32  H    0.156710
    33  H    0.157472
    34  H    0.156885
    35  H    0.320561
    36  H    0.187691
    37  H    0.139987
    38  H    0.126872
    39  H    0.165626
    40  H    0.122134
    41  H    0.139823
    42  H    0.143666
    43  H    0.134711
    44  H    0.130302
    45  H    0.135693
    46  H    0.128985
    47  H    0.133922
    48  H    0.142281
 Sum of Mulliken charges =  -0.00000

 Dipole moment (field-independent basis, Debye):
    X=              0.6598    Y=             -1.9737    Z=             -3.6089  Tot=              4.1659
 Quadrupole moment (field-independent basis, Debye-Ang):
   XX=           -124.7562   YY=           -132.3906   ZZ=           -134.2592
   XY=             -5.2656   XZ=             -1.1384   YZ=             -5.0847

 Normal termination of Gaussian 16 at Fri Nov  4 19:23:22 2022.
