 Gaussian 16, Revision B.01,
 Gaussian 16:  ES64L-G16RevB.01 20-Dec-2017

 -------------------------------------------------------------------
 #p b3lyp/6-31g(d) 6D 10F nosymm GFInput td=(50-50,nstate=2) SCF=XQC
 -------------------------------------------------------------------

 ------------------------------
 Gaussian input prepared by ASE
 ------------------------------
 Symbolic Z-matrix:
 Charge =  0 Multiplicity = 1

                          Input orientation:
 ---------------------------------------------------------------------
 Center     Atomic      Atomic             Coordinates (Angstroms)
 Number     Number       Type             X           Y           Z
 ---------------------------------------------------------------------
      1          6           0        4.890243   -0.135751   -3.446586
      2          8           0        5.551605    0.149420   -2.223994
      3          6           0        4.848082   -0.016081   -1.069578
      4          6           0        3.529879   -0.455671   -0.988172
      5          6           0        2.906671   -0.572645    0.267250
      6          6           0        1.502013   -1.025674    0.403283
      7          8           0        0.886883   -1.097180    1.448301
      8          8           0        0.956351   -1.393969   -0.793736
      9          6           0       -0.410900   -1.767748   -0.739917
     10          6           0       -1.321534   -0.531365   -0.640197
     11          8           0       -0.897117    0.600145   -0.801540
     12          7           0       -2.628444   -0.881525   -0.390365
     13          6           0       -3.750571   -0.059331   -0.277125
     14          6           0       -3.629977    1.344168   -0.404944
     15          6           0       -4.781122    2.086973   -0.276797
     16          6           0       -6.030186    1.513637   -0.031626
     17          6           0       -6.174925    0.159095    0.096319
     18          6           0       -5.021922   -0.668072   -0.024839
     19          6           0       -5.180466   -2.130282    0.116573
     20          6           0       -6.562341   -2.708858    0.384735
     21          8           0       -4.232951   -2.922701    0.026821
     22          8           0       -6.989643    2.498751    0.028825
     23          6           0       -6.283632    3.737414   -0.082889
     24          8           0       -4.907808    3.441289   -0.371424
     25          6           0        3.602249   -0.269310    1.437106
     26          6           0        4.925264    0.159533    1.357008
     27          6           0        5.553283    0.304658    0.112024
     28          8           0        6.840989    0.747876   -0.013675
     29          6           0        7.358762    1.359930    1.168448
     30          6           0        7.004639    0.524368    2.387300
     31          8           0        5.587418    0.442794    2.527691
     32          1           0        4.011240    0.506445   -3.588842
     33          1           0        5.619577    0.068043   -4.232628
     34          1           0        4.580066   -1.187632   -3.501579
     35          1           0        2.967350   -0.694837   -1.879549
     36          1           0       -0.594466   -2.442674    0.101722
     37          1           0       -0.610304   -2.295094   -1.677905
     38          1           0       -2.856198   -1.871703   -0.256336
     39          1           0       -2.665638    1.793305   -0.590635
     40          1           0       -7.151207   -0.267852    0.284694
     41          1           0       -7.265281   -2.460663   -0.418620
     42          1           0       -6.981849   -2.327037    1.322455
     43          1           0       -6.464709   -3.793350    0.452502
     44          1           0       -6.704066    4.327398   -0.903136
     45          1           0       -6.341815    4.285386    0.866078
     46          1           0        3.123197   -0.369639    2.403862
     47          1           0        6.943734    2.371595    1.273139
     48          1           0        8.440533    1.428401    1.027705
     49          1           0        7.379723    0.980275    3.307307
     50          1           0        7.429319   -0.484254    2.286945
 ---------------------------------------------------------------------

 SCF Done:  E(RB3LYP) =  -1543.42510442     A.U. after   14 cycles

 Excitation energies and oscillator strengths:

 Excited state symmetry could not be determined.
 Excited State   1:      Triplet-?Sym    2.5822 eV  480.15 nm  f=0.0000  <S**2>=2.000
     111 ->113         0.67908
     112 ->113         0.12362
 This state for optimization and/or second-order correction.
 Total Energy, E(TD-HF/TD-DFT) =  -1543.33021022
 Copying the excited state density for this state as the 1-particle RhoCI density.

 Excited state symmetry could not be determined.
 Excited State   2:      Triplet-?Sym    3.0987 eV  400.12 nm  f=0.0000  <S**2>=2.000
     110 ->116         0.17460
     111 ->114        -0.11342
     112 ->114         0.64916
     112 ->119        -0.10231

 Excited state symmetry could not be determined.
 Excited State   3:      Singlet-?Sym    3.6387 eV  340.74 nm  f=0.1768  <S**2>=0.000
     109 ->113         0.13474
     111 ->113         0.65910
     112 ->113         0.19242

 Excited state symmetry could not be determined.
 Excited State   4:      Singlet-?Sym    3.6904 eV  335.96 nm  f=0.0008  <S**2>=0.000
     111 ->113        -0.19370
     112 ->113         0.67885

 Alpha  occ. eigenvalues --  -19.20859 -19.20289 -19.18660 -19.18289 -19.17952
 Alpha  occ. eigenvalues --  -19.17592 -19.14581 -19.12546 -19.12504 -14.36884
 Alpha  occ. eigenvalues --  -10.31732 -10.30682 -10.29674 -10.28689 -10.26772
 Alpha  occ. eigenvalues --  -10.25745 -10.25728 -10.25187 -10.25134 -10.25006
 Alpha  occ. eigenvalues --  -10.24865 -10.24816 -10.24631 -10.23791 -10.21236
 Alpha  occ. eigenvalues --  -10.21089 -10.19702 -10.19571 -10.19476 -10.18566
 Alpha  occ. eigenvalues --  -10.18334  -1.13931  -1.09722  -1.08903  -1.06384
 Alpha  occ. eigenvalues --   -1.04840  -1.04792  -1.04568  -1.03968  -1.00459
 Alpha  occ. eigenvalues --   -0.94434  -0.86768  -0.85584  -0.79072  -0.78862
 Alpha  occ. eigenvalues --   -0.77445  -0.76111  -0.74436  -0.73985  -0.71627
 Alpha  occ. eigenvalues --   -0.70007  -0.69496  -0.67622  -0.65472  -0.64328
 Alpha  occ. eigenvalues --   -0.61771  -0.59700  -0.58788  -0.57397  -0.56656
 Alpha  occ. eigenvalues --   -0.55120  -0.53908  -0.53042  -0.52967  -0.52590
 Alpha  occ. eigenvalues --   -0.52243  -0.50703  -0.49622  -0.48982  -0.48910
 Alpha  occ. eigenvalues --   -0.46946  -0.46718  -0.46139  -0.45818  -0.45749
 Alpha  occ. eigenvalues --   -0.45238  -0.45135  -0.44731  -0.44268  -0.44004
 Alpha  occ. eigenvalues --   -0.43903  -0.42929  -0.41991  -0.41375  -0.40891
 Alpha  occ. eigenvalues --   -0.40543  -0.40188  -0.39521  -0.39389  -0.39015
 Alpha  occ. eigenvalues --   -0.38986  -0.38493  -0.38041  -0.37359  -0.36974
 Alpha  occ. eigenvalues --   -0.36919  -0.35116  -0.34431  -0.33575  -0.33434
 Alpha  occ. eigenvalues --   -0.32753  -0.30892  -0.30163  -0.29319  -0.28821
 Alpha  occ. eigenvalues --   -0.26799  -0.26513  -0.25145  -0.24893  -0.21687
 Alpha  occ. eigenvalues --   -0.20894  -0.20809
 Alpha virt. eigenvalues --   -0.06114  -0.03090  -0.01335   0.01795   0.03533
 Alpha virt. eigenvalues --    0.04938   0.07320   0.07856   0.08852   0.09387
 Alpha virt. eigenvalues --    0.10281   0.10431   0.10845   0.11306   0.11947

 Mulliken charges:
               1
     1  C   -0.215901
     2  O   -0.505776
     3  C    0.331411
     4  C   -0.245803
     5  C    0.038607
     6  C    0.615604
     7  O   -0.494902
     8  O   -0.475014
     9  C   -0.145393
    10  C    0.618686
    11  O   -0.490003
    12  N   -0.759664
    13  C    0.307998
    14  C   -0.232069
    15  C    0.352068
    16  C    0.349986
    17  C   -0.274428
    18  C    0.024302
    19  C    0.425600
    20  C   -0.539806
    21  O   -0.513718
    22  O   -0.536976
    23  C    0.189802
    24  O   -0.521076
    25  C   -0.233870
    26  C    0.344901
    27  C    0.285928
    28  O   -0.509782
    29  C   -0.060699
    30  C   -0.061121
    31  O   -0.525209
    32  H    0.158245
    33  H    0.170171
    34  H    0.153482
    35  H    0.159585
    36  H    0.191594
    37  H    0.183524
    38  H    0.390002
    39  H    0.213806
    40  H    0.152324
    41  H    0.174589
    42  H    0.176270
    43  H    0.184926
    44  H    0.169901
    45  H    0.165039
    46  H    0.167194
    47  H    0.163094
    48  H    0.161306
    49  H    0.161080
    50  H    0.160183
 Sum of Mulliken charges =  -0.00000

 Dipole moment (field-independent basis, Debye):
    X=             -1.4508    Y=              1.0764    Z=             -1.1679  Tot=              2.1511
 Quadrupole moment (field-independent basis, Debye-Ang):
   XX=           -118.0848   YY=           -166.9360   ZZ=           -168.2153
   XY=             -3.2099   XZ=              4.9636   YZ=              6.2773

 Normal termination of Gaussian 16 at Sat Nov  5 11:48:08 2022.
