 Gaussian 16, Revision B.01,
 Gaussian 16:  ES64L-G16RevB.01 20-Dec-2017

 -----------------------------
 #p b3lyp/6-31g(d) opt SCF=XQC
 -----------------------------

 ------------------------------
 Gaussian input prepared by ASE
 ------------------------------
 Symbolic Z-matrix:
 Charge =  0 Multiplicity = 1

 SCF Done:  E(RB3LYP) =  -1543.41785455     A.U. after   15 cycles
 SCF Done:  E(RB3LYP) =  -1543.42189647     A.U. after   13 cycles
 SCF Done:  E(RB3LYP) =  -1543.42259563     A.U. after   13 cycles
 SCF Done:  E(RB3LYP) =  -1543.42446066     A.U. after   13 cycles
 SCF Done:  E(RB3LYP) =  -1543.42440603     A.U. after   13 cycles
 SCF Done:  E(RB3LYP) =  -1543.42488937     A.U. after   12 cycles
 SCF Done:  E(RB3LYP) =  -1543.42491256     A.U. after   12 cycles
 SCF Done:  E(RB3LYP) =  -1543.42505589     A.U. after   12 cycles
 SCF Done:  E(RB3LYP) =  -1543.42508655     A.U. after   11 cycles
 SCF Done:  E(RB3LYP) =  -1543.42509360     A.U. after   11 cycles
 SCF Done:  E(RB3LYP) =  -1543.42509903     A.U. after    8 cycles
 SCF Done:  E(RB3LYP) =  -1543.42509976     A.U. after    8 cycles
 SCF Done:  E(RB3LYP) =  -1543.42510087     A.U. after   10 cycles
 SCF Done:  E(RB3LYP) =  -1543.42510261     A.U. after    9 cycles
 SCF Done:  E(RB3LYP) =  -1543.42510441     A.U. after   10 cycles
 SCF Done:  E(RB3LYP) =  -1543.42510415     A.U. after   10 cycles
 SCF Done:  E(RB3LYP) =  -1543.42510511     A.U. after    9 cycles
 SCF Done:  E(RB3LYP) =  -1543.42510505     A.U. after    8 cycles
 SCF Done:  E(RB3LYP) =  -1543.42510519     A.U. after    8 cycles
 SCF Done:  E(RB3LYP) =  -1543.42510521     A.U. after    6 cycles
 Optimization completed on the basis of negligible forces.
    -- Stationary point found.

                         Standard orientation:
 ---------------------------------------------------------------------
 Center     Atomic      Atomic             Coordinates (Angstroms)
 Number     Number       Type             X           Y           Z
 ---------------------------------------------------------------------
      1          6           0        4.849068   -0.306264   -3.527155
      2          8           0        5.536873    0.066579   -2.343362
      3          6           0        4.869357   -0.044076   -1.161334
      4          6           0        3.564534   -0.506460   -1.015854
      5          6           0        2.978918   -0.560839    0.261742
      6          6           0        1.589510   -1.035209    0.465022
      7          8           0        1.005128   -1.056756    1.529726
      8          8           0        1.019978   -1.486946   -0.691615
      9          6           0       -0.336159   -1.886387   -0.576186
     10          6           0       -1.272402   -0.666302   -0.524411
     11          8           0       -0.879172    0.462335   -0.765296
     12          7           0       -2.563411   -1.029014   -0.216551
     13          6           0       -3.700945   -0.226037   -0.120421
     14          6           0       -3.616786    1.169456   -0.335375
     15          6           0       -4.781052    1.893479   -0.218789
     16          6           0       -6.009156    1.309025    0.096103
     17          6           0       -6.118587   -0.038129    0.308950
     18          6           0       -4.950298   -0.845877    0.204329
     19          6           0       -5.070635   -2.299962    0.437451
     20          6           0       -6.430711   -2.891138    0.779421
     21          8           0       -4.107652   -3.075597    0.368005
     22          8           0       -6.989388    2.274927    0.125130
     23          6           0       -6.315893    3.519609   -0.080754
     24          8           0       -4.941951    3.236528   -0.390561
     25          6           0        3.699044   -0.172314    1.390845
     26          6           0        5.008962    0.279528    1.247174
     27          6           0        5.599015    0.362735   -0.021829
     28          8           0        6.872060    0.825401   -0.210843
     29          6           0        7.407607    1.518887    0.917155
     30          6           0        7.106717    0.751037    2.193492
     31          8           0        5.696179    0.647345    2.379264
     32          1           0        3.951702    0.306922   -3.682194
     33          1           0        5.551589   -0.134568   -4.344656
     34          1           0        4.562204   -1.366032   -3.510181
     35          1           0        2.983510   -0.811226   -1.874760
     36          1           0       -0.480714   -2.513032    0.309251
     37          1           0       -0.548828   -2.473672   -1.474821
     38          1           0       -2.764163   -2.013991   -0.017035
     39          1           0       -2.668683    1.627381   -0.575291
     40          1           0       -7.079072   -0.474005    0.550560
     41          1           0       -7.161046   -2.707278   -0.016764
     42          1           0       -6.833152   -2.462533    1.704317
     43          1           0       -6.305899   -3.967175    0.909091
     44          1           0       -6.772370    4.049666   -0.922372
     45          1           0       -6.360825    4.122548    0.835020
     46          1           0        3.249179   -0.224401    2.375264
     47          1           0        6.972043    2.525780    0.973058
     48          1           0        8.483210    1.602198    0.741474
     49          1           0        7.496131    1.269757    3.073399
     50          1           0        7.551974   -0.252349    2.141454
 ---------------------------------------------------------------------

 The electronic state is 1-A.
 Alpha  occ. eigenvalues --  -19.20859 -19.20289 -19.18660 -19.18289 -19.17952
 Alpha  occ. eigenvalues --  -19.17592 -19.14581 -19.12546 -19.12504 -14.36884
 Alpha  occ. eigenvalues --  -10.31732 -10.30682 -10.29674 -10.28689 -10.26773
 Alpha  occ. eigenvalues --  -10.25745 -10.25728 -10.25187 -10.25134 -10.25006
 Alpha  occ. eigenvalues --  -10.24865 -10.24816 -10.24631 -10.23791 -10.21236
 Alpha  occ. eigenvalues --  -10.21088 -10.19701 -10.19571 -10.19476 -10.18566
 Alpha  occ. eigenvalues --  -10.18334  -1.13931  -1.09722  -1.08903  -1.06384
 Alpha  occ. eigenvalues --   -1.04840  -1.04792  -1.04568  -1.03968  -1.00459
 Alpha  occ. eigenvalues --   -0.94434  -0.86768  -0.85583  -0.79072  -0.78862
 Alpha  occ. eigenvalues --   -0.77445  -0.76111  -0.74436  -0.73985  -0.71627
 Alpha  occ. eigenvalues --   -0.70007  -0.69496  -0.67622  -0.65472  -0.64328
 Alpha  occ. eigenvalues --   -0.61771  -0.59700  -0.58788  -0.57397  -0.56656
 Alpha  occ. eigenvalues --   -0.55120  -0.53908  -0.53042  -0.52967  -0.52590
 Alpha  occ. eigenvalues --   -0.52243  -0.50703  -0.49622  -0.48982  -0.48910
 Alpha  occ. eigenvalues --   -0.46946  -0.46718  -0.46139  -0.45818  -0.45749
 Alpha  occ. eigenvalues --   -0.45238  -0.45135  -0.44731  -0.44268  -0.44004
 Alpha  occ. eigenvalues --   -0.43903  -0.42929  -0.41990  -0.41375  -0.40891
 Alpha  occ. eigenvalues --   -0.40543  -0.40188  -0.39521  -0.39389  -0.39015
 Alpha  occ. eigenvalues --   -0.38986  -0.38493  -0.38041  -0.37359  -0.36974
 Alpha  occ. eigenvalues --   -0.36919  -0.35116  -0.34431  -0.33575  -0.33434
 Alpha  occ. eigenvalues --   -0.32753  -0.30892  -0.30163  -0.29319  -0.28821
 Alpha  occ. eigenvalues --   -0.26799  -0.26513  -0.25145  -0.24893  -0.21687
 Alpha  occ. eigenvalues --   -0.20894  -0.20809
 Alpha virt. eigenvalues --   -0.06114  -0.03090  -0.01335   0.01795   0.03533
 Alpha virt. eigenvalues --    0.04938   0.07320   0.07856   0.08852   0.09387
 Alpha virt. eigenvalues --    0.10281   0.10431   0.10845   0.11306   0.11947

 Mulliken charges:
               1
     1  C   -0.215903
     2  O   -0.505779
     3  C    0.331438
     4  C   -0.245824
     5  C    0.038618
     6  C    0.615581
     7  O   -0.494891
     8  O   -0.475005
     9  C   -0.145395
    10  C    0.618684
    11  O   -0.489999
    12  N   -0.759663
    13  C    0.307994
    14  C   -0.232062
    15  C    0.352064
    16  C    0.349975
    17  C   -0.274424
    18  C    0.024305
    19  C    0.425600
    20  C   -0.539806
    21  O   -0.513717
    22  O   -0.536977
    23  C    0.189815
    24  O   -0.521075
    25  C   -0.233884
    26  C    0.344929
    27  C    0.285898
    28  O   -0.509779
    29  C   -0.060701
    30  C   -0.061116
    31  O   -0.525210
    32  H    0.158246
    33  H    0.170171
    34  H    0.153483
    35  H    0.159586
    36  H    0.191594
    37  H    0.183524
    38  H    0.390002
    39  H    0.213806
    40  H    0.152324
    41  H    0.174589
    42  H    0.176271
    43  H    0.184926
    44  H    0.169898
    45  H    0.165036
    46  H    0.167194
    47  H    0.163094
    48  H    0.161306
    49  H    0.161079
    50  H    0.160182
 Sum of Mulliken charges =  -0.00000

 Dipole moment (field-independent basis, Debye):
    X=             -1.5070    Y=              0.9721    Z=             -1.1879  Tot=              2.1511
 Quadrupole moment (field-independent basis, Debye-Ang):
   XX=           -117.8958   YY=           -166.4200   ZZ=           -169.3205
   XY=             -1.5204   XZ=              3.4067   YZ=              6.4403

 Normal termination of Gaussian 16 at Fri Nov  4 19:34:58 2022.
