 Gaussian 16, Revision B.01,
 Gaussian 16:  ES64L-G16RevB.01 20-Dec-2017

 -------------------------------------------------------------------
 #p b3lyp/6-31g(d) 6D 10F nosymm GFInput td=(50-50,nstate=2) SCF=XQC
 -------------------------------------------------------------------

 ------------------------------
 Gaussian input prepared by ASE
 ------------------------------
 Symbolic Z-matrix:
 Charge =  0 Multiplicity = 1

                          Input orientation:
 ---------------------------------------------------------------------
 Center     Atomic      Atomic             Coordinates (Angstroms)
 Number     Number       Type             X           Y           Z
 ---------------------------------------------------------------------
      1          6           0       -8.975445    0.140820    1.810195
      2          6           0       -7.756645   -0.548859    1.189225
      3          6           0       -6.546604    0.372935    1.125603
      4          8           0       -5.473453   -0.359575    0.535040
      5          6           0       -4.276657    0.257671    0.369450
      6          6           0       -3.990445    1.572234    0.732362
      7          6           0       -2.717364    2.105697    0.513785
      8          6           0       -1.701697    1.343018   -0.070891
      9          6           0       -0.392419    1.952165   -0.275578
     10          6           0        0.711956    1.405242   -0.818108
     11          6           0        1.956565    2.204096   -0.934828
     12          8           0        2.051827    3.374204   -0.564846
     13          7           0        3.010969    1.532770   -1.511971
     14          6           0        4.331543    2.116272   -1.624582
     15          6           0        5.344331    1.442423   -0.708871
     16          8           0        5.427920    0.074326   -1.116827
     17          6           0        6.246338   -0.773727   -0.428289
     18          6           0        7.040171   -0.399702    0.663787
     19          6           0        7.840848   -1.361122    1.288172
     20          6           0        7.868243   -2.682435    0.849261
     21          6           0        7.067733   -3.018647   -0.239672
     22          9           0        7.076097   -4.293008   -0.685943
     23          6           0        6.260105   -2.098774   -0.887104
     24          6           0       -1.996964    0.008561   -0.437470
     25          6           0       -3.254949   -0.534850   -0.226764
     26          8           0       -3.624559   -1.806333   -0.547723
     27          6           0       -2.654904   -2.650443   -1.144181
     28          1           0       -9.831824   -0.540365    1.845305
     29          1           0       -9.276526    1.022338    1.231187
     30          1           0       -8.771381    0.469982    2.836350
     31          1           0       -7.486435   -1.440192    1.768064
     32          1           0       -7.988311   -0.891315    0.173550
     33          1           0       -6.766951    1.265456    0.521301
     34          1           0       -6.259296    0.710223    2.132591
     35          1           0       -4.755336    2.190342    1.187447
     36          1           0       -2.514439    3.132953    0.803728
     37          1           0       -0.292263    2.986136    0.052205
     38          1           0        0.727037    0.379987   -1.183294
     39          1           0        2.924129    0.544468   -1.702399
     40          1           0        4.685487    2.052419   -2.661403
     41          1           0        4.234807    3.170303   -1.353797
     42          1           0        5.015441    1.505556    0.336456
     43          1           0        6.327057    1.925611   -0.802820
     44          1           0        7.042414    0.619672    1.029862
     45          1           0        8.454399   -1.066930    2.135061
     46          1           0        8.484084   -3.438239    1.323622
     47          1           0        5.650782   -2.393040   -1.733893
     48          1           0       -1.223528   -0.598997   -0.891238
     49          1           0       -2.304188   -2.248223   -2.104282
     50          1           0       -3.155665   -3.605224   -1.314342
     51          1           0       -1.792032   -2.805908   -0.482494
 ---------------------------------------------------------------------

 SCF Done:  E(RB3LYP) =  -1270.15175212     A.U. after   15 cycles

 Excitation energies and oscillator strengths:

 Excited state symmetry could not be determined.
 Excited State   1:      Triplet-?Sym    2.4966 eV  496.61 nm  f=0.0000  <S**2>=2.000
      93 ->100        -0.14250
      97 ->100         0.16144
      99 ->100         0.65877
 This state for optimization and/or second-order correction.
 Total Energy, E(TD-HF/TD-DFT) =  -1270.06000336
 Copying the excited state density for this state as the 1-particle RhoCI density.

 Excited state symmetry could not be determined.
 Excited State   2:      Triplet-?Sym    3.6787 eV  337.04 nm  f=0.0000  <S**2>=2.000
      93 ->100        -0.18705
      97 ->100         0.61019
      97 ->102        -0.11954
      99 ->100        -0.20470
      99 ->104        -0.10645

 Excited state symmetry could not be determined.
 Excited State   3:      Singlet-?Sym    3.9660 eV  312.61 nm  f=0.6644  <S**2>=0.000
      97 ->100        -0.15352
      99 ->100         0.67657

 Excited state symmetry could not be determined.
 Excited State   4:      Singlet-?Sym    4.2482 eV  291.85 nm  f=0.0003  <S**2>=0.000
      95 ->100        -0.28983
      96 ->100         0.62929
      96 ->104        -0.10439

 Alpha  occ. eigenvalues --  -24.70218 -19.18713 -19.18019 -19.17933 -19.09792
 Alpha  occ. eigenvalues --  -14.35314 -10.27724 -10.27299 -10.25990 -10.25253
 Alpha  occ. eigenvalues --  -10.24994 -10.24993 -10.24467 -10.24289 -10.22346
 Alpha  occ. eigenvalues --  -10.20271 -10.19658 -10.19608 -10.19304 -10.19192
 Alpha  occ. eigenvalues --  -10.19101 -10.19095 -10.19085 -10.19079 -10.18995
 Alpha  occ. eigenvalues --  -10.18564 -10.18546  -1.21372  -1.07717  -1.07306
 Alpha  occ. eigenvalues --   -1.05722  -1.01730  -0.91434  -0.85931  -0.85739
 Alpha  occ. eigenvalues --   -0.80474  -0.78830  -0.77749  -0.75691  -0.75158
 Alpha  occ. eigenvalues --   -0.74083  -0.72861  -0.70305  -0.69338  -0.66080
 Alpha  occ. eigenvalues --   -0.62555  -0.62246  -0.61495  -0.59790  -0.58996
 Alpha  occ. eigenvalues --   -0.58193  -0.56322  -0.54873  -0.54174  -0.51877
 Alpha  occ. eigenvalues --   -0.51215  -0.50120  -0.49887  -0.49445  -0.49201
 Alpha  occ. eigenvalues --   -0.48976  -0.48237  -0.47053  -0.46379  -0.45578
 Alpha  occ. eigenvalues --   -0.44919  -0.44380  -0.43889  -0.43343  -0.42947
 Alpha  occ. eigenvalues --   -0.42899  -0.42235  -0.41095  -0.40427  -0.39841
 Alpha  occ. eigenvalues --   -0.38946  -0.38872  -0.38238  -0.37873  -0.37696
 Alpha  occ. eigenvalues --   -0.37058  -0.36627  -0.36360  -0.35974  -0.35153
 Alpha  occ. eigenvalues --   -0.34965  -0.33994  -0.33400  -0.33314  -0.32376
 Alpha  occ. eigenvalues --   -0.32263  -0.32150  -0.27166  -0.24896  -0.24710
 Alpha  occ. eigenvalues --   -0.24220  -0.23462  -0.22841  -0.20006
 Alpha virt. eigenvalues --   -0.04639  -0.00592   0.00804   0.01013   0.04182
 Alpha virt. eigenvalues --    0.07836   0.08221   0.08507   0.09219   0.10144
 Alpha virt. eigenvalues --    0.10411   0.10913   0.11261   0.12186   0.12612

 Mulliken charges:
               1
     1  C   -0.454811
     2  C   -0.269922
     3  C   -0.026727
     4  O   -0.510109
     5  C    0.349496
     6  C   -0.204545
     7  C   -0.207846
     8  C    0.177967
     9  C   -0.161984
    10  C   -0.223109
    11  C    0.618439
    12  O   -0.544827
    13  N   -0.620590
    14  C   -0.153495
    15  C   -0.039087
    16  O   -0.535058
    17  C    0.390197
    18  C   -0.194837
    19  C   -0.138295
    20  C   -0.200580
    21  C    0.385410
    22  F   -0.300300
    23  C   -0.258381
    24  C   -0.266327
    25  C    0.343651
    26  O   -0.501676
    27  C   -0.214429
    28  H    0.155205
    29  H    0.147251
    30  H    0.147211
    31  H    0.154752
    32  H    0.154764
    33  H    0.139745
    34  H    0.139670
    35  H    0.139126
    36  H    0.136305
    37  H    0.164950
    38  H    0.115024
    39  H    0.329999
    40  H    0.158007
    41  H    0.196589
    42  H    0.158443
    43  H    0.145931
    44  H    0.140125
    45  H    0.140773
    46  H    0.143470
    47  H    0.146860
    48  H    0.131925
    49  H    0.151538
    50  H    0.172199
    51  H    0.151914
 Sum of Mulliken charges =  -0.00000

 Dipole moment (field-independent basis, Debye):
    X=             -1.6456    Y=             -1.2076    Z=              0.5768  Tot=              2.1211
 Quadrupole moment (field-independent basis, Debye-Ang):
   XX=           -130.5201   YY=           -167.7028   ZZ=           -152.9633
   XY=              2.8950   XZ=             -0.0263   YZ=              3.8705

 Normal termination of Gaussian 16 at Sat Nov  5 11:43:28 2022.
