 Gaussian 16, Revision B.01,
 Gaussian 16:  ES64L-G16RevB.01 20-Dec-2017

 -----------------------------
 #p b3lyp/6-31g(d) opt SCF=XQC
 -----------------------------

 ------------------------------
 Gaussian input prepared by ASE
 ------------------------------
 Symbolic Z-matrix:
 Charge =  0 Multiplicity = 1

 SCF Done:  E(RB3LYP) =  -1270.14842980     A.U. after   15 cycles
 SCF Done:  E(RB3LYP) =  -1270.15155993     A.U. after   12 cycles
 SCF Done:  E(RB3LYP) =  -1270.15164757     A.U. after   11 cycles
 SCF Done:  E(RB3LYP) =  -1270.15170961     A.U. after   11 cycles
 SCF Done:  E(RB3LYP) =  -1270.15173375     A.U. after    9 cycles
 SCF Done:  E(RB3LYP) =  -1270.15174128     A.U. after   10 cycles
 SCF Done:  E(RB3LYP) =  -1270.15174782     A.U. after   10 cycles
 SCF Done:  E(RB3LYP) =  -1270.15175045     A.U. after    9 cycles
 SCF Done:  E(RB3LYP) =  -1270.15175405     A.U. after   10 cycles
 SCF Done:  E(RB3LYP) =  -1270.15175666     A.U. after   10 cycles
 SCF Done:  E(RB3LYP) =  -1270.15175806     A.U. after   10 cycles
 SCF Done:  E(RB3LYP) =  -1270.15175938     A.U. after    9 cycles
 SCF Done:  E(RB3LYP) =  -1270.15175956     A.U. after    9 cycles
 SCF Done:  E(RB3LYP) =  -1270.15175960     A.U. after    7 cycles
 SCF Done:  E(RB3LYP) =  -1270.15175961     A.U. after    6 cycles
 Optimization completed.
    -- Stationary point found.

                         Standard orientation:
 ---------------------------------------------------------------------
 Center     Atomic      Atomic             Coordinates (Angstroms)
 Number     Number       Type             X           Y           Z
 ---------------------------------------------------------------------
      1          6           0        9.653718    0.843070    1.092189
      2          6           0        8.331052    1.351811    0.510406
      3          6           0        7.211801    0.329294    0.650726
      4          8           0        6.032025    0.896256    0.081806
      5          6           0        4.889382    0.164775    0.087689
      6          6           0        4.757044   -1.119681    0.611479
      7          6           0        3.526701   -1.780716    0.562656
      8          6           0        2.401598   -1.178337   -0.008648
      9          6           0        1.143522   -1.915792   -0.032532
     10          6           0       -0.046071   -1.529749   -0.531476
     11          6           0       -1.215306   -2.439525   -0.453765
     12          8           0       -1.171156   -3.563959    0.045049
     13          7           0       -2.369681   -1.930014   -1.004543
     14          6           0       -3.634253   -2.632600   -0.938954
     15          6           0       -4.631990   -1.947750   -0.014920
     16          8           0       -4.875222   -0.646827   -0.556719
     17          6           0       -5.714009    0.201220    0.106861
     18          6           0       -6.382205   -0.112624    1.297539
     19          6           0       -7.219013    0.841879    1.884009
     20          6           0       -7.404465    2.097752    1.311602
     21          6           0       -6.725842    2.375088    0.127463
     22          9           0       -6.888557    3.585266   -0.448919
     23          6           0       -5.887826    1.459691   -0.486846
     24          6           0        2.540768    0.126166   -0.538971
     25          6           0        3.754583    0.794873   -0.497681
     26          8           0        3.976998    2.048528   -0.982630
     27          6           0        2.888993    2.734088   -1.578253
     28          1           0       10.442365    1.594124    0.980005
     29          1           0        9.990648   -0.069637    0.585814
     30          1           0        9.561575    0.616270    2.161327
     31          1           0        8.023827    2.276838    1.012879
     32          1           0        8.450153    1.595304   -0.552169
     33          1           0        7.467676   -0.604034    0.127509
     34          1           0        7.036316    0.085203    1.709006
     35          1           0        5.609608   -1.614952    1.060990
     36          1           0        3.444357   -2.781963    0.976447
     37          1           0        1.166743   -2.910664    0.410481
     38          1           0       -0.185746   -0.557538   -1.000553
     39          1           0       -2.391190   -0.965905   -1.305498
     40          1           0       -4.071833   -2.717052   -1.941821
     41          1           0       -3.418133   -3.637065   -0.567463
     42          1           0       -4.218688   -1.863749    0.998484
     43          1           0       -5.569222   -2.520213    0.029027
     44          1           0       -6.260210   -1.080384    1.768385
     45          1           0       -7.734761    0.594573    2.807621
     46          1           0       -8.050088    2.847403    1.755126
     47          1           0       -5.376275    1.706722   -1.409998
     48          1           0        1.680818    0.610416   -0.985312
     49          1           0        2.504395    2.197242   -2.456010
     50          1           0        3.283045    3.702482   -1.891717
     51          1           0        2.069149    2.889714   -0.863981
 ---------------------------------------------------------------------

 The electronic state is 1-A.
 Alpha  occ. eigenvalues --  -24.70218 -19.18713 -19.18019 -19.17933 -19.09792
 Alpha  occ. eigenvalues --  -14.35314 -10.27724 -10.27299 -10.25990 -10.25253
 Alpha  occ. eigenvalues --  -10.24994 -10.24993 -10.24467 -10.24289 -10.22346
 Alpha  occ. eigenvalues --  -10.20271 -10.19658 -10.19608 -10.19304 -10.19192
 Alpha  occ. eigenvalues --  -10.19101 -10.19095 -10.19085 -10.19079 -10.18995
 Alpha  occ. eigenvalues --  -10.18564 -10.18546  -1.21372  -1.07717  -1.07306
 Alpha  occ. eigenvalues --   -1.05722  -1.01730  -0.91434  -0.85931  -0.85739
 Alpha  occ. eigenvalues --   -0.80474  -0.78830  -0.77749  -0.75691  -0.75158
 Alpha  occ. eigenvalues --   -0.74083  -0.72861  -0.70305  -0.69338  -0.66080
 Alpha  occ. eigenvalues --   -0.62555  -0.62246  -0.61495  -0.59790  -0.58996
 Alpha  occ. eigenvalues --   -0.58193  -0.56322  -0.54873  -0.54174  -0.51877
 Alpha  occ. eigenvalues --   -0.51215  -0.50120  -0.49887  -0.49445  -0.49201
 Alpha  occ. eigenvalues --   -0.48976  -0.48237  -0.47053  -0.46379  -0.45578
 Alpha  occ. eigenvalues --   -0.44919  -0.44380  -0.43889  -0.43343  -0.42947
 Alpha  occ. eigenvalues --   -0.42899  -0.42235  -0.41095  -0.40427  -0.39842
 Alpha  occ. eigenvalues --   -0.38946  -0.38872  -0.38238  -0.37873  -0.37696
 Alpha  occ. eigenvalues --   -0.37058  -0.36627  -0.36360  -0.35974  -0.35153
 Alpha  occ. eigenvalues --   -0.34965  -0.33994  -0.33400  -0.33314  -0.32376
 Alpha  occ. eigenvalues --   -0.32263  -0.32150  -0.27166  -0.24896  -0.24710
 Alpha  occ. eigenvalues --   -0.24220  -0.23462  -0.22841  -0.20006
 Alpha virt. eigenvalues --   -0.04639  -0.00592   0.00804   0.01013   0.04182
 Alpha virt. eigenvalues --    0.07836   0.08221   0.08507   0.09219   0.10144
 Alpha virt. eigenvalues --    0.10411   0.10913   0.11261   0.12186   0.12612

 Mulliken charges:
               1
     1  C   -0.454812
     2  C   -0.269925
     3  C   -0.026726
     4  O   -0.510104
     5  C    0.349498
     6  C   -0.204548
     7  C   -0.207849
     8  C    0.177982
     9  C   -0.161984
    10  C   -0.223103
    11  C    0.618426
    12  O   -0.544823
    13  N   -0.620586
    14  C   -0.153495
    15  C   -0.039087
    16  O   -0.535050
    17  C    0.390180
    18  C   -0.194834
    19  C   -0.138294
    20  C   -0.200576
    21  C    0.385409
    22  F   -0.300301
    23  C   -0.258385
    24  C   -0.266328
    25  C    0.343635
    26  O   -0.501673
    27  C   -0.214431
    28  H    0.155205
    29  H    0.147251
    30  H    0.147212
    31  H    0.154753
    32  H    0.154765
    33  H    0.139746
    34  H    0.139670
    35  H    0.139126
    36  H    0.136305
    37  H    0.164950
    38  H    0.115024
    39  H    0.330000
    40  H    0.158006
    41  H    0.196588
    42  H    0.158445
    43  H    0.145931
    44  H    0.140127
    45  H    0.140773
    46  H    0.143470
    47  H    0.146866
    48  H    0.131923
    49  H    0.151539
    50  H    0.172199
    51  H    0.151914
 Sum of Mulliken charges =  -0.00000

 Dipole moment (field-independent basis, Debye):
    X=              1.5644    Y=              1.4007    Z=              0.2996  Tot=              2.1211
 Quadrupole moment (field-independent basis, Debye-Ang):
   XX=           -129.6118   YY=           -167.5854   ZZ=           -152.0555
   XY=              6.6858   XZ=             -1.6711   YZ=             -2.5436

 Normal termination of Gaussian 16 at Fri Nov  4 19:12:55 2022.
