 Gaussian 16, Revision B.01,
 Gaussian 16:  ES64L-G16RevB.01 20-Dec-2017

 -------------------------------------------------------------------
 #p b3lyp/6-31g(d) 6D 10F nosymm GFInput td=(50-50,nstate=2) SCF=XQC
 -------------------------------------------------------------------

 ------------------------------
 Gaussian input prepared by ASE
 ------------------------------
 Symbolic Z-matrix:
 Charge =  0 Multiplicity = 1

                          Input orientation:
 ---------------------------------------------------------------------
 Center     Atomic      Atomic             Coordinates (Angstroms)
 Number     Number       Type             X           Y           Z
 ---------------------------------------------------------------------
      1          8           0       -0.448860   -2.197474   -1.838167
      2          6           0       -1.111675   -1.287743   -1.403585
      3          6           0       -2.572501   -0.981776   -1.724456
      4          6           0       -3.003592    0.103876   -0.732346
      5          6           0       -3.705989   -0.438481    0.515777
      6         16           0       -3.445376    0.870233    1.755166
      7          8           0       -4.258948    2.029997    1.353044
      8          8           0       -3.493719    0.353068    3.127623
      9          6           0       -1.719419    1.178412    1.215114
     10          6           0       -1.655390    0.776107   -0.274429
     11          7           0       -0.659903   -0.271806   -0.535970
     12          6           0        0.677916   -0.128987   -0.173919
     13          7           0        1.434286   -1.096647    0.215222
     14          6           0        2.728463   -0.654585    0.440835
     15          6           0        3.786442   -1.467499    0.870143
     16          6           0        5.031965   -0.891346    1.090577
     17          6           0        5.236325    0.484432    0.892460
     18          6           0        4.198291    1.311135    0.467516
     19          6           0        2.950852    0.729438    0.237764
     20         16           0        1.460577    1.484121   -0.303898
     21          1           0       -3.167388   -1.897692   -1.674099
     22          1           0       -2.616920   -0.625031   -2.760552
     23          1           0       -3.643706    0.859268   -1.192473
     24          1           0       -3.246520   -1.354684    0.900702
     25          1           0       -4.780493   -0.586519    0.388463
     26          1           0       -1.507933    2.233679    1.395053
     27          1           0       -1.066656    0.561613    1.836651
     28          1           0       -1.450014    1.657843   -0.893916
     29          1           0        3.611831   -2.527969    1.019897
     30          1           0        5.859307   -1.512217    1.421734
     31          1           0        6.217920    0.913622    1.071756
     32          1           0        4.360831    2.373608    0.315010
 ---------------------------------------------------------------------

 SCF Done:  E(RB3LYP) =  -1634.12018633     A.U. after   15 cycles

 Excitation energies and oscillator strengths:

 Excited state symmetry could not be determined.
 Excited State   1:      Triplet-?Sym    3.2180 eV  385.29 nm  f=0.0000  <S**2>=2.000
      79 -> 81        -0.13222
      79 -> 82         0.23020
      80 -> 81         0.62136
      80 -> 84        -0.11574
 This state for optimization and/or second-order correction.
 Total Energy, E(TD-HF/TD-DFT) =  -1634.00192799
 Copying the excited state density for this state as the 1-particle RhoCI density.

 Excited state symmetry could not be determined.
 Excited State   2:      Triplet-?Sym    3.9477 eV  314.07 nm  f=0.0000  <S**2>=2.000
      79 -> 81         0.61200
      79 -> 82        -0.20271
      80 -> 81         0.21892
      80 -> 82         0.10865

 Excited state symmetry could not be determined.
 Excited State   3:      Singlet-?Sym    4.5659 eV  271.54 nm  f=0.1124  <S**2>=0.000
      79 -> 81         0.54615
      80 -> 81         0.36454
      80 -> 82        -0.21199

 Excited state symmetry could not be determined.
 Excited State   4:      Singlet-?Sym    4.6721 eV  265.37 nm  f=0.2656  <S**2>=0.000
      78 -> 81         0.11068
      79 -> 81        -0.32866
      80 -> 81         0.57246
      80 -> 82         0.16553

 Alpha  occ. eigenvalues --  -89.09962 -88.92551 -19.15186 -19.14839 -19.14399
 Alpha  occ. eigenvalues --  -14.40603 -14.34900 -10.31635 -10.30576 -10.28129
 Alpha  occ. eigenvalues --  -10.24684 -10.24399 -10.24339 -10.23802 -10.23557
 Alpha  occ. eigenvalues --  -10.22731 -10.21192 -10.20484 -10.20256 -10.20176
 Alpha  occ. eigenvalues --   -8.13009  -7.98689  -6.09419  -6.09345  -6.09329
 Alpha  occ. eigenvalues --   -5.95104  -5.94782  -5.94315  -1.10659  -1.06720
 Alpha  occ. eigenvalues --   -1.00553  -1.00389  -0.96238  -0.87332  -0.85590
 Alpha  occ. eigenvalues --   -0.81616  -0.80666  -0.77155  -0.75001  -0.73391
 Alpha  occ. eigenvalues --   -0.71508  -0.66369  -0.63036  -0.61030  -0.60797
 Alpha  occ. eigenvalues --   -0.60443  -0.55755  -0.54713  -0.52101  -0.50700
 Alpha  occ. eigenvalues --   -0.50317  -0.49761  -0.49236  -0.47576  -0.47338
 Alpha  occ. eigenvalues --   -0.45954  -0.45059  -0.44946  -0.44241  -0.43346
 Alpha  occ. eigenvalues --   -0.43001  -0.42333  -0.41720  -0.40928  -0.40512
 Alpha  occ. eigenvalues --   -0.38922  -0.37874  -0.37457  -0.35555  -0.35174
 Alpha  occ. eigenvalues --   -0.33298  -0.32124  -0.31466  -0.30728  -0.30196
 Alpha  occ. eigenvalues --   -0.29908  -0.28783  -0.26868  -0.24524  -0.23827
 Alpha virt. eigenvalues --   -0.05009  -0.01465  -0.01344   0.00151   0.02704
 Alpha virt. eigenvalues --    0.04053   0.04843   0.05464   0.06193   0.06949
 Alpha virt. eigenvalues --    0.08464   0.09422   0.10149   0.10586   0.12203

 Mulliken charges:
               1
     1  O   -0.449614
     2  C    0.597995
     3  C   -0.386269
     4  C   -0.157113
     5  C   -0.494598
     6  S    1.135337
     7  O   -0.547842
     8  O   -0.506514
     9  C   -0.521631
    10  C    0.031876
    11  N   -0.518714
    12  C    0.273431
    13  N   -0.447790
    14  C    0.284056
    15  C   -0.145321
    16  C   -0.146420
    17  C   -0.117460
    18  C   -0.183380
    19  C   -0.119236
    20  S    0.198109
    21  H    0.192454
    22  H    0.194267
    23  H    0.188470
    24  H    0.207973
    25  H    0.218976
    26  H    0.222886
    27  H    0.231455
    28  H    0.184287
    29  H    0.154237
    30  H    0.139681
    31  H    0.138725
    32  H    0.147686
 Sum of Mulliken charges =  -0.00000

 Dipole moment (field-independent basis, Debye):
    X=              1.6320    Y=              1.1365    Z=             -2.4641  Tot=              3.1665
 Quadrupole moment (field-independent basis, Debye-Ang):
   XX=           -121.3191   YY=           -133.1466   ZZ=           -141.0360
   XY=             13.8309   XZ=             21.8647   YZ=             -8.1610

 Normal termination of Gaussian 16 at Sat Nov  5 11:44:32 2022.
