 Gaussian 16, Revision B.01,
 Gaussian 16:  ES64L-G16RevB.01 20-Dec-2017

 -----------------------------
 #p b3lyp/6-31g(d) opt SCF=XQC
 -----------------------------

 ------------------------------
 Gaussian input prepared by ASE
 ------------------------------
 Symbolic Z-matrix:
 Charge =  0 Multiplicity = 1

 SCF Done:  E(RB3LYP) =  -1634.11018967     A.U. after   15 cycles
 SCF Done:  E(RB3LYP) =  -1634.11885322     A.U. after   13 cycles
 SCF Done:  E(RB3LYP) =  -1634.11972955     A.U. after   12 cycles
 SCF Done:  E(RB3LYP) =  -1634.11990135     A.U. after   12 cycles
 SCF Done:  E(RB3LYP) =  -1634.11998071     A.U. after   12 cycles
 SCF Done:  E(RB3LYP) =  -1634.12006373     A.U. after   11 cycles
 SCF Done:  E(RB3LYP) =  -1634.12015243     A.U. after   12 cycles
 SCF Done:  E(RB3LYP) =  -1634.12017054     A.U. after   12 cycles
 SCF Done:  E(RB3LYP) =  -1634.12017776     A.U. after   11 cycles
 SCF Done:  E(RB3LYP) =  -1634.12018383     A.U. after   11 cycles
 SCF Done:  E(RB3LYP) =  -1634.12018451     A.U. after    9 cycles
 SCF Done:  E(RB3LYP) =  -1634.12018593     A.U. after    9 cycles
 SCF Done:  E(RB3LYP) =  -1634.12018639     A.U. after    8 cycles
 SCF Done:  E(RB3LYP) =  -1634.12018656     A.U. after    8 cycles
 SCF Done:  E(RB3LYP) =  -1634.12018669     A.U. after    8 cycles
 SCF Done:  E(RB3LYP) =  -1634.12018676     A.U. after    7 cycles
 Optimization completed.
    -- Stationary point found.

                         Standard orientation:
 ---------------------------------------------------------------------
 Center     Atomic      Atomic             Coordinates (Angstroms)
 Number     Number       Type             X           Y           Z
 ---------------------------------------------------------------------
      1          8           0       -0.003424    3.177962    0.347275
      2          6           0        0.743123    2.313093   -0.040622
      3          6           0        2.203947    2.478425   -0.452015
      4          6           0        2.760134    1.059307   -0.611764
      5          6           0        3.484272    0.532252    0.630477
      6         16           0        3.379588   -1.276989    0.450401
      7          8           0        4.251935   -1.662023   -0.671835
      8          8           0        3.460176   -1.969306    1.741771
      9          6           0        1.654795   -1.216854   -0.171718
     10          6           0        1.487624    0.162135   -0.846351
     11          7           0        0.408586    0.958742   -0.247507
     12          6           0       -0.895867    0.480009   -0.145249
     13          7           0       -1.698287    0.754330    0.824680
     14          6           0       -2.944947    0.186840    0.612536
     15          6           0       -4.034867    0.304515    1.485853
     16          6           0       -5.223829   -0.342443    1.170121
     17          6           0       -5.340023   -1.107928   -0.002189
     18          6           0       -4.268778   -1.239568   -0.883458
     19          6           0       -3.078769   -0.581814   -0.569614
     20         16           0       -1.567957   -0.540406   -1.463816
     21          1           0        2.734306    3.088168    0.284371
     22          1           0        2.221336    3.029863   -1.399828
     23          1           0        3.428147    0.967117   -1.470450
     24          1           0        2.981061    0.801229    1.564895
     25          1           0        4.537840    0.815366    0.680712
     26          1           0        1.527834   -2.058619   -0.854364
     27          1           0        0.992108   -1.337717    0.687983
     28          1           0        1.314264    0.036230   -1.922220
     29          1           0       -3.928429    0.898231    2.387896
     30          1           0       -6.075329   -0.256658    1.838874
     31          1           0       -6.278523   -1.605764   -0.228589
     32          1           0       -4.363189   -1.831499   -1.788571
 ---------------------------------------------------------------------

 The electronic state is 1-A.
 Alpha  occ. eigenvalues --  -89.09962 -88.92551 -19.15185 -19.14839 -19.14399
 Alpha  occ. eigenvalues --  -14.40603 -14.34900 -10.31635 -10.30576 -10.28129
 Alpha  occ. eigenvalues --  -10.24684 -10.24399 -10.24339 -10.23802 -10.23557
 Alpha  occ. eigenvalues --  -10.22731 -10.21192 -10.20484 -10.20256 -10.20176
 Alpha  occ. eigenvalues --   -8.13009  -7.98690  -6.09419  -6.09345  -6.09329
 Alpha  occ. eigenvalues --   -5.95104  -5.94782  -5.94315  -1.10659  -1.06720
 Alpha  occ. eigenvalues --   -1.00553  -1.00389  -0.96238  -0.87332  -0.85590
 Alpha  occ. eigenvalues --   -0.81616  -0.80666  -0.77155  -0.75001  -0.73391
 Alpha  occ. eigenvalues --   -0.71508  -0.66369  -0.63036  -0.61030  -0.60797
 Alpha  occ. eigenvalues --   -0.60443  -0.55755  -0.54713  -0.52101  -0.50700
 Alpha  occ. eigenvalues --   -0.50317  -0.49761  -0.49236  -0.47576  -0.47338
 Alpha  occ. eigenvalues --   -0.45954  -0.45059  -0.44946  -0.44241  -0.43346
 Alpha  occ. eigenvalues --   -0.43001  -0.42333  -0.41720  -0.40928  -0.40512
 Alpha  occ. eigenvalues --   -0.38922  -0.37874  -0.37458  -0.35555  -0.35174
 Alpha  occ. eigenvalues --   -0.33298  -0.32124  -0.31467  -0.30728  -0.30196
 Alpha  occ. eigenvalues --   -0.29908  -0.28783  -0.26868  -0.24524  -0.23827
 Alpha virt. eigenvalues --   -0.05009  -0.01465  -0.01344   0.00151   0.02704
 Alpha virt. eigenvalues --    0.04053   0.04843   0.05464   0.06193   0.06949
 Alpha virt. eigenvalues --    0.08464   0.09422   0.10149   0.10586   0.12203

 Mulliken charges:
               1
     1  O   -0.449616
     2  C    0.597997
     3  C   -0.386281
     4  C   -0.157111
     5  C   -0.494577
     6  S    1.135330
     7  O   -0.547843
     8  O   -0.506514
     9  C   -0.521623
    10  C    0.031871
    11  N   -0.518708
    12  C    0.273425
    13  N   -0.447789
    14  C    0.284056
    15  C   -0.145319
    16  C   -0.146421
    17  C   -0.117459
    18  C   -0.183382
    19  C   -0.119234
    20  S    0.198104
    21  H    0.192455
    22  H    0.194271
    23  H    0.188469
    24  H    0.207970
    25  H    0.218973
    26  H    0.222885
    27  H    0.231454
    28  H    0.184287
    29  H    0.154237
    30  H    0.139681
    31  H    0.138725
    32  H    0.147686
 Sum of Mulliken charges =  -0.00000

 Dipole moment (field-independent basis, Debye):
    X=             -1.6694    Y=              0.9770    Z=             -2.5071  Tot=              3.1665
 Quadrupole moment (field-independent basis, Debye-Ang):
   XX=           -124.9509   YY=           -140.6280   ZZ=           -128.0423
   XY=             26.4798   XZ=             -3.3190   YZ=              2.0443

 Normal termination of Gaussian 16 at Fri Nov  4 19:11:04 2022.
