 Gaussian 16, Revision B.01,
 Gaussian 16:  ES64L-G16RevB.01 20-Dec-2017

 -------------------------------------------------------------------
 #p b3lyp/6-31g(d) 6D 10F nosymm GFInput td=(50-50,nstate=2) SCF=XQC
 -------------------------------------------------------------------

 ------------------------------
 Gaussian input prepared by ASE
 ------------------------------
 Symbolic Z-matrix:
 Charge =  0 Multiplicity = 1

                          Input orientation:
 ---------------------------------------------------------------------
 Center     Atomic      Atomic             Coordinates (Angstroms)
 Number     Number       Type             X           Y           Z
 ---------------------------------------------------------------------
      1          6           0        7.948237    2.627090   -1.208485
      2          8           0        6.720218    1.962809   -1.454947
      3          6           0        5.974224    1.562007   -0.384188
      4          6           0        6.344739    1.752163    0.952266
      5          6           0        5.487990    1.291190    1.953245
      6          6           0        4.289987    0.654414    1.649542
      7          6           0        3.927444    0.459966    0.302088
      8          7           0        2.712466   -0.205557    0.002298
      9          6           0        2.019245   -1.025131    1.033892
     10          6           0        1.136276   -1.859588    0.125823
     11          6           0        1.822228   -3.012360   -0.601535
     12          6           0        0.842190   -3.686156   -1.205690
     13          6           0       -0.415586   -2.908774   -0.879750
     14          8           0       -0.136468   -2.430287    0.473325
     15          6           0       -0.330872   -1.576237   -1.769877
     16          6           0       -1.686746   -0.881663   -1.936969
     17          8           0       -2.102702   -0.557131   -3.042182
     18          7           0       -2.364380   -0.691903   -0.757926
     19          6           0       -3.627833   -0.093321   -0.563800
     20          6           0       -4.423883    0.439951   -1.583946
     21          6           0       -5.659298    1.012061   -1.293652
     22          6           0       -6.124611    1.062879    0.022002
     23          8           0       -7.350210    1.643162    0.206853
     24          6           0       -7.867757    1.723084    1.521954
     25          6           0       -5.343414    0.535787    1.060179
     26          6           0       -4.104739   -0.035471    0.761930
     27          8           0       -3.262209   -0.575655    1.702178
     28          6           0       -3.675720   -0.601650    3.057650
     29          6           0        0.674418   -0.794463   -0.897895
     30          6           0        1.997033   -0.120981   -1.215221
     31          8           0        2.373591    0.411316   -2.238618
     32          6           0        4.775880    0.915631   -0.712134
     33          1           0        8.650775    1.988783   -0.655856
     34          1           0        7.798341    3.562151   -0.652413
     35          1           0        8.366258    2.855765   -2.190553
     36          1           0        7.271099    2.246894    1.218272
     37          1           0        5.760559    1.439307    2.994802
     38          1           0        3.638192    0.332133    2.453359
     39          1           0        1.427864   -0.407220    1.723313
     40          1           0        2.750915   -1.601415    1.606513
     41          1           0        2.893740   -3.163108   -0.653271
     42          1           0        0.905571   -4.524144   -1.889494
     43          1           0       -1.371933   -3.429134   -0.901027
     44          1           0        0.029547   -1.794116   -2.775477
     45          1           0       -1.929980   -1.045098    0.089617
     46          1           0       -4.060226    0.397327   -2.600974
     47          1           0       -6.277352    1.425618   -2.083457
     48          1           0       -8.007820    0.727433    1.965500
     49          1           0       -8.838541    2.214761    1.433813
     50          1           0       -7.220198    2.320702    2.178562
     51          1           0       -5.689310    0.569641    2.083973
     52          1           0       -2.869210   -1.089928    3.607556
     53          1           0       -4.601838   -1.177484    3.183316
     54          1           0       -3.823155    0.412266    3.452209
     55          1           0        0.110936   -0.048578   -0.320001
     56          1           0        4.516029    0.790260   -1.752898
 ---------------------------------------------------------------------

 SCF Done:  E(RB3LYP) =  -1489.77232045     A.U. after   15 cycles

 Excitation energies and oscillator strengths:

 Excited state symmetry could not be determined.
 Excited State   1:      Triplet-?Sym    3.3722 eV  367.67 nm  f=0.0000  <S**2>=2.000
     112 ->118        -0.11094
     112 ->120        -0.20942
     115 ->116        -0.18766
     115 ->117         0.22540
     115 ->118         0.51004
     115 ->120        -0.24409
     115 ->122         0.15851
 This state for optimization and/or second-order correction.
 Total Energy, E(TD-HF/TD-DFT) =  -1489.64839481
 Copying the excited state density for this state as the 1-particle RhoCI density.

 Excited state symmetry could not be determined.
 Excited State   2:      Triplet-?Sym    3.5825 eV  346.08 nm  f=0.0000  <S**2>=2.000
     113 ->116         0.28378
     113 ->117         0.28146
     113 ->119        -0.28315
     114 ->116         0.27325
     114 ->117         0.19981
     114 ->119         0.29046
     114 ->121        -0.16221

 Excited state symmetry could not be determined.
 Excited State   3:      Singlet-?Sym    4.2243 eV  293.50 nm  f=0.0176  <S**2>=0.000
     115 ->116         0.70143

 Excited state symmetry could not be determined.
 Excited State   4:      Singlet-?Sym    4.5900 eV  270.12 nm  f=0.0797  <S**2>=0.000
     115 ->117         0.68911

 Alpha  occ. eigenvalues --  -19.18862 -19.17464 -19.17426 -19.17386 -19.12895
 Alpha  occ. eigenvalues --  -19.11082 -14.38367 -14.36416 -10.30007 -10.28519
 Alpha  occ. eigenvalues --  -10.26711 -10.26422 -10.25074 -10.25045 -10.24857
 Alpha  occ. eigenvalues --  -10.24618 -10.24234 -10.24119 -10.23909 -10.23625
 Alpha  occ. eigenvalues --  -10.22177 -10.21278 -10.21122 -10.20641 -10.20367
 Alpha  occ. eigenvalues --  -10.19374 -10.18781 -10.18646 -10.18436 -10.17866
 Alpha  occ. eigenvalues --  -10.17648 -10.17315  -1.07413  -1.07312  -1.06108
 Alpha  occ. eigenvalues --   -1.05990  -1.04530  -1.02839  -0.96229  -0.92972
 Alpha  occ. eigenvalues --   -0.85618  -0.84208  -0.82776  -0.79592  -0.78446
 Alpha  occ. eigenvalues --   -0.76071  -0.75643  -0.74195  -0.73281  -0.72076
 Alpha  occ. eigenvalues --   -0.71693  -0.69379  -0.68412  -0.65656  -0.62778
 Alpha  occ. eigenvalues --   -0.61527  -0.60405  -0.59224  -0.59168  -0.56896
 Alpha  occ. eigenvalues --   -0.56681  -0.55726  -0.54913  -0.53375  -0.52588
 Alpha  occ. eigenvalues --   -0.51770  -0.50935  -0.49753  -0.49259  -0.48816
 Alpha  occ. eigenvalues --   -0.48237  -0.47998  -0.47821  -0.47385  -0.46635
 Alpha  occ. eigenvalues --   -0.46596  -0.46186  -0.45316  -0.44495  -0.43649
 Alpha  occ. eigenvalues --   -0.42891  -0.42669  -0.42058  -0.41805  -0.41369
 Alpha  occ. eigenvalues --   -0.41312  -0.40956  -0.40455  -0.39833  -0.39131
 Alpha  occ. eigenvalues --   -0.38843  -0.37544  -0.37355  -0.37194  -0.36981
 Alpha  occ. eigenvalues --   -0.36564  -0.36459  -0.35676  -0.34805  -0.34494
 Alpha  occ. eigenvalues --   -0.34057  -0.32802  -0.32786  -0.32613  -0.31043
 Alpha  occ. eigenvalues --   -0.29048  -0.28739  -0.27403  -0.26797  -0.25049
 Alpha  occ. eigenvalues --   -0.24171  -0.23382  -0.22437  -0.21525  -0.18888
 Alpha virt. eigenvalues --   -0.01755  -0.00521   0.00311   0.00791   0.01333
 Alpha virt. eigenvalues --    0.03491   0.05449   0.07438   0.08256   0.08720
 Alpha virt. eigenvalues --    0.09219   0.10038   0.10513   0.10981   0.11133

 Mulliken charges:
               1
     1  C   -0.214077
     2  O   -0.503625
     3  C    0.375749
     4  C   -0.194814
     5  C   -0.145032
     6  C   -0.188508
     7  C    0.329057
     8  N   -0.574128
     9  C   -0.162487
    10  C    0.230437
    11  C   -0.105775
    12  C   -0.091427
    13  C    0.024627
    14  O   -0.511979
    15  C   -0.196254
    16  C    0.604007
    17  O   -0.508703
    18  N   -0.748380
    19  C    0.300629
    20  C   -0.176047
    21  C   -0.194130
    22  C    0.385542
    23  O   -0.510613
    24  C   -0.210871
    25  C   -0.283429
    26  C    0.335620
    27  O   -0.537050
    28  C   -0.212734
    29  C   -0.215727
    30  C    0.602555
    31  O   -0.484659
    32  C   -0.225820
    33  H    0.149651
    34  H    0.151676
    35  H    0.171396
    36  H    0.129510
    37  H    0.129864
    38  H    0.128837
    39  H    0.167354
    40  H    0.174295
    41  H    0.157369
    42  H    0.155437
    43  H    0.161002
    44  H    0.183270
    45  H    0.367715
    46  H    0.188573
    47  H    0.137617
    48  H    0.146781
    49  H    0.170376
    50  H    0.147220
    51  H    0.132401
    52  H    0.173207
    53  H    0.155496
    54  H    0.154214
    55  H    0.185395
    56  H    0.189384
 Sum of Mulliken charges =  -0.00000

 Dipole moment (field-independent basis, Debye):
    X=              1.1200    Y=             -1.7539    Z=              7.3988  Tot=              7.6859
 Quadrupole moment (field-independent basis, Debye-Ang):
   XX=           -150.9520   YY=           -174.8803   ZZ=           -184.7906
   XY=              4.1366   XZ=            -14.9963   YZ=              8.1914

 Normal termination of Gaussian 16 at Sat Nov  5 12:03:59 2022.
