 Gaussian 16, Revision B.01,
 Gaussian 16:  ES64L-G16RevB.01 20-Dec-2017

 -----------------------------
 #p b3lyp/6-31g(d) opt SCF=XQC
 -----------------------------

 ------------------------------
 Gaussian input prepared by ASE
 ------------------------------
 Symbolic Z-matrix:
 Charge =  0 Multiplicity = 1

 SCF Done:  E(RB3LYP) =  -1489.76478964     A.U. after   15 cycles
 SCF Done:  E(RB3LYP) =  -1489.77146856     A.U. after   12 cycles
 SCF Done:  E(RB3LYP) =  -1489.77208465     A.U. after   11 cycles
 SCF Done:  E(RB3LYP) =  -1489.77221519     A.U. after   11 cycles
 SCF Done:  E(RB3LYP) =  -1489.77228692     A.U. after   10 cycles
 SCF Done:  E(RB3LYP) =  -1489.77230440     A.U. after   10 cycles
 SCF Done:  E(RB3LYP) =  -1489.77231718     A.U. after   10 cycles
 SCF Done:  E(RB3LYP) =  -1489.77232172     A.U. after    9 cycles
 SCF Done:  E(RB3LYP) =  -1489.77232329     A.U. after    8 cycles
 SCF Done:  E(RB3LYP) =  -1489.77232364     A.U. after    7 cycles
 SCF Done:  E(RB3LYP) =  -1489.77232380     A.U. after    7 cycles
 SCF Done:  E(RB3LYP) =  -1489.77232388     A.U. after    7 cycles
 SCF Done:  E(RB3LYP) =  -1489.77232395     A.U. after    6 cycles
 SCF Done:  E(RB3LYP) =  -1489.77232399     A.U. after    6 cycles
 Optimization completed.
    -- Stationary point found.

                         Standard orientation:
 ---------------------------------------------------------------------
 Center     Atomic      Atomic             Coordinates (Angstroms)
 Number     Number       Type             X           Y           Z
 ---------------------------------------------------------------------
      1          6           0       -8.135285   -1.621336   -1.727822
      2          8           0       -6.889662   -0.946170   -1.676666
      3          6           0       -6.070355   -1.178251   -0.609638
      4          6           0       -6.380769   -2.034937    0.453040
      5          6           0       -5.451551   -2.180971    1.484400
      6          6           0       -4.240195   -1.498731    1.474647
      7          6           0       -3.938082   -0.632497    0.405420
      8          7           0       -2.708146    0.071895    0.412812
      9          6           0       -1.922393    0.217726    1.668905
     10          6           0       -1.046372    1.390169    1.270780
     11          6           0       -1.709874    2.763930    1.302576
     12          6           0       -0.729501    3.638697    1.072074
     13          6           0        0.502610    2.785869    0.854945
     14          8           0        0.269687    1.673530    1.774791
     15          6           0        0.305221    2.119422   -0.591444
     16          6           0        1.613997    1.594027   -1.191289
     17          8           0        1.955697    1.890551   -2.329336
     18          7           0        2.340940    0.803471   -0.335768
     19          6           0        3.580944    0.171891   -0.571979
     20          6           0        4.295610    0.240026   -1.773388
     21          6           0        5.513927   -0.418990   -1.912068
     22          6           0        6.043123   -1.159489   -0.852984
     23          8           0        7.245817   -1.770022   -1.084868
     24          6           0        7.825616   -2.535843   -0.045116
     25          6           0        5.343887   -1.242577    0.359481
     26          6           0        4.121867   -0.580062    0.491183
     27          8           0        3.357080   -0.599680    1.631552
     28          6           0        3.840525   -1.294831    2.768221
     29          6           0       -0.692006    1.012704   -0.187900
     30          6           0       -2.061433    0.626812   -0.716427
     31          8           0       -2.516451    0.716208   -1.837785
     32          6           0       -4.859421   -0.475133   -0.635008
     33          1           0       -8.775431   -1.356419   -0.875514
     34          1           0       -8.004288   -2.711375   -1.753909
     35          1           0       -8.614238   -1.294449   -2.652613
     36          1           0       -7.315969   -2.580815    0.485849
     37          1           0       -5.677318   -2.848815    2.311495
     38          1           0       -3.532524   -1.656200    2.280395
     39          1           0       -1.328224   -0.679263    1.890764
     40          1           0       -2.593691    0.419821    2.507866
     41          1           0       -2.773673    2.936511    1.412519
     42          1           0       -0.785666    4.711678    0.932836
     43          1           0        1.481596    3.224777    1.041426
     44          1           0       -0.094995    2.837915   -1.307124
     45          1           0        1.969038    0.666742    0.599526
     46          1           0        3.882749    0.815354   -2.590059
     47          1           0        6.068934   -0.366858   -2.842692
     48          1           0        8.038278   -1.922954    0.841909
     49          1           0        8.764582   -2.923739   -0.444888
     50          1           0        7.183394   -3.378565    0.246408
     51          1           0        5.739823   -1.813702    1.187729
     52          1           0        3.088980   -1.154557    3.547178
     53          1           0        4.799710   -0.885253    3.110687
     54          1           0        3.956791   -2.367284    2.563851
     55          1           0       -0.137844    0.065681   -0.125696
     56          1           0       -4.647445    0.173132   -1.472414
 ---------------------------------------------------------------------

 The electronic state is 1-A.
 Alpha  occ. eigenvalues --  -19.18862 -19.17464 -19.17426 -19.17386 -19.12895
 Alpha  occ. eigenvalues --  -19.11082 -14.38367 -14.36416 -10.30007 -10.28519
 Alpha  occ. eigenvalues --  -10.26711 -10.26422 -10.25074 -10.25045 -10.24857
 Alpha  occ. eigenvalues --  -10.24618 -10.24234 -10.24119 -10.23909 -10.23625
 Alpha  occ. eigenvalues --  -10.22177 -10.21278 -10.21122 -10.20642 -10.20367
 Alpha  occ. eigenvalues --  -10.19374 -10.18781 -10.18646 -10.18436 -10.17866
 Alpha  occ. eigenvalues --  -10.17648 -10.17315  -1.07413  -1.07312  -1.06108
 Alpha  occ. eigenvalues --   -1.05990  -1.04530  -1.02839  -0.96229  -0.92971
 Alpha  occ. eigenvalues --   -0.85618  -0.84208  -0.82776  -0.79592  -0.78446
 Alpha  occ. eigenvalues --   -0.76070  -0.75643  -0.74195  -0.73281  -0.72076
 Alpha  occ. eigenvalues --   -0.71693  -0.69379  -0.68412  -0.65656  -0.62778
 Alpha  occ. eigenvalues --   -0.61527  -0.60405  -0.59224  -0.59168  -0.56896
 Alpha  occ. eigenvalues --   -0.56681  -0.55726  -0.54913  -0.53376  -0.52588
 Alpha  occ. eigenvalues --   -0.51770  -0.50935  -0.49753  -0.49259  -0.48816
 Alpha  occ. eigenvalues --   -0.48237  -0.47998  -0.47821  -0.47385  -0.46635
 Alpha  occ. eigenvalues --   -0.46596  -0.46186  -0.45316  -0.44495  -0.43649
 Alpha  occ. eigenvalues --   -0.42891  -0.42669  -0.42058  -0.41805  -0.41369
 Alpha  occ. eigenvalues --   -0.41312  -0.40956  -0.40455  -0.39833  -0.39131
 Alpha  occ. eigenvalues --   -0.38843  -0.37544  -0.37355  -0.37194  -0.36981
 Alpha  occ. eigenvalues --   -0.36564  -0.36459  -0.35676  -0.34805  -0.34494
 Alpha  occ. eigenvalues --   -0.34057  -0.32802  -0.32786  -0.32613  -0.31043
 Alpha  occ. eigenvalues --   -0.29048  -0.28739  -0.27403  -0.26797  -0.25049
 Alpha  occ. eigenvalues --   -0.24171  -0.23382  -0.22437  -0.21525  -0.18887
 Alpha virt. eigenvalues --   -0.01755  -0.00521   0.00311   0.00791   0.01333
 Alpha virt. eigenvalues --    0.03491   0.05449   0.07438   0.08256   0.08720
 Alpha virt. eigenvalues --    0.09219   0.10038   0.10513   0.10981   0.11133

 Mulliken charges:
               1
     1  C   -0.214080
     2  O   -0.503625
     3  C    0.375750
     4  C   -0.194816
     5  C   -0.145027
     6  C   -0.188508
     7  C    0.329060
     8  N   -0.574112
     9  C   -0.162476
    10  C    0.230408
    11  C   -0.105775
    12  C   -0.091434
    13  C    0.024631
    14  O   -0.511975
    15  C   -0.196238
    16  C    0.604006
    17  O   -0.508700
    18  N   -0.748386
    19  C    0.300639
    20  C   -0.176056
    21  C   -0.194126
    22  C    0.385545
    23  O   -0.510615
    24  C   -0.210866
    25  C   -0.283438
    26  C    0.335605
    27  O   -0.537046
    28  C   -0.212731
    29  C   -0.215727
    30  C    0.602540
    31  O   -0.484655
    32  C   -0.225821
    33  H    0.149653
    34  H    0.151676
    35  H    0.171397
    36  H    0.129509
    37  H    0.129864
    38  H    0.128838
    39  H    0.167351
    40  H    0.174294
    41  H    0.157372
    42  H    0.155438
    43  H    0.161002
    44  H    0.183268
    45  H    0.367728
    46  H    0.188573
    47  H    0.137617
    48  H    0.146779
    49  H    0.170375
    50  H    0.147219
    51  H    0.132406
    52  H    0.173206
    53  H    0.155495
    54  H    0.154212
    55  H    0.185396
    56  H    0.189383
 Sum of Mulliken charges =  -0.00000

 Dipole moment (field-independent basis, Debye):
    X=             -0.6484    Y=             -2.3680    Z=              7.2832  Tot=              7.6859
 Quadrupole moment (field-independent basis, Debye-Ang):
   XX=           -149.1739   YY=           -169.4589   ZZ=           -189.6372
   XY=             -4.4759   XZ=             11.9507   YZ=             -0.5011

 Normal termination of Gaussian 16 at Fri Nov  4 19:21:43 2022.
