 Gaussian 16, Revision B.01,
 Gaussian 16:  ES64L-G16RevB.01 20-Dec-2017

 -----------------------------
 #p b3lyp/6-31g(d) opt SCF=XQC
 -----------------------------

 ------------------------------
 Gaussian input prepared by ASE
 ------------------------------
 Symbolic Z-matrix:
 Charge =  0 Multiplicity = 1

 SCF Done:  E(RB3LYP) =  -1581.64512821     A.U. after   18 cycles
 SCF Done:  E(RB3LYP) =  -1581.65035875     A.U. after   15 cycles
 SCF Done:  E(RB3LYP) =  -1581.65162201     A.U. after   15 cycles
 SCF Done:  E(RB3LYP) =  -1581.65210558     A.U. after   13 cycles
 SCF Done:  E(RB3LYP) =  -1581.65240071     A.U. after   14 cycles
 SCF Done:  E(RB3LYP) =  -1581.65308763     A.U. after   14 cycles
 SCF Done:  E(RB3LYP) =  -1581.65388601     A.U. after   13 cycles
 SCF Done:  E(RB3LYP) =  -1581.65493655     A.U. after   14 cycles
 SCF Done:  E(RB3LYP) =  -1581.65525402     A.U. after   12 cycles
 SCF Done:  E(RB3LYP) =  -1581.65545926     A.U. after   13 cycles
 SCF Done:  E(RB3LYP) =  -1581.65600306     A.U. after   13 cycles
 SCF Done:  E(RB3LYP) =  -1581.65604083     A.U. after   11 cycles
 SCF Done:  E(RB3LYP) =  -1581.65603894     A.U. after   12 cycles
 SCF Done:  E(RB3LYP) =  -1581.65606622     A.U. after   12 cycles
 SCF Done:  E(RB3LYP) =  -1581.65606559     A.U. after   11 cycles
 SCF Done:  E(RB3LYP) =  -1581.65607271     A.U. after   10 cycles
 SCF Done:  E(RB3LYP) =  -1581.65607265     A.U. after    9 cycles
 SCF Done:  E(RB3LYP) =  -1581.65607302     A.U. after    9 cycles
 SCF Done:  E(RB3LYP) =  -1581.65607306     A.U. after    7 cycles
 SCF Done:  E(RB3LYP) =  -1581.65607306     A.U. after    7 cycles
 Optimization completed.
    -- Stationary point found.

                         Standard orientation:
 ---------------------------------------------------------------------
 Center     Atomic      Atomic             Coordinates (Angstroms)
 Number     Number       Type             X           Y           Z
 ---------------------------------------------------------------------
      1          6           0        6.424428    3.217852   -0.443531
      2          6           0        5.279781    2.271919   -0.758395
      3          8           0        4.704354    1.857465    0.493410
      4          6           0        3.642281    0.991680    0.411993
      5          6           0        2.377292    1.435179    0.769951
      6          6           0        1.264668    0.580355    0.778321
      7          6           0        1.442893   -0.753205    0.400419
      8          6           0        2.719142   -1.214539    0.039349
      9          6           0        3.823311   -0.363738    0.045358
     10          8           0        5.096648   -0.735283   -0.273547
     11          6           0        5.350794   -2.102144   -0.599552
     12          6           0        6.838934   -2.240296   -0.868862
     13          6           0        0.297149   -1.749136    0.386278
     14          7           0       -1.003118   -1.093954    0.542129
     15          6           0       -2.093247   -1.758024    0.043034
     16          8           0       -2.013342   -2.879955   -0.452750
     17          6           0       -3.433494   -1.081799    0.036002
     18          6           0       -4.621144   -1.775712    0.145134
     19          6           0       -5.765779   -0.963373   -0.030541
     20          6           0       -5.416703    0.336861   -0.298162
     21          7           0       -6.314953    1.429105   -0.545754
     22          8           0       -7.522486    1.190683   -0.504385
     23          8           0       -5.808773    2.531267   -0.780797
     24         16           0       -3.703228    0.603041   -0.332845
     25          6           0       -1.024116   -0.057135    1.578567
     26          6           0       -0.103046    1.094844    1.179009
     27          1           0        6.888662    3.571691   -1.370787
     28          1           0        6.066024    4.085756    0.119381
     29          1           0        7.186918    2.710067    0.155672
     30          1           0        4.507758    2.772941   -1.360413
     31          1           0        5.633628    1.395951   -1.312861
     32          1           0        2.273959    2.476751    1.063225
     33          1           0        2.836545   -2.255498   -0.243884
     34          1           0        4.763057   -2.390955   -1.482703
     35          1           0        5.041524   -2.744864    0.236779
     36          1           0        7.080467   -3.279586   -1.116195
     37          1           0        7.418426   -1.947994    0.012185
     38          1           0        7.141316   -1.605458   -1.707702
     39          1           0        0.273349   -2.306764   -0.552669
     40          1           0        0.432583   -2.497889    1.184438
     41          1           0       -4.644904   -2.842806    0.329713
     42          1           0       -6.794376   -1.295963    0.024054
     43          1           0       -2.045032    0.284681    1.743523
     44          1           0       -0.673407   -0.504922    2.521032
     45          1           0       -0.015916    1.797715    2.016974
     46          1           0       -0.562502    1.651479    0.349449
 ---------------------------------------------------------------------

 The electronic state is 1-A.
 Alpha  occ. eigenvalues --  -88.94752 -19.18635 -19.18629 -19.18372 -19.15843
 Alpha  occ. eigenvalues --  -19.13073 -14.58299 -14.38109 -10.31107 -10.28054
 Alpha  occ. eigenvalues --  -10.25618 -10.25229 -10.25203 -10.24071 -10.24068
 Alpha  occ. eigenvalues --  -10.23473 -10.23327 -10.23272 -10.22591 -10.20452
 Alpha  occ. eigenvalues --  -10.20387 -10.19930 -10.19432 -10.19123 -10.18971
 Alpha  occ. eigenvalues --  -10.17833  -8.00747  -5.97166  -5.96791  -5.96438
 Alpha  occ. eigenvalues --   -1.23026  -1.07306  -1.05734  -1.05138  -1.04135
 Alpha  occ. eigenvalues --   -0.95505  -0.92226  -0.86114  -0.81473  -0.80084
 Alpha  occ. eigenvalues --   -0.78767  -0.77515  -0.77202  -0.74731  -0.73426
 Alpha  occ. eigenvalues --   -0.71524  -0.68351  -0.66207  -0.64177  -0.62698
 Alpha  occ. eigenvalues --   -0.61119  -0.60019  -0.57795  -0.57183  -0.55897
 Alpha  occ. eigenvalues --   -0.54720  -0.54016  -0.53828  -0.51787  -0.50903
 Alpha  occ. eigenvalues --   -0.50474  -0.50119  -0.49235  -0.48007  -0.47299
 Alpha  occ. eigenvalues --   -0.46206  -0.45679  -0.44595  -0.44415  -0.43750
 Alpha  occ. eigenvalues --   -0.42903  -0.42489  -0.42049  -0.41255  -0.40826
 Alpha  occ. eigenvalues --   -0.40470  -0.39796  -0.39585  -0.39036  -0.38809
 Alpha  occ. eigenvalues --   -0.38450  -0.37748  -0.36733  -0.36442  -0.35774
 Alpha  occ. eigenvalues --   -0.34963  -0.34464  -0.32756  -0.31499  -0.31483
 Alpha  occ. eigenvalues --   -0.31106  -0.29850  -0.28598  -0.28275  -0.27250
 Alpha  occ. eigenvalues --   -0.26247  -0.25521  -0.24100  -0.21577
 Alpha virt. eigenvalues --   -0.10505  -0.03460  -0.00673  -0.00230   0.00693
 Alpha virt. eigenvalues --    0.02325   0.04993   0.08113   0.08580   0.08874
 Alpha virt. eigenvalues --    0.09651   0.10386   0.10781   0.11671   0.11920

 Mulliken charges:
               1
     1  C   -0.455904
     2  C   -0.025424
     3  O   -0.536774
     4  C    0.330421
     5  C   -0.250170
     6  C    0.122369
     7  C    0.089341
     8  C   -0.271695
     9  C    0.359454
    10  O   -0.520491
    11  C   -0.030233
    12  C   -0.458513
    13  C   -0.193329
    14  N   -0.451225
    15  C    0.576596
    16  O   -0.502932
    17  C   -0.215828
    18  C   -0.105055
    19  C   -0.096187
    20  C    0.034219
    21  N    0.391921
    22  O   -0.397621
    23  O   -0.385801
    24  S    0.346056
    25  C   -0.180442
    26  C   -0.339026
    27  H    0.144662
    28  H    0.157923
    29  H    0.161815
    30  H    0.128259
    31  H    0.149799
    32  H    0.131464
    33  H    0.134202
    34  H    0.143025
    35  H    0.143821
    36  H    0.151507
    37  H    0.167739
    38  H    0.162665
    39  H    0.194406
    40  H    0.164428
    41  H    0.180501
    42  H    0.192848
    43  H    0.171615
    44  H    0.161740
    45  H    0.155318
    46  H    0.168537
 Sum of Mulliken charges =  -0.00000

 Dipole moment (field-independent basis, Debye):
    X=              4.4377    Y=             -2.3684    Z=              1.1375  Tot=              5.1571
 Quadrupole moment (field-independent basis, Debye-Ang):
   XX=           -171.3319   YY=           -160.7480   ZZ=           -155.7387
   XY=              8.6046   XZ=            -17.2849   YZ=             -1.5218

 Normal termination of Gaussian 16 at Fri Nov  4 19:29:43 2022.
