 Gaussian 16, Revision B.01,
 Gaussian 16:  ES64L-G16RevB.01 20-Dec-2017

 -------------------------------------------------------------------
 #p b3lyp/6-31g(d) 6D 10F nosymm GFInput td=(50-50,nstate=2) SCF=XQC
 -------------------------------------------------------------------

 ------------------------------
 Gaussian input prepared by ASE
 ------------------------------
 Symbolic Z-matrix:
 Charge =  0 Multiplicity = 1

                          Input orientation:
 ---------------------------------------------------------------------
 Center     Atomic      Atomic             Coordinates (Angstroms)
 Number     Number       Type             X           Y           Z
 ---------------------------------------------------------------------
      1          6           0       -5.749790   -2.078346    1.237989
      2          6           0       -4.462924   -1.739423    0.507747
      3          8           0       -3.823101   -0.673003    1.231125
      4          6           0       -2.630599   -0.226662    0.718361
      5          6           0       -1.457542   -0.473855    1.416827
      6          6           0       -0.216852    0.017936    0.983747
      7          6           0       -0.168841    0.767172   -0.194938
      8          6           0       -1.350001    1.026808   -0.908704
      9          6           0       -2.581646    0.546491   -0.466625
     10          8           0       -3.774959    0.767990   -1.089582
     11          6           0       -3.796061    1.585929   -2.259927
     12          6           0       -5.240297    1.696481   -2.716148
     13          6           0        1.128204    1.343305   -0.733967
     14          7           0        2.299935    0.801416   -0.042845
     15          6           0        3.485185    0.817456   -0.730880
     16          8           0        3.594211    1.320234   -1.847232
     17          6           0        4.692414    0.146367   -0.142808
     18          6           0        5.980191    0.577769   -0.386653
     19          6           0        6.971302   -0.280924    0.143716
     20          6           0        6.407674   -1.369503    0.761294
     21          7           0        7.108625   -2.450352    1.395001
     22          8           0        8.339154   -2.400997    1.402597
     23          8           0        6.423561   -3.351882    1.889123
     24         16           0        4.673771   -1.370565    0.720940
     25          6           0        2.148395    0.729328    1.413683
     26          6           0        1.045605   -0.265886    1.772123
     27          1           0       -6.269068   -2.897837    0.728771
     28          1           0       -5.541370   -2.385231    2.268020
     29          1           0       -6.414537   -1.209082    1.265776
     30          1           0       -3.787648   -2.606812    0.474468
     31          1           0       -4.665475   -1.421563   -0.520795
     32          1           0       -1.530401   -1.055748    2.332059
     33          1           0       -1.291092    1.616737   -1.817612
     34          1           0       -3.170082    1.134045   -3.042713
     35          1           0       -3.381098    2.576443   -2.025670
     36          1           0       -5.303944    2.324891   -3.610958
     37          1           0       -5.858741    2.143354   -1.931721
     38          1           0       -5.647149    0.709205   -2.956698
     39          1           0        1.243435    1.123054   -1.797615
     40          1           0        1.122581    2.442606   -0.647135
     41          1           0        6.183706    1.481107   -0.948687
     42          1           0        8.041335   -0.130922    0.079395
     43          1           0        3.097550    0.458960    1.874471
     44          1           0        1.880221    1.731339    1.782206
     45          1           0        0.843264   -0.211579    2.849116
     46          1           0        1.402901   -1.286251    1.571357
 ---------------------------------------------------------------------

 SCF Done:  E(RB3LYP) =  -1581.65606655     A.U. after   18 cycles

 Excitation energies and oscillator strengths:

 Excited state symmetry could not be determined.
 Excited State   1:      Triplet-?Sym    2.5705 eV  482.34 nm  f=0.0000  <S**2>=2.000
      94 ->100        -0.29375
      96 ->100         0.51145
      96 ->101        -0.10058
      97 ->100        -0.31690
      99 ->100        -0.10151
 This state for optimization and/or second-order correction.
 Total Energy, E(TD-HF/TD-DFT) =  -1581.56160298
 Copying the excited state density for this state as the 1-particle RhoCI density.

 Excited state symmetry could not be determined.
 Excited State   2:      Triplet-?Sym    2.6463 eV  468.51 nm  f=0.0000  <S**2>=2.000
      99 ->100         0.69813

 Excited state symmetry could not be determined.
 Excited State   3:      Singlet-?Sym    2.6476 eV  468.29 nm  f=0.0005  <S**2>=0.000
      99 ->100         0.70635

 Excited state symmetry could not be determined.
 Excited State   4:      Singlet-?Sym    3.2939 eV  376.41 nm  f=0.0035  <S**2>=0.000
      97 ->100        -0.17998
      98 ->100         0.67936

 Alpha  occ. eigenvalues --  -88.94752 -19.18635 -19.18629 -19.18372 -19.15843
 Alpha  occ. eigenvalues --  -19.13073 -14.58299 -14.38109 -10.31107 -10.28054
 Alpha  occ. eigenvalues --  -10.25618 -10.25229 -10.25203 -10.24071 -10.24068
 Alpha  occ. eigenvalues --  -10.23473 -10.23327 -10.23272 -10.22591 -10.20452
 Alpha  occ. eigenvalues --  -10.20387 -10.19930 -10.19432 -10.19123 -10.18971
 Alpha  occ. eigenvalues --  -10.17833  -8.00746  -5.97166  -5.96791  -5.96438
 Alpha  occ. eigenvalues --   -1.23026  -1.07306  -1.05734  -1.05138  -1.04136
 Alpha  occ. eigenvalues --   -0.95505  -0.92226  -0.86114  -0.81473  -0.80084
 Alpha  occ. eigenvalues --   -0.78767  -0.77515  -0.77202  -0.74731  -0.73426
 Alpha  occ. eigenvalues --   -0.71524  -0.68351  -0.66207  -0.64177  -0.62698
 Alpha  occ. eigenvalues --   -0.61119  -0.60019  -0.57795  -0.57183  -0.55897
 Alpha  occ. eigenvalues --   -0.54720  -0.54016  -0.53828  -0.51787  -0.50903
 Alpha  occ. eigenvalues --   -0.50474  -0.50119  -0.49235  -0.48007  -0.47299
 Alpha  occ. eigenvalues --   -0.46206  -0.45679  -0.44595  -0.44415  -0.43750
 Alpha  occ. eigenvalues --   -0.42903  -0.42488  -0.42049  -0.41255  -0.40826
 Alpha  occ. eigenvalues --   -0.40470  -0.39796  -0.39585  -0.39036  -0.38809
 Alpha  occ. eigenvalues --   -0.38450  -0.37748  -0.36733  -0.36442  -0.35774
 Alpha  occ. eigenvalues --   -0.34963  -0.34464  -0.32756  -0.31499  -0.31483
 Alpha  occ. eigenvalues --   -0.31106  -0.29850  -0.28598  -0.28275  -0.27250
 Alpha  occ. eigenvalues --   -0.26247  -0.25521  -0.24100  -0.21577
 Alpha virt. eigenvalues --   -0.10505  -0.03460  -0.00672  -0.00229   0.00693
 Alpha virt. eigenvalues --    0.02325   0.04993   0.08113   0.08580   0.08874
 Alpha virt. eigenvalues --    0.09651   0.10386   0.10781   0.11671   0.11920

 Mulliken charges:
               1
     1  C   -0.455899
     2  C   -0.025425
     3  O   -0.536776
     4  C    0.330444
     5  C   -0.250175
     6  C    0.122349
     7  C    0.089356
     8  C   -0.271710
     9  C    0.359467
    10  O   -0.520499
    11  C   -0.030237
    12  C   -0.458513
    13  C   -0.193327
    14  N   -0.451206
    15  C    0.576572
    16  O   -0.502928
    17  C   -0.215839
    18  C   -0.105049
    19  C   -0.096186
    20  C    0.034215
    21  N    0.391920
    22  O   -0.397621
    23  O   -0.385802
    24  S    0.346078
    25  C   -0.180467
    26  C   -0.339007
    27  H    0.144662
    28  H    0.157922
    29  H    0.161812
    30  H    0.128261
    31  H    0.149797
    32  H    0.131461
    33  H    0.134202
    34  H    0.143026
    35  H    0.143821
    36  H    0.151507
    37  H    0.167739
    38  H    0.162666
    39  H    0.194405
    40  H    0.164428
    41  H    0.180500
    42  H    0.192846
    43  H    0.171620
    44  H    0.161742
    45  H    0.155317
    46  H    0.168531
 Sum of Mulliken charges =  -0.00000

 Dipole moment (field-independent basis, Debye):
    X=             -3.9731    Y=              3.0603    Z=             -1.2024  Tot=              5.1572
 Quadrupole moment (field-independent basis, Debye-Ang):
   XX=           -177.0432   YY=           -163.1717   ZZ=           -158.3834
   XY=             23.2922   XZ=              4.3186   YZ=              4.6424

 Normal termination of Gaussian 16 at Sat Nov  5 11:45:39 2022.
