 Gaussian 16, Revision B.01,
 Gaussian 16:  ES64L-G16RevB.01 20-Dec-2017

 -------------------------------------------------------------------
 #p b3lyp/6-31g(d) 6D 10F nosymm GFInput td=(50-50,nstate=2) SCF=XQC
 -------------------------------------------------------------------

 ------------------------------
 Gaussian input prepared by ASE
 ------------------------------
 Symbolic Z-matrix:
 Charge =  0 Multiplicity = 1

                          Input orientation:
 ---------------------------------------------------------------------
 Center     Atomic      Atomic             Coordinates (Angstroms)
 Number     Number       Type             X           Y           Z
 ---------------------------------------------------------------------
      1          6           0       -7.435545    0.362257    0.963672
      2          8           0       -6.082287    0.000503    1.153990
      3          6           0       -5.375374    0.835412    2.053010
      4          6           0       -4.979391    2.188865    1.468005
      5          8           0       -4.189006    2.022776    0.280913
      6          6           0       -2.849762    1.858208    0.457202
      7          8           0       -2.315064    1.994412    1.554234
      8          6           0       -2.108538    1.553415   -0.761811
      9          6           0       -2.630841    1.312796   -2.013687
     10          6           0       -4.099002    1.176503   -2.335855
     11          7           0       -1.828311    1.193753   -3.131353
     12          6           0       -0.562813    1.464740   -2.975841
     13         16           0        0.557002    1.589486   -4.328033
     14          6           0        1.869824    1.963980   -3.229589
     15          6           0        1.465526    1.985531   -1.941174
     16          6           0        2.346808    2.266910   -0.745649
     17          6           0        3.650632    1.458174   -0.825509
     18          8           0        4.548358    1.799054   -1.586434
     19          7           0        3.687629    0.359672   -0.008671
     20          6           0        4.724342   -0.594963    0.132329
     21          6           0        5.936620   -0.524830   -0.572375
     22          6           0        6.911201   -1.502466   -0.373168
     23          6           0        6.675304   -2.537571    0.521564
     24          9           0        7.624195   -3.481154    0.709304
     25          6           0        5.483089   -2.625975    1.229883
     26          6           0        4.508982   -1.651220    1.032119
     27          7           0        0.094359    1.715565   -1.800789
     28          6           0       -0.602260    1.478669   -0.514730
     29          6           0       -0.137840    0.165165    0.120725
     30          6           0        0.222576    0.122975    1.476937
     31          6           0        0.670489   -1.056017    2.064511
     32          6           0        0.764046   -2.231259    1.302717
     33          8           0        1.242678   -3.326115    1.960762
     34          6           0        1.353939   -4.548345    1.242819
     35          6           0        0.389798   -2.209548   -0.046701
     36          6           0       -0.057869   -1.017509   -0.620281
     37          1           0       -7.883398   -0.411084    0.334222
     38          1           0       -7.550571    1.331998    0.456617
     39          1           0       -7.980619    0.403099    1.920797
     40          1           0       -4.468489    0.287269    2.324302
     41          1           0       -5.960566    1.006456    2.973529
     42          1           0       -4.421174    2.763059    2.212288
     43          1           0       -5.851508    2.763667    1.145978
     44          1           0       -4.188613    0.710305   -3.319702
     45          1           0       -4.579443    2.161247   -2.377426
     46          1           0       -4.634467    0.593723   -1.584210
     47          1           0        2.877419    2.131516   -3.579834
     48          1           0        2.637691    3.322901   -0.739478
     49          1           0        1.812032    2.070348    0.184472
     50          1           0        2.854112    0.170493    0.536865
     51          1           0        6.104416    0.287084   -1.265104
     52          1           0        7.853662   -1.463309   -0.909617
     53          1           0        5.326524   -3.444007    1.925168
     54          1           0        3.573981   -1.717687    1.581360
     55          1           0       -0.333154    2.290504    0.167200
     56          1           0        0.120783    1.019350    2.081659
     57          1           0        0.941749   -1.093986    3.115264
     58          1           0        1.738943   -5.278512    1.956591
     59          1           0        2.053506   -4.457266    0.402084
     60          1           0        0.378258   -4.885023    0.870150
     61          1           0        0.448049   -3.103045   -0.657298
     62          1           0       -0.342616   -1.020946   -1.668925
 ---------------------------------------------------------------------

 SCF Done:  E(RB3LYP) =  -2044.80765807     A.U. after   15 cycles

 Excitation energies and oscillator strengths:

 Excited state symmetry could not be determined.
 Excited State   1:      Triplet-?Sym    2.3813 eV  520.66 nm  f=0.0000  <S**2>=2.000
     134 ->135         0.68939
 This state for optimization and/or second-order correction.
 Total Energy, E(TD-HF/TD-DFT) =  -2044.72014803
 Copying the excited state density for this state as the 1-particle RhoCI density.

 Excited state symmetry could not be determined.
 Excited State   2:      Singlet-?Sym    3.3485 eV  370.27 nm  f=0.2538  <S**2>=0.000
     134 ->135         0.69992

 Excited state symmetry could not be determined.
 Excited State   3:      Triplet-?Sym    3.3884 eV  365.91 nm  f=0.0000  <S**2>=2.000
     126 ->135         0.10597
     130 ->135         0.15324
     131 ->135         0.28458
     131 ->140         0.14008
     132 ->135        -0.13306
     134 ->136         0.26015
     134 ->137         0.19146
     134 ->139        -0.10312
     134 ->140         0.41587

 Excited state symmetry could not be determined.
 Excited State   4:      Singlet-?Sym    4.1075 eV  301.85 nm  f=0.0012  <S**2>=0.000
     134 ->136        -0.34560
     134 ->137         0.60442

 Alpha  occ. eigenvalues --  -88.92253 -24.70183 -19.19190 -19.17895 -19.15055
 Alpha  occ. eigenvalues --  -19.13126 -19.12029 -14.41069 -14.38783 -14.31598
 Alpha  occ. eigenvalues --  -10.30872 -10.30357 -10.29922 -10.26944 -10.26192
 Alpha  occ. eigenvalues --  -10.25927 -10.25422 -10.25113 -10.24300 -10.23832
 Alpha  occ. eigenvalues --  -10.23800 -10.23407 -10.22927 -10.22575 -10.22520
 Alpha  occ. eigenvalues --  -10.20442 -10.20384 -10.20292 -10.20227 -10.20167
 Alpha  occ. eigenvalues --  -10.20080 -10.19912 -10.19770 -10.19515 -10.18903
 Alpha  occ. eigenvalues --  -10.16850  -7.98408  -5.94837  -5.94481  -5.94024
 Alpha  occ. eigenvalues --   -1.21284  -1.08813  -1.07692  -1.05060  -1.03222
 Alpha  occ. eigenvalues --   -1.02504  -0.99717  -0.95137  -0.92365  -0.87278
 Alpha  occ. eigenvalues --   -0.85904  -0.84777  -0.80986  -0.79122  -0.77550
 Alpha  occ. eigenvalues --   -0.76206  -0.76051  -0.75942  -0.74998  -0.73399
 Alpha  occ. eigenvalues --   -0.71067  -0.69763  -0.69591  -0.66853  -0.64604
 Alpha  occ. eigenvalues --   -0.63544  -0.62678  -0.62375  -0.61681  -0.60642
 Alpha  occ. eigenvalues --   -0.59565  -0.58332  -0.55446  -0.55027  -0.54638
 Alpha  occ. eigenvalues --   -0.53855  -0.53387  -0.52351  -0.50776  -0.50037
 Alpha  occ. eigenvalues --   -0.49662  -0.49104  -0.48592  -0.48037  -0.47683
 Alpha  occ. eigenvalues --   -0.47559  -0.47105  -0.46595  -0.46469  -0.45663
 Alpha  occ. eigenvalues --   -0.45541  -0.45139  -0.44744  -0.44637  -0.43679
 Alpha  occ. eigenvalues --   -0.43340  -0.43088  -0.43014  -0.42518  -0.42167
 Alpha  occ. eigenvalues --   -0.41573  -0.41353  -0.40682  -0.40589  -0.40094
 Alpha  occ. eigenvalues --   -0.39628  -0.39447  -0.38801  -0.38263  -0.37993
 Alpha  occ. eigenvalues --   -0.37054  -0.36832  -0.36686  -0.36375  -0.36087
 Alpha  occ. eigenvalues --   -0.34804  -0.33967  -0.33632  -0.33450  -0.32813
 Alpha  occ. eigenvalues --   -0.31739  -0.30741  -0.29927  -0.29239  -0.28010
 Alpha  occ. eigenvalues --   -0.26930  -0.26588  -0.26216  -0.25812  -0.25505
 Alpha  occ. eigenvalues --   -0.25101  -0.23037  -0.22161  -0.19525
 Alpha virt. eigenvalues --   -0.05284  -0.02077  -0.01894  -0.01195  -0.00224
 Alpha virt. eigenvalues --    0.00241   0.00939   0.03853   0.04524   0.07080
 Alpha virt. eigenvalues --    0.07926   0.08523   0.08644   0.09437   0.09962

 Mulliken charges:
               1
     1  C   -0.201047
     2  O   -0.447629
     3  C   -0.045258
     4  C   -0.066120
     5  O   -0.481179
     6  C    0.610983
     7  O   -0.539365
     8  C   -0.019676
     9  C    0.242794
    10  C   -0.501640
    11  N   -0.542642
    12  C    0.302655
    13  S    0.281808
    14  C   -0.420676
    15  C    0.399382
    16  C   -0.447019
    17  C    0.619029
    18  O   -0.507031
    19  N   -0.726034
    20  C    0.345732
    21  C   -0.159524
    22  C   -0.213122
    23  C    0.382356
    24  F   -0.300487
    25  C   -0.208998
    26  C   -0.207092
    27  N   -0.476887
    28  C   -0.141026
    29  C    0.180038
    30  C   -0.201260
    31  C   -0.198256
    32  C    0.385868
    33  O   -0.513509
    34  C   -0.222662
    35  C   -0.192930
    36  C   -0.194366
    37  H    0.162558
    38  H    0.135174
    39  H    0.129403
    40  H    0.172328
    41  H    0.120308
    42  H    0.170208
    43  H    0.150642
    44  H    0.164112
    45  H    0.167879
    46  H    0.183467
    47  H    0.213643
    48  H    0.204149
    49  H    0.173832
    50  H    0.354428
    51  H    0.192973
    52  H    0.150519
    53  H    0.147888
    54  H    0.158422
    55  H    0.171640
    56  H    0.160831
    57  H    0.147738
    58  H    0.174263
    59  H    0.160160
    60  H    0.159131
    61  H    0.142272
    62  H    0.156822
 Sum of Mulliken charges =  -0.00000

 Dipole moment (field-independent basis, Debye):
    X=             -2.0752    Y=             -0.8492    Z=              1.8043  Tot=              2.8781
 Quadrupole moment (field-independent basis, Debye-Ang):
   XX=           -216.4489   YY=           -201.9914   ZZ=           -218.3638
   XY=             -3.8749   XZ=             -6.4192   YZ=              2.9475

 Normal termination of Gaussian 16 at Sat Nov  5 11:58:31 2022.
