 Gaussian 16, Revision B.01,
 Gaussian 16:  ES64L-G16RevB.01 20-Dec-2017

 -----------------------------
 #p b3lyp/6-31g(d) opt SCF=XQC
 -----------------------------

 ------------------------------
 Gaussian input prepared by ASE
 ------------------------------
 Symbolic Z-matrix:
 Charge =  0 Multiplicity = 1

 SCF Done:  E(RB3LYP) =  -2044.78721408     A.U. after   15 cycles
 SCF Done:  E(RB3LYP) =  -2044.79518321     A.U. after   15 cycles
 SCF Done:  E(RB3LYP) =  -2044.79296791     A.U. after   13 cycles
 SCF Done:  E(RB3LYP) =  -2044.80099596     A.U. after   13 cycles
 SCF Done:  E(RB3LYP) =  -2044.80255358     A.U. after   15 cycles
 SCF Done:  E(RB3LYP) =  -2044.80459421     A.U. after   15 cycles
 SCF Done:  E(RB3LYP) =  -2044.80522369     A.U. after   15 cycles
 SCF Done:  E(RB3LYP) =  -2044.80575124     A.U. after   15 cycles
 SCF Done:  E(RB3LYP) =  -2044.80677364     A.U. after   15 cycles
 SCF Done:  E(RB3LYP) =  -2044.80660647     A.U. after   14 cycles
 SCF Done:  E(RB3LYP) =  -2044.80737239     A.U. after   12 cycles
 SCF Done:  E(RB3LYP) =  -2044.80753176     A.U. after   13 cycles
 SCF Done:  E(RB3LYP) =  -2044.80761045     A.U. after   11 cycles
 SCF Done:  E(RB3LYP) =  -2044.80762790     A.U. after   10 cycles
 SCF Done:  E(RB3LYP) =  -2044.80763391     A.U. after   10 cycles
 SCF Done:  E(RB3LYP) =  -2044.80763697     A.U. after    8 cycles
 SCF Done:  E(RB3LYP) =  -2044.80764016     A.U. after    9 cycles
 SCF Done:  E(RB3LYP) =  -2044.80764165     A.U. after    9 cycles
 SCF Done:  E(RB3LYP) =  -2044.80764230     A.U. after    8 cycles
 SCF Done:  E(RB3LYP) =  -2044.80764253     A.U. after    7 cycles
 Optimization completed.
    -- Stationary point found.

                         Standard orientation:
 ---------------------------------------------------------------------
 Center     Atomic      Atomic             Coordinates (Angstroms)
 Number     Number       Type             X           Y           Z
 ---------------------------------------------------------------------
      1          6           0        7.637560   -2.185205    0.589777
      2          8           0        6.237347   -2.318223    0.447994
      3          6           0        5.784756   -2.331430   -0.893656
      4          6           0        5.768306   -0.958153   -1.560519
      5          8           0        4.959685   -0.035647   -0.814463
      6          6           0        3.626274   -0.034611   -1.086025
      7          8           0        3.150927   -0.673229   -2.020982
      8          6           0        2.827384    0.814369   -0.208920
      9          6           0        3.262190    1.504293    0.901413
     10          6           0        4.637982    1.397151    1.512626
     11          7           0        2.454767    2.407089    1.565061
     12          6           0        1.310128    2.688985    1.008786
     13         16           0        0.262652    3.979501    1.587863
     14          6           0       -0.897339    3.630510    0.321786
     15          6           0       -0.499271    2.608453   -0.466172
     16          6           0       -1.268776    2.050574   -1.641649
     17          6           0       -2.742948    1.825173   -1.272328
     18          8           0       -3.516765    2.771998   -1.195865
     19          7           0       -3.073822    0.518409   -1.031095
     20          6           0       -4.329795   -0.012991   -0.648830
     21          6           0       -5.479546    0.774628   -0.478907
     22          6           0       -6.681790    0.173928   -0.106037
     23          6           0       -6.732612   -1.199109    0.093516
     24          9           0       -7.900939   -1.774030    0.454719
     25          6           0       -5.607111   -1.997546   -0.069743
     26          6           0       -4.406099   -1.399682   -0.441593
     27          7           0        0.748064    2.087042   -0.085418
     28          6           0        1.357631    0.849560   -0.626169
     29          6           0        0.556685   -0.382938   -0.196963
     30          6           0        0.201469   -1.360492   -1.139937
     31          6           0       -0.547308   -2.474116   -0.772425
     32          6           0       -0.957085   -2.638802    0.559955
     33          8           0       -1.712510   -3.745905    0.813880
     34          6           0       -2.151941   -3.970288    2.147380
     35          6           0       -0.594076   -1.681882    1.515983
     36          6           0        0.158027   -0.570344    1.129745
     37          1           0        7.858037   -2.288259    1.655426
     38          1           0        8.009446   -1.206394    0.251598
     39          1           0        8.175597   -2.972102    0.036450
     40          1           0        4.764038   -2.723547   -0.863984
     41          1           0        6.396552   -3.014842   -1.508241
     42          1           0        5.387976   -1.048691   -2.581505
     43          1           0        6.762646   -0.504854   -1.582807
     44          1           0        4.595834    1.819282    2.519282
     45          1           0        5.366804    1.972320    0.929298
     46          1           0        4.997585    0.367048    1.542593
     47          1           0       -1.822859    4.178806    0.228138
     48          1           0       -1.263132    2.772716   -2.465207
     49          1           0       -0.804939    1.133952   -2.008263
     50          1           0       -2.321286   -0.158879   -1.086937
     51          1           0       -5.423066    1.841751   -0.637942
     52          1           0       -7.579770    0.767888    0.029558
     53          1           0       -5.676052   -3.068494    0.089711
     54          1           0       -3.522659   -2.019344   -0.567537
     55          1           0        1.319773    0.906176   -1.717903
     56          1           0        0.543368   -1.258019   -2.165678
     57          1           0       -0.816266   -3.236291   -1.497585
     58          1           0       -2.718443   -4.902605    2.120898
     59          1           0       -2.802750   -3.158669    2.497019
     60          1           0       -1.304591   -4.080175    2.835938
     61          1           0       -0.893292   -1.785862    2.552427
     62          1           0        0.428772    0.161386    1.886061
 ---------------------------------------------------------------------

 The electronic state is 1-A.
 Alpha  occ. eigenvalues --  -88.92253 -24.70183 -19.19190 -19.17895 -19.15055
 Alpha  occ. eigenvalues --  -19.13126 -19.12029 -14.41069 -14.38783 -14.31598
 Alpha  occ. eigenvalues --  -10.30872 -10.30357 -10.29922 -10.26944 -10.26192
 Alpha  occ. eigenvalues --  -10.25927 -10.25422 -10.25113 -10.24300 -10.23832
 Alpha  occ. eigenvalues --  -10.23800 -10.23407 -10.22927 -10.22575 -10.22520
 Alpha  occ. eigenvalues --  -10.20441 -10.20384 -10.20292 -10.20227 -10.20167
 Alpha  occ. eigenvalues --  -10.20080 -10.19912 -10.19770 -10.19515 -10.18903
 Alpha  occ. eigenvalues --  -10.16850  -7.98408  -5.94837  -5.94481  -5.94024
 Alpha  occ. eigenvalues --   -1.21284  -1.08813  -1.07692  -1.05060  -1.03221
 Alpha  occ. eigenvalues --   -1.02504  -0.99717  -0.95137  -0.92365  -0.87278
 Alpha  occ. eigenvalues --   -0.85904  -0.84777  -0.80986  -0.79122  -0.77550
 Alpha  occ. eigenvalues --   -0.76206  -0.76051  -0.75942  -0.74998  -0.73399
 Alpha  occ. eigenvalues --   -0.71067  -0.69763  -0.69591  -0.66853  -0.64604
 Alpha  occ. eigenvalues --   -0.63544  -0.62678  -0.62375  -0.61681  -0.60642
 Alpha  occ. eigenvalues --   -0.59565  -0.58332  -0.55446  -0.55027  -0.54638
 Alpha  occ. eigenvalues --   -0.53855  -0.53387  -0.52351  -0.50776  -0.50037
 Alpha  occ. eigenvalues --   -0.49662  -0.49104  -0.48592  -0.48037  -0.47683
 Alpha  occ. eigenvalues --   -0.47559  -0.47105  -0.46595  -0.46469  -0.45663
 Alpha  occ. eigenvalues --   -0.45541  -0.45139  -0.44744  -0.44637  -0.43679
 Alpha  occ. eigenvalues --   -0.43341  -0.43088  -0.43014  -0.42518  -0.42167
 Alpha  occ. eigenvalues --   -0.41573  -0.41353  -0.40682  -0.40589  -0.40094
 Alpha  occ. eigenvalues --   -0.39628  -0.39447  -0.38801  -0.38263  -0.37993
 Alpha  occ. eigenvalues --   -0.37054  -0.36832  -0.36685  -0.36375  -0.36087
 Alpha  occ. eigenvalues --   -0.34804  -0.33967  -0.33632  -0.33450  -0.32813
 Alpha  occ. eigenvalues --   -0.31739  -0.30741  -0.29927  -0.29239  -0.28010
 Alpha  occ. eigenvalues --   -0.26929  -0.26588  -0.26216  -0.25812  -0.25505
 Alpha  occ. eigenvalues --   -0.25101  -0.23037  -0.22161  -0.19525
 Alpha virt. eigenvalues --   -0.05284  -0.02077  -0.01894  -0.01195  -0.00223
 Alpha virt. eigenvalues --    0.00241   0.00939   0.03853   0.04524   0.07081
 Alpha virt. eigenvalues --    0.07926   0.08523   0.08645   0.09437   0.09962

 Mulliken charges:
               1
     1  C   -0.201048
     2  O   -0.447624
     3  C   -0.045268
     4  C   -0.066117
     5  O   -0.481179
     6  C    0.610969
     7  O   -0.539361
     8  C   -0.019662
     9  C    0.242802
    10  C   -0.501638
    11  N   -0.542650
    12  C    0.302674
    13  S    0.281804
    14  C   -0.420673
    15  C    0.399365
    16  C   -0.447000
    17  C    0.619045
    18  O   -0.507032
    19  N   -0.726068
    20  C    0.345775
    21  C   -0.159547
    22  C   -0.213111
    23  C    0.382349
    24  F   -0.300484
    25  C   -0.208997
    26  C   -0.207107
    27  N   -0.476890
    28  C   -0.141070
    29  C    0.180067
    30  C   -0.201255
    31  C   -0.198260
    32  C    0.385871
    33  O   -0.513512
    34  C   -0.222660
    35  C   -0.192935
    36  C   -0.194372
    37  H    0.162559
    38  H    0.135172
    39  H    0.129402
    40  H    0.172328
    41  H    0.120311
    42  H    0.170209
    43  H    0.150643
    44  H    0.164113
    45  H    0.167879
    46  H    0.183467
    47  H    0.213643
    48  H    0.204147
    49  H    0.173830
    50  H    0.354431
    51  H    0.192974
    52  H    0.150518
    53  H    0.147886
    54  H    0.158428
    55  H    0.171642
    56  H    0.160830
    57  H    0.147737
    58  H    0.174263
    59  H    0.160159
    60  H    0.159130
    61  H    0.142272
    62  H    0.156821
 Sum of Mulliken charges =  -0.00000

 Dipole moment (field-independent basis, Debye):
    X=              1.7723    Y=             -2.2617    Z=             -0.1628  Tot=              2.8780
 Quadrupole moment (field-independent basis, Debye-Ang):
   XX=           -211.9965   YY=           -211.9147   ZZ=           -209.8505
   XY=             -2.0361   XZ=            -10.0234   YZ=             -6.3672

 Normal termination of Gaussian 16 at Fri Nov  4 19:50:43 2022.
