 Gaussian 16, Revision B.01,
 Gaussian 16:  ES64L-G16RevB.01 20-Dec-2017

 -----------------------------
 #p b3lyp/6-31g(d) opt SCF=XQC
 -----------------------------

 ------------------------------
 Gaussian input prepared by ASE
 ------------------------------
 Symbolic Z-matrix:
 Charge =  0 Multiplicity = 1

 SCF Done:  E(RB3LYP) =  -1742.91717102     A.U. after   15 cycles
 SCF Done:  E(RB3LYP) =  -1742.92483005     A.U. after   12 cycles
 SCF Done:  E(RB3LYP) =  -1742.92522102     A.U. after   12 cycles
 SCF Done:  E(RB3LYP) =  -1742.92518040     A.U. after   12 cycles
 SCF Done:  E(RB3LYP) =  -1742.92564917     A.U. after   11 cycles
 SCF Done:  E(RB3LYP) =  -1742.92572105     A.U. after   10 cycles
 SCF Done:  E(RB3LYP) =  -1742.92576283     A.U. after   11 cycles
 SCF Done:  E(RB3LYP) =  -1742.92577898     A.U. after   10 cycles
 SCF Done:  E(RB3LYP) =  -1742.92579868     A.U. after   10 cycles
 SCF Done:  E(RB3LYP) =  -1742.92580376     A.U. after   10 cycles
 SCF Done:  E(RB3LYP) =  -1742.92580647     A.U. after   10 cycles
 SCF Done:  E(RB3LYP) =  -1742.92580966     A.U. after    9 cycles
 SCF Done:  E(RB3LYP) =  -1742.92581256     A.U. after   10 cycles
 SCF Done:  E(RB3LYP) =  -1742.92581340     A.U. after    9 cycles
 SCF Done:  E(RB3LYP) =  -1742.92581388     A.U. after    9 cycles
 SCF Done:  E(RB3LYP) =  -1742.92581406     A.U. after    7 cycles
 SCF Done:  E(RB3LYP) =  -1742.92581411     A.U. after    7 cycles
 SCF Done:  E(RB3LYP) =  -1742.92581414     A.U. after    6 cycles
 Optimization completed.
    -- Stationary point found.

                         Standard orientation:
 ---------------------------------------------------------------------
 Center     Atomic      Atomic             Coordinates (Angstroms)
 Number     Number       Type             X           Y           Z
 ---------------------------------------------------------------------
      1          6           0      -10.087454   -1.704895   -1.074126
      2          6           0       -9.157010   -1.764596    0.122883
      3          8           0       -7.809898   -1.910458   -0.380729
      4          6           0       -6.830966   -1.976089    0.551856
      5          8           0       -7.047381   -1.934302    1.745314
      6          6           0       -5.464216   -2.072186   -0.108139
      7          6           0       -4.346135   -2.393853    0.912245
      8          6           0       -3.596884   -1.116109    1.317558
      9          7           0       -2.945003   -0.428873    0.188147
     10          6           0       -1.522472   -0.666797    0.069491
     11          6           0       -0.796771    0.466947   -0.668154
     12          8           0       -1.350722    1.405939   -1.225600
     13          7           0        0.576064    0.364298   -0.692597
     14          7           0        1.250496   -0.725081   -0.188729
     15          6           0        2.489489   -0.662563   -0.556583
     16          6           0        3.469808   -1.678983   -0.173526
     17          6           0        3.114617   -2.757483    0.643863
     18          6           0        4.057890   -3.722295    0.995406
     19          6           0        5.375413   -3.634346    0.541149
     20          8           0        6.364569   -4.521448    0.828904
     21          6           0        6.047714   -5.630282    1.655209
     22          6           0        5.749320   -2.545750   -0.287498
     23          8           0        7.052608   -2.535227   -0.685873
     24          6           0        7.488739   -1.470402   -1.512749
     25          6           0        4.801557   -1.588018   -0.632257
     26          6           0        2.788423    0.545361   -1.430302
     27          6           0        1.455972    1.338899   -1.393873
     28          6           0        1.527120    2.675254   -0.678685
     29          6           0        0.984089    3.819896   -1.261565
     30          6           0        1.039587    5.063359   -0.627329
     31          6           0        1.646641    5.173354    0.629070
     32          8           0        1.784534    6.328724    1.344537
     33          6           0        1.206495    7.542828    0.858639
     34          6           0       -0.290646    7.632809    1.136640
     35          6           0        2.185008    4.026059    1.233145
     36          6           0        2.124220    2.799488    0.586207
     37          6           0       -3.653121   -0.591562   -1.088838
     38          6           0       -5.156906   -0.747377   -0.866367
     39          1           0      -11.123433   -1.594057   -0.735432
     40          1           0       -9.842468   -0.853983   -1.717933
     41          1           0      -10.016154   -2.619808   -1.671189
     42          1           0       -9.210732   -0.855965    0.731403
     43          1           0       -9.383170   -2.612574    0.777599
     44          1           0       -5.528540   -2.874597   -0.853625
     45          1           0       -3.640727   -3.105417    0.466284
     46          1           0       -4.775801   -2.868017    1.799841
     47          1           0       -2.838327   -1.345256    2.072817
     48          1           0       -4.310476   -0.431735    1.797069
     49          1           0       -1.076901   -0.749622    1.065647
     50          1           0       -1.272640   -1.614821   -0.450339
     51          1           0        2.095098   -2.837529    1.004374
     52          1           0        3.757538   -4.547665    1.630627
     53          1           0        5.711229   -5.309426    2.649969
     54          1           0        5.275573   -6.265006    1.200608
     55          1           0        6.972815   -6.200905    1.753364
     56          1           0        8.546565   -1.657581   -1.705811
     57          1           0        7.377962   -0.498066   -1.013717
     58          1           0        6.944624   -1.449070   -2.466867
     59          1           0        5.090500   -0.758047   -1.265348
     60          1           0        3.052162    0.229100   -2.447295
     61          1           0        3.623560    1.141180   -1.049549
     62          1           0        1.048901    1.497811   -2.395505
     63          1           0        0.486628    3.741802   -2.224469
     64          1           0        0.598015    5.924017   -1.116090
     65          1           0        1.429034    7.669283   -0.208886
     66          1           0        1.740759    8.329659    1.399267
     67          1           0       -0.482204    7.532076    2.209665
     68          1           0       -0.847917    6.848220    0.616143
     69          1           0       -0.675798    8.604611    0.806239
     70          1           0        2.646034    4.124895    2.210985
     71          1           0        2.540378    1.924385    1.080084
     72          1           0       -3.443561    0.279793   -1.714397
     73          1           0       -3.282648   -1.481542   -1.641402
     74          1           0       -5.517657    0.114171   -0.290789
     75          1           0       -5.685918   -0.732551   -1.823715
 ---------------------------------------------------------------------

 The electronic state is 1-A.
 Alpha  occ. eigenvalues --  -19.18226 -19.18151 -19.18000 -19.17058 -19.12710
 Alpha  occ. eigenvalues --  -19.10603 -14.38478 -14.36394 -14.30752 -10.30241
 Alpha  occ. eigenvalues --  -10.27600 -10.25172 -10.25037 -10.24410 -10.24400
 Alpha  occ. eigenvalues --  -10.24341 -10.24166 -10.23837 -10.23436 -10.23122
 Alpha  occ. eigenvalues --  -10.20477 -10.20454 -10.20023 -10.19478 -10.19454
 Alpha  occ. eigenvalues --  -10.19417 -10.19240 -10.19080 -10.18809 -10.18665
 Alpha  occ. eigenvalues --  -10.18554 -10.18499 -10.18299 -10.18251 -10.18102
 Alpha  occ. eigenvalues --  -10.18066 -10.17980 -10.17256  -1.09069  -1.07791
 Alpha  occ. eigenvalues --   -1.05814  -1.05584  -1.04442  -1.00336  -0.99997
 Alpha  occ. eigenvalues --   -0.90870  -0.86489  -0.85155  -0.83264  -0.80547
 Alpha  occ. eigenvalues --   -0.79834  -0.76904  -0.76744  -0.76557  -0.75346
 Alpha  occ. eigenvalues --   -0.74036  -0.73943  -0.72170  -0.71562  -0.70950
 Alpha  occ. eigenvalues --   -0.69782  -0.66526  -0.65020  -0.63467  -0.62476
 Alpha  occ. eigenvalues --   -0.62223  -0.61021  -0.60688  -0.60129  -0.57804
 Alpha  occ. eigenvalues --   -0.57364  -0.55979  -0.54379  -0.53872  -0.52699
 Alpha  occ. eigenvalues --   -0.52433  -0.51165  -0.50811  -0.50016  -0.49783
 Alpha  occ. eigenvalues --   -0.48800  -0.48553  -0.47808  -0.47753  -0.47613
 Alpha  occ. eigenvalues --   -0.46557  -0.46236  -0.45724  -0.45616  -0.45179
 Alpha  occ. eigenvalues --   -0.44922  -0.44654  -0.44277  -0.43785  -0.43353
 Alpha  occ. eigenvalues --   -0.42960  -0.42161  -0.41563  -0.41258  -0.41241
 Alpha  occ. eigenvalues --   -0.40749  -0.40388  -0.39867  -0.39626  -0.39298
 Alpha  occ. eigenvalues --   -0.39182  -0.39169  -0.38848  -0.38301  -0.37876
 Alpha  occ. eigenvalues --   -0.37422  -0.37119  -0.36511  -0.36436  -0.36236
 Alpha  occ. eigenvalues --   -0.35843  -0.35793  -0.34995  -0.34505  -0.34217
 Alpha  occ. eigenvalues --   -0.33776  -0.33389  -0.32814  -0.32707  -0.32011
 Alpha  occ. eigenvalues --   -0.31963  -0.31608  -0.31526  -0.31254  -0.31103
 Alpha  occ. eigenvalues --   -0.29195  -0.29026  -0.26003  -0.25086  -0.24729
 Alpha  occ. eigenvalues --   -0.24188  -0.22865  -0.21015  -0.19241  -0.18744
 Alpha virt. eigenvalues --   -0.04019   0.00268   0.00617   0.01254   0.02134
 Alpha virt. eigenvalues --    0.03937   0.05600   0.07939   0.08774   0.09263
 Alpha virt. eigenvalues --    0.09615   0.10186   0.10260   0.10780   0.11515

 Mulliken charges:
               1
     1  C   -0.460260
     2  C   -0.031035
     3  O   -0.467256
     4  C    0.619045
     5  O   -0.486065
     6  C   -0.170289
     7  C   -0.281596
     8  C   -0.141014
     9  N   -0.378575
    10  C   -0.209516
    11  C    0.593703
    12  O   -0.505087
    13  N   -0.301015
    14  N   -0.342562
    15  C    0.282501
    16  C    0.134744
    17  C   -0.187713
    18  C   -0.202808
    19  C    0.343240
    20  O   -0.495320
    21  C   -0.216872
    22  C    0.344101
    23  O   -0.501417
    24  C   -0.214259
    25  C   -0.286979
    26  C   -0.399811
    27  C   -0.056201
    28  C    0.198573
    29  C   -0.181670
    30  C   -0.194482
    31  C    0.380042
    32  O   -0.521619
    33  C   -0.037042
    34  C   -0.463695
    35  C   -0.176205
    36  C   -0.196273
    37  C   -0.124130
    38  C   -0.298014
    39  H    0.151259
    40  H    0.161402
    41  H    0.160213
    42  H    0.158419
    43  H    0.157683
    44  H    0.152345
    45  H    0.134528
    46  H    0.161812
    47  H    0.133279
    48  H    0.152941
    49  H    0.172753
    50  H    0.140693
    51  H    0.151858
    52  H    0.136986
    53  H    0.154054
    54  H    0.153773
    55  H    0.173395
    56  H    0.173054
    57  H    0.151285
    58  H    0.150202
    59  H    0.135424
    60  H    0.172142
    61  H    0.176152
    62  H    0.161974
    63  H    0.139141
    64  H    0.132748
    65  H    0.141390
    66  H    0.154911
    67  H    0.164459
    68  H    0.169729
    69  H    0.146814
    70  H    0.136626
    71  H    0.134485
    72  H    0.177740
    73  H    0.097185
    74  H    0.157522
    75  H    0.152454
 Sum of Mulliken charges =  -0.00000

 Dipole moment (field-independent basis, Debye):
    X=              2.6117    Y=             -0.5038    Z=             -2.0111  Tot=              3.3346
 Quadrupole moment (field-independent basis, Debye-Ang):
   XX=           -200.0864   YY=           -191.4376   ZZ=           -220.1737
   XY=             -1.1017   XZ=              6.1753   YZ=             -6.6355

 Normal termination of Gaussian 16 at Fri Nov  4 19:36:42 2022.
