 Gaussian 16, Revision B.01,
 Gaussian 16:  ES64L-G16RevB.01 20-Dec-2017

 -------------------------------------------------------------------
 #p b3lyp/6-31g(d) 6D 10F nosymm GFInput td=(50-50,nstate=2) SCF=XQC
 -------------------------------------------------------------------

 ------------------------------
 Gaussian input prepared by ASE
 ------------------------------
 Symbolic Z-matrix:
 Charge =  0 Multiplicity = 1

                          Input orientation:
 ---------------------------------------------------------------------
 Center     Atomic      Atomic             Coordinates (Angstroms)
 Number     Number       Type             X           Y           Z
 ---------------------------------------------------------------------
      1          6           0       10.023977    0.578698    0.144696
      2          6           0        9.027316    0.280769   -0.959851
      3          8           0        7.803308   -0.163839   -0.332365
      4          6           0        6.785337   -0.473529   -1.169117
      5          8           0        6.875665   -0.406403   -2.377529
      6          6           0        5.545061   -0.871187   -0.383994
      7          6           0        4.443988   -1.463921   -1.295620
      8          6           0        3.383683   -0.403396   -1.626265
      9          7           0        2.696004    0.136042   -0.439288
     10          6           0        1.385129   -0.423268   -0.188166
     11          6           0        0.486002    0.525445    0.616601
     12          8           0        0.854607    1.578303    1.121510
     13          7           0       -0.816925    0.107348    0.769536
     14          7           0       -1.262213   -1.118664    0.328970
     15          6           0       -2.442557   -1.338227    0.811575
     16          6           0       -3.189908   -2.561910    0.520134
     17          6           0       -2.669671   -3.544516   -0.329152
     18          6           0       -3.390292   -4.708782   -0.592590
     19          6           0       -4.644666   -4.920127   -0.016543
     20          8           0       -5.421967   -6.018206   -0.212013
     21          6           0       -4.932593   -7.039390   -1.066640
     22          6           0       -5.184343   -3.931825    0.845728
     23          8           0       -6.412017   -4.216272    1.364647
     24          6           0       -7.006558   -3.265569    2.230945
     25          6           0       -4.458347   -2.773537    1.101976
     26          6           0       -2.933323   -0.215577    1.711926
     27          6           0       -1.831595    0.864770    1.552243
     28          6           0       -2.277483    2.133571    0.849587
     29          6           0       -1.965040    3.384389    1.381256
     30          6           0       -2.366705    4.568102    0.757538
     31          6           0       -3.095273    4.509103   -0.436137
     32          8           0       -3.563629    5.586400   -1.133175
     33          6           0       -3.242375    6.910964   -0.701204
     34          6           0       -1.839406    7.340556   -1.118265
     35          6           0       -3.404526    3.256366   -0.989351
     36          6           0       -3.000510    2.090561   -0.353450
     37          6           0        3.536583    0.167675    0.765294
     38          6           0        5.008356    0.360886    0.402397
     39          1           0       10.970053    0.920285   -0.289480
     40          1           0        9.647550    1.362115    0.810367
     41          1           0       10.222912   -0.315693    0.743965
     42          1           0        8.811776    1.164740   -1.568891
     43          1           0        9.383832   -0.504384   -1.634610
     44          1           0        5.862694   -1.621727    0.350546
     45          1           0        3.967776   -2.310804   -0.786880
     46          1           0        4.889057   -1.842935   -2.220570
     47          1           0        2.633431   -0.817400   -2.307483
     48          1           0        3.871077    0.418278   -2.169231
     49          1           0        0.881699   -0.627103   -1.138288
     50          1           0        1.411854   -1.392848    0.350894
     51          1           0       -1.697049   -3.392811   -0.783890
     52          1           0       -2.965428   -5.454333   -1.254855
     53          1           0       -4.772831   -6.669044   -2.087932
     54          1           0       -3.995452   -7.468302   -0.687774
     55          1           0       -5.704242   -7.811056   -1.078717
     56          1           0       -7.969351   -3.689368    2.522027
     57          1           0       -7.171665   -2.304219    1.725685
     58          1           0       -6.397250   -3.099490    3.129843
     59          1           0       -4.873433   -2.020903    1.761059
     60          1           0       -3.021689   -0.564121    2.748537
     61          1           0       -3.915614    0.162345    1.412413
     62          1           0       -1.382667    1.133766    2.511582
     63          1           0       -1.376924    3.443122    2.293078
     64          1           0       -2.094943    5.517323    1.204450
     65          1           0       -3.389388    7.003519    0.382745
     66          1           0       -3.992555    7.541316   -1.187729
     67          1           0       -1.728886    7.265711   -2.204731
     68          1           0       -1.069321    6.717325   -0.653936
     69          1           0       -1.662689    8.381607   -0.823496
     70          1           0       -3.963572    3.225967   -1.919420
     71          1           0       -3.244772    1.133092   -0.807869
     72          1           0        3.188015    0.978835    1.409514
     73          1           0        3.435986   -0.772821    1.348381
     74          1           0        5.104054    1.271017   -0.202748
     75          1           0        5.604855    0.517196    1.305916
 ---------------------------------------------------------------------

 SCF Done:  E(RB3LYP) =  -1742.92580518     A.U. after   16 cycles

 Excitation energies and oscillator strengths:

 Excited state symmetry could not be determined.
 Excited State   1:      Triplet-?Sym    2.3736 eV  522.36 nm  f=0.0000  <S**2>=2.000
     139 ->141         0.59008
     140 ->141        -0.33556
 This state for optimization and/or second-order correction.
 Total Energy, E(TD-HF/TD-DFT) =  -1742.83857875
 Copying the excited state density for this state as the 1-particle RhoCI density.

 Excited state symmetry could not be determined.
 Excited State   2:      Triplet-?Sym    3.4253 eV  361.97 nm  f=0.0000  <S**2>=2.000
     137 ->141        -0.11296
     139 ->141         0.34744
     140 ->141         0.58766

 Excited state symmetry could not be determined.
 Excited State   3:      Singlet-?Sym    3.4565 eV  358.70 nm  f=0.0117  <S**2>=0.000
     139 ->141         0.21178
     140 ->141         0.67079

 Excited state symmetry could not be determined.
 Excited State   4:      Singlet-?Sym    3.8611 eV  321.11 nm  f=0.6747  <S**2>=0.000
     138 ->141         0.11873
     139 ->141         0.65774
     140 ->141        -0.21011

 Alpha  occ. eigenvalues --  -19.18226 -19.18151 -19.18000 -19.17058 -19.12710
 Alpha  occ. eigenvalues --  -19.10603 -14.38478 -14.36394 -14.30752 -10.30241
 Alpha  occ. eigenvalues --  -10.27600 -10.25172 -10.25037 -10.24410 -10.24400
 Alpha  occ. eigenvalues --  -10.24341 -10.24166 -10.23837 -10.23436 -10.23121
 Alpha  occ. eigenvalues --  -10.20477 -10.20454 -10.20023 -10.19478 -10.19453
 Alpha  occ. eigenvalues --  -10.19417 -10.19240 -10.19080 -10.18809 -10.18665
 Alpha  occ. eigenvalues --  -10.18554 -10.18500 -10.18299 -10.18251 -10.18102
 Alpha  occ. eigenvalues --  -10.18066 -10.17980 -10.17256  -1.09069  -1.07791
 Alpha  occ. eigenvalues --   -1.05814  -1.05584  -1.04442  -1.00336  -0.99997
 Alpha  occ. eigenvalues --   -0.90870  -0.86489  -0.85155  -0.83264  -0.80547
 Alpha  occ. eigenvalues --   -0.79834  -0.76904  -0.76744  -0.76557  -0.75345
 Alpha  occ. eigenvalues --   -0.74036  -0.73943  -0.72170  -0.71562  -0.70950
 Alpha  occ. eigenvalues --   -0.69782  -0.66526  -0.65020  -0.63468  -0.62476
 Alpha  occ. eigenvalues --   -0.62223  -0.61021  -0.60688  -0.60129  -0.57804
 Alpha  occ. eigenvalues --   -0.57364  -0.55979  -0.54379  -0.53872  -0.52699
 Alpha  occ. eigenvalues --   -0.52433  -0.51165  -0.50811  -0.50016  -0.49783
 Alpha  occ. eigenvalues --   -0.48800  -0.48553  -0.47808  -0.47753  -0.47613
 Alpha  occ. eigenvalues --   -0.46557  -0.46236  -0.45724  -0.45616  -0.45179
 Alpha  occ. eigenvalues --   -0.44922  -0.44654  -0.44277  -0.43785  -0.43353
 Alpha  occ. eigenvalues --   -0.42960  -0.42161  -0.41563  -0.41258  -0.41241
 Alpha  occ. eigenvalues --   -0.40749  -0.40388  -0.39867  -0.39626  -0.39298
 Alpha  occ. eigenvalues --   -0.39182  -0.39169  -0.38848  -0.38301  -0.37876
 Alpha  occ. eigenvalues --   -0.37422  -0.37119  -0.36511  -0.36436  -0.36236
 Alpha  occ. eigenvalues --   -0.35843  -0.35793  -0.34995  -0.34505  -0.34217
 Alpha  occ. eigenvalues --   -0.33776  -0.33389  -0.32814  -0.32707  -0.32011
 Alpha  occ. eigenvalues --   -0.31963  -0.31609  -0.31526  -0.31254  -0.31103
 Alpha  occ. eigenvalues --   -0.29195  -0.29026  -0.26003  -0.25086  -0.24729
 Alpha  occ. eigenvalues --   -0.24188  -0.22865  -0.21015  -0.19241  -0.18745
 Alpha virt. eigenvalues --   -0.04019   0.00268   0.00617   0.01254   0.02134
 Alpha virt. eigenvalues --    0.03937   0.05600   0.07939   0.08774   0.09263
 Alpha virt. eigenvalues --    0.09615   0.10186   0.10260   0.10780   0.11515

 Mulliken charges:
               1
     1  C   -0.460259
     2  C   -0.031035
     3  O   -0.467260
     4  C    0.619049
     5  O   -0.486065
     6  C   -0.170293
     7  C   -0.281603
     8  C   -0.140992
     9  N   -0.378573
    10  C   -0.209525
    11  C    0.593701
    12  O   -0.505080
    13  N   -0.301021
    14  N   -0.342573
    15  C    0.282513
    16  C    0.134764
    17  C   -0.187742
    18  C   -0.202788
    19  C    0.343231
    20  O   -0.495321
    21  C   -0.216865
    22  C    0.344104
    23  O   -0.501424
    24  C   -0.214261
    25  C   -0.286973
    26  C   -0.399808
    27  C   -0.056211
    28  C    0.198562
    29  C   -0.181663
    30  C   -0.194463
    31  C    0.380023
    32  O   -0.521618
    33  C   -0.037047
    34  C   -0.463689
    35  C   -0.176207
    36  C   -0.196265
    37  C   -0.124141
    38  C   -0.298004
    39  H    0.151259
    40  H    0.161402
    41  H    0.160213
    42  H    0.158419
    43  H    0.157683
    44  H    0.152345
    45  H    0.134527
    46  H    0.161812
    47  H    0.133276
    48  H    0.152938
    49  H    0.172750
    50  H    0.140697
    51  H    0.151867
    52  H    0.136984
    53  H    0.154053
    54  H    0.153772
    55  H    0.173394
    56  H    0.173055
    57  H    0.151285
    58  H    0.150202
    59  H    0.135419
    60  H    0.172140
    61  H    0.176150
    62  H    0.161974
    63  H    0.139140
    64  H    0.132746
    65  H    0.141391
    66  H    0.154911
    67  H    0.164458
    68  H    0.169728
    69  H    0.146813
    70  H    0.136627
    71  H    0.134489
    72  H    0.177742
    73  H    0.097186
    74  H    0.157521
    75  H    0.152452
 Sum of Mulliken charges =  -0.00000

 Dipole moment (field-independent basis, Debye):
    X=             -2.2266    Y=             -1.0563    Z=              2.2463  Tot=              3.3346
 Quadrupole moment (field-independent basis, Debye-Ang):
   XX=           -198.4108   YY=           -190.8359   ZZ=           -221.0110
   XY=              0.3263   XZ=              1.9584   YZ=              7.0474

 Normal termination of Gaussian 16 at Sat Nov  5 11:59:53 2022.
