 Gaussian 16, Revision B.01,
 Gaussian 16:  ES64L-G16RevB.01 20-Dec-2017

 -----------------------------
 #p b3lyp/6-31g(d) opt SCF=XQC
 -----------------------------

 ------------------------------
 Gaussian input prepared by ASE
 ------------------------------
 Symbolic Z-matrix:
 Charge =  0 Multiplicity = 1

 SCF Done:  E(RB3LYP) =  -1475.39429075     A.U. after   15 cycles
 SCF Done:  E(RB3LYP) =  -1475.39336008     A.U. after   15 cycles
 SCF Done:  E(RB3LYP) =  -1475.39982661     A.U. after   14 cycles
 SCF Done:  E(RB3LYP) =  -1475.39754154     A.U. after   15 cycles
 SCF Done:  E(RB3LYP) =  -1475.40171903     A.U. after   12 cycles
 SCF Done:  E(RB3LYP) =  -1475.40225198     A.U. after   13 cycles
 SCF Done:  E(RB3LYP) =  -1475.40268364     A.U. after   13 cycles
 SCF Done:  E(RB3LYP) =  -1475.40285049     A.U. after   11 cycles
 SCF Done:  E(RB3LYP) =  -1475.40293666     A.U. after   12 cycles
 SCF Done:  E(RB3LYP) =  -1475.40299421     A.U. after   10 cycles
 SCF Done:  E(RB3LYP) =  -1475.40327042     A.U. after   10 cycles
 SCF Done:  E(RB3LYP) =  -1475.40322363     A.U. after   12 cycles
 SCF Done:  E(RB3LYP) =  -1475.40331960     A.U. after   12 cycles
 SCF Done:  E(RB3LYP) =  -1475.40332969     A.U. after   10 cycles
 SCF Done:  E(RB3LYP) =  -1475.40333795     A.U. after    9 cycles
 SCF Done:  E(RB3LYP) =  -1475.40334677     A.U. after   10 cycles
 SCF Done:  E(RB3LYP) =  -1475.40335014     A.U. after   10 cycles
 SCF Done:  E(RB3LYP) =  -1475.40335079     A.U. after    9 cycles
 SCF Done:  E(RB3LYP) =  -1475.40335096     A.U. after    8 cycles
 SCF Done:  E(RB3LYP) =  -1475.40335099     A.U. after    7 cycles
 Optimization completed.
    -- Stationary point found.

                         Standard orientation:
 ---------------------------------------------------------------------
 Center     Atomic      Atomic             Coordinates (Angstroms)
 Number     Number       Type             X           Y           Z
 ---------------------------------------------------------------------
      1          6           0        7.194623   -1.932795    0.124932
      2          6           0        5.877071   -1.196085    0.134868
      3          6           0        4.714733   -1.831242    0.581090
      4          6           0        3.480136   -1.184644    0.612244
      5          6           0        3.405157    0.135707    0.168439
      6          7           0        2.169351    0.850774    0.180187
      7          7           0        2.183153    2.211760    0.249225
      8          6           0        0.919213    2.613423    0.214279
      9          6           0        0.043458    1.511185    0.122161
     10          6           0        0.883172    0.385777    0.097150
     11          7           0        0.493227   -0.920184   -0.016257
     12          6           0       -0.782831   -1.122443   -0.084439
     13          7           0       -1.711553   -0.094273   -0.045027
     14          6           0       -3.096400   -0.075025   -0.106078
     15         16           0       -4.056842   -1.544810   -0.216517
     16          6           0       -5.604349   -0.884778   -0.980864
     17          6           0       -6.650150   -0.396888    0.035415
     18          7           0       -6.407731    0.835441    0.548280
     19          8           0       -7.625573   -1.084321    0.301368
     20          7           0       -3.515801    1.168101   -0.060115
     21          7           0       -2.428906    2.021237    0.021873
     22          6           0       -1.355443    1.266647    0.041339
     23          6           0        4.553971    0.792143   -0.284517
     24          6           0        5.789549    0.144263   -0.302201
     25          6           0        7.013716    0.880203   -0.793605
     26          1           0        7.944736   -1.432189    0.750856
     27          1           0        7.077918   -2.954588    0.498139
     28          1           0        7.618742   -1.993107   -0.885843
     29          1           0        4.773788   -2.860989    0.924954
     30          1           0        2.597408   -1.700735    0.966059
     31          1           0        0.683598    3.667254    0.262806
     32          1           0       -1.180618   -2.127376   -0.183658
     33          1           0       -5.318611   -0.107656   -1.694400
     34          1           0       -6.034735   -1.736496   -1.509485
     35          1           0       -5.509714    1.293854    0.397793
     36          1           0       -7.020189    1.162360    1.282714
     37          1           0        4.472365    1.820913   -0.616005
     38          1           0        6.766329    1.902390   -1.093880
     39          1           0        7.788487    0.937558   -0.018235
     40          1           0        7.468621    0.377672   -1.656929
 ---------------------------------------------------------------------

 The electronic state is 1-A.
 Alpha  occ. eigenvalues --  -88.92348 -19.10961 -14.44788 -14.44243 -14.38107
 Alpha  occ. eigenvalues --  -14.37912 -14.37860 -14.36388 -14.34496 -10.31288
 Alpha  occ. eigenvalues --  -10.30353 -10.29037 -10.28757 -10.28521 -10.24485
 Alpha  occ. eigenvalues --  -10.24065 -10.23685 -10.22731 -10.20618 -10.20431
 Alpha  occ. eigenvalues --  -10.19897 -10.19697 -10.19656 -10.19199 -10.19128
 Alpha  occ. eigenvalues --   -7.98414  -5.94962  -5.94531  -5.93878  -1.09842
 Alpha  occ. eigenvalues --   -1.07789  -1.02762  -1.00668  -0.93529  -0.89869
 Alpha  occ. eigenvalues --   -0.89202  -0.86987  -0.84791  -0.82376  -0.79598
 Alpha  occ. eigenvalues --   -0.77875  -0.76878  -0.71731  -0.71461  -0.70957
 Alpha  occ. eigenvalues --   -0.68973  -0.68148  -0.64225  -0.62508  -0.60820
 Alpha  occ. eigenvalues --   -0.59285  -0.58176  -0.57335  -0.55176  -0.53306
 Alpha  occ. eigenvalues --   -0.52499  -0.51421  -0.50018  -0.49576  -0.48662
 Alpha  occ. eigenvalues --   -0.48398  -0.47440  -0.46811  -0.45370  -0.45196
 Alpha  occ. eigenvalues --   -0.44075  -0.43331  -0.42735  -0.41860  -0.40937
 Alpha  occ. eigenvalues --   -0.40701  -0.40203  -0.39576  -0.39510  -0.39312
 Alpha  occ. eigenvalues --   -0.37024  -0.36179  -0.35785  -0.34912  -0.34643
 Alpha  occ. eigenvalues --   -0.33635  -0.33358  -0.32213  -0.30686  -0.29786
 Alpha  occ. eigenvalues --   -0.28750  -0.27750  -0.26096  -0.25375  -0.24837
 Alpha  occ. eigenvalues --   -0.23653  -0.22633
 Alpha virt. eigenvalues --   -0.07489  -0.03198  -0.01850  -0.01302  -0.00655
 Alpha virt. eigenvalues --    0.01634   0.02708   0.04107   0.06743   0.08556
 Alpha virt. eigenvalues --    0.09779   0.10038   0.10889   0.11891   0.12366

 Mulliken charges:
               1
     1  C   -0.534690
     2  C    0.144787
     3  C   -0.204666
     4  C   -0.148077
     5  C    0.317204
     6  N   -0.474430
     7  N   -0.272804
     8  C    0.029700
     9  C   -0.008908
    10  C    0.537648
    11  N   -0.478088
    12  C    0.238039
    13  N   -0.545136
    14  C    0.292160
    15  S    0.188091
    16  C   -0.524927
    17  C    0.582652
    18  N   -0.752547
    19  O   -0.491156
    20  N   -0.350633
    21  N   -0.402614
    22  C    0.517324
    23  C   -0.215369
    24  C    0.125115
    25  C   -0.533926
    26  H    0.163364
    27  H    0.158006
    28  H    0.163079
    29  H    0.129636
    30  H    0.162296
    31  H    0.178051
    32  H    0.203433
    33  H    0.214643
    34  H    0.217022
    35  H    0.388694
    36  H    0.337874
    37  H    0.160927
    38  H    0.162023
    39  H    0.163598
    40  H    0.162605
 Sum of Mulliken charges =  -0.00000

 Dipole moment (field-independent basis, Debye):
    X=              5.6705    Y=             -1.0903    Z=             -0.8566  Tot=              5.8376
 Quadrupole moment (field-independent basis, Debye-Ang):
   XX=           -168.6719   YY=           -150.0896   ZZ=           -148.0642
   XY=            -11.0210   XZ=              2.0402   YZ=              1.2510

 Normal termination of Gaussian 16 at Fri Nov  4 19:33:36 2022.
