 Gaussian 16, Revision B.01,
 Gaussian 16:  ES64L-G16RevB.01 20-Dec-2017

 -------------------------------------------------------------------
 #p b3lyp/6-31g(d) 6D 10F nosymm GFInput td=(50-50,nstate=2) SCF=XQC
 -------------------------------------------------------------------

 ------------------------------
 Gaussian input prepared by ASE
 ------------------------------
 Symbolic Z-matrix:
 Charge =  0 Multiplicity = 1

                          Input orientation:
 ---------------------------------------------------------------------
 Center     Atomic      Atomic             Coordinates (Angstroms)
 Number     Number       Type             X           Y           Z
 ---------------------------------------------------------------------
      1          6           0       -5.609263   -1.857969    2.757953
      2          6           0       -4.500802   -1.371746    1.855907
      3          6           0       -3.189317   -1.817147    2.043501
      4          6           0       -2.138692   -1.397645    1.228948
      5          6           0       -2.408288   -0.491771    0.202976
      6          7           0       -1.373927   -0.029045   -0.665735
      7          7           0       -1.694458    0.408201   -1.916060
      8          6           0       -0.564768    0.802606   -2.489072
      9          6           0        0.529721    0.628037   -1.616156
     10          6           0       -0.027446    0.092976   -0.443311
     11          7           0        0.641174   -0.219684    0.708055
     12          6           0        1.918682   -0.015910    0.689826
     13          7           0        2.585745    0.485157   -0.417047
     14          6           0        3.918355    0.782657   -0.656930
     15         16           0        5.177909    0.503425    0.539092
     16          6           0        6.459768    1.707764   -0.027521
     17          6           0        7.449329    1.136534   -1.056608
     18          7           0        6.975286    1.081998   -2.326545
     19          8           0        8.576035    0.804876   -0.717075
     20          7           0        4.042843    1.270845   -1.869179
     21          7           0        2.800133    1.326898   -2.476165
     22          6           0        1.934931    0.848556   -1.613192
     23          6           0       -3.712145   -0.030067   -0.003513
     24          6           0       -4.762258   -0.462516    0.807021
     25          6           0       -6.160780    0.050917    0.557640
     26          1           0       -6.397254   -2.372073    2.192423
     27          1           0       -5.228682   -2.556594    3.508982
     28          1           0       -6.094130   -1.028527    3.289093
     29          1           0       -2.979814   -2.521673    2.844662
     30          1           0       -1.133639   -1.762004    1.395852
     31          1           0       -0.574648    1.187403   -3.499152
     32          1           0        2.526871   -0.229024    1.563129
     33          1           0        5.942127    2.598354   -0.393032
     34          1           0        7.027069    1.949116    0.872487
     35          1           0        5.986316    1.236678   -2.519510
     36          1           0        7.557407    0.635429   -3.021590
     37          1           0       -3.898491    0.666612   -0.812727
     38          1           0       -6.182214    0.744729   -0.287580
     39          1           0       -6.857730   -0.767626    0.336263
     40          1           0       -6.560956    0.577086    1.433889
 ---------------------------------------------------------------------

 SCF Done:  E(RB3LYP) =  -1475.40334861     A.U. after   15 cycles

 Excitation energies and oscillator strengths:

 Excited state symmetry could not be determined.
 Excited State   1:      Triplet-?Sym    2.8517 eV  434.77 nm  f=0.0000  <S**2>=2.000
      87 -> 93         0.17527
      90 -> 93         0.25387
      91 -> 93        -0.36665
      92 -> 93         0.49400
 This state for optimization and/or second-order correction.
 Total Energy, E(TD-HF/TD-DFT) =  -1475.29854972
 Copying the excited state density for this state as the 1-particle RhoCI density.

 Excited state symmetry could not be determined.
 Excited State   2:      Triplet-?Sym    3.0856 eV  401.82 nm  f=0.0000  <S**2>=2.000
      87 -> 93        -0.16292
      89 -> 97        -0.12016
      90 -> 93        -0.12001
      91 -> 93         0.42294
      91 -> 94        -0.13973
      92 -> 93         0.43081
      92 -> 96         0.12471

 Excited state symmetry could not be determined.
 Excited State   3:      Singlet-?Sym    3.5381 eV  350.43 nm  f=0.0470  <S**2>=0.000
      92 -> 93         0.69930

 Excited state symmetry could not be determined.
 Excited State   4:      Singlet-?Sym    3.8233 eV  324.29 nm  f=0.1764  <S**2>=0.000
      91 -> 93         0.69489

 Alpha  occ. eigenvalues --  -88.92348 -19.10961 -14.44788 -14.44243 -14.38107
 Alpha  occ. eigenvalues --  -14.37912 -14.37860 -14.36388 -14.34496 -10.31288
 Alpha  occ. eigenvalues --  -10.30353 -10.29037 -10.28757 -10.28521 -10.24485
 Alpha  occ. eigenvalues --  -10.24065 -10.23685 -10.22731 -10.20618 -10.20431
 Alpha  occ. eigenvalues --  -10.19897 -10.19696 -10.19656 -10.19199 -10.19128
 Alpha  occ. eigenvalues --   -7.98414  -5.94962  -5.94531  -5.93878  -1.09842
 Alpha  occ. eigenvalues --   -1.07789  -1.02762  -1.00668  -0.93529  -0.89869
 Alpha  occ. eigenvalues --   -0.89202  -0.86987  -0.84791  -0.82376  -0.79598
 Alpha  occ. eigenvalues --   -0.77875  -0.76878  -0.71731  -0.71461  -0.70957
 Alpha  occ. eigenvalues --   -0.68973  -0.68148  -0.64225  -0.62508  -0.60820
 Alpha  occ. eigenvalues --   -0.59285  -0.58176  -0.57335  -0.55176  -0.53306
 Alpha  occ. eigenvalues --   -0.52499  -0.51421  -0.50018  -0.49576  -0.48662
 Alpha  occ. eigenvalues --   -0.48398  -0.47439  -0.46811  -0.45370  -0.45196
 Alpha  occ. eigenvalues --   -0.44075  -0.43331  -0.42735  -0.41860  -0.40937
 Alpha  occ. eigenvalues --   -0.40701  -0.40203  -0.39576  -0.39510  -0.39312
 Alpha  occ. eigenvalues --   -0.37024  -0.36179  -0.35785  -0.34912  -0.34643
 Alpha  occ. eigenvalues --   -0.33635  -0.33358  -0.32213  -0.30686  -0.29786
 Alpha  occ. eigenvalues --   -0.28750  -0.27750  -0.26096  -0.25375  -0.24837
 Alpha  occ. eigenvalues --   -0.23653  -0.22633
 Alpha virt. eigenvalues --   -0.07489  -0.03198  -0.01850  -0.01302  -0.00655
 Alpha virt. eigenvalues --    0.01634   0.02708   0.04107   0.06743   0.08556
 Alpha virt. eigenvalues --    0.09779   0.10038   0.10889   0.11891   0.12366

 Mulliken charges:
               1
     1  C   -0.534696
     2  C    0.144783
     3  C   -0.204664
     4  C   -0.148078
     5  C    0.317224
     6  N   -0.474442
     7  N   -0.272801
     8  C    0.029693
     9  C   -0.008903
    10  C    0.537657
    11  N   -0.478092
    12  C    0.238038
    13  N   -0.545137
    14  C    0.292136
    15  S    0.188098
    16  C   -0.524925
    17  C    0.582649
    18  N   -0.752545
    19  O   -0.491156
    20  N   -0.350619
    21  N   -0.402617
    22  C    0.517333
    23  C   -0.215389
    24  C    0.125134
    25  C   -0.533924
    26  H    0.163365
    27  H    0.158007
    28  H    0.163080
    29  H    0.129635
    30  H    0.162294
    31  H    0.178051
    32  H    0.203432
    33  H    0.214643
    34  H    0.217022
    35  H    0.388693
    36  H    0.337874
    37  H    0.160926
    38  H    0.162023
    39  H    0.163597
    40  H    0.162603
 Sum of Mulliken charges =  -0.00000

 Dipole moment (field-independent basis, Debye):
    X=             -5.3199    Y=             -0.5807    Z=              2.3323  Tot=              5.8376
 Quadrupole moment (field-independent basis, Debye-Ang):
   XX=           -182.5131   YY=           -147.9848   ZZ=           -147.2202
   XY=              0.8516   XZ=             -1.9303   YZ=              0.1053

 Normal termination of Gaussian 16 at Sat Nov  5 11:45:34 2022.
