 Gaussian 16, Revision B.01,
 Gaussian 16:  ES64L-G16RevB.01 20-Dec-2017

 -------------------------------------------------------------------
 #p b3lyp/6-31g(d) 6D 10F nosymm GFInput td=(50-50,nstate=2) SCF=XQC
 -------------------------------------------------------------------

 ------------------------------
 Gaussian input prepared by ASE
 ------------------------------
 Symbolic Z-matrix:
 Charge =  0 Multiplicity = 1

                          Input orientation:
 ---------------------------------------------------------------------
 Center     Atomic      Atomic             Coordinates (Angstroms)
 Number     Number       Type             X           Y           Z
 ---------------------------------------------------------------------
      1          6           0       -5.897998    2.372986   -1.652498
      2          6           0       -5.139218    1.295691   -0.914792
      3          6           0       -4.790184    0.097830   -1.556884
      4          6           0       -4.070996   -0.893846   -0.894328
      5          6           0       -3.689490   -0.691031    0.435560
      6         16           0       -2.716392   -1.944036    1.285076
      7          8           0       -2.934405   -1.751904    2.721011
      8          8           0       -2.976434   -3.219922    0.614333
      9          7           0       -1.099080   -1.585927    1.015967
     10          6           0       -0.552769   -0.408381    1.718083
     11          6           0        0.919958   -0.241958    1.343874
     12          6           0        1.080803    0.070886   -0.172004
     13          6           0        2.474097   -0.228228   -0.624209
     14          7           0        2.891517   -1.035256   -1.547668
     15          7           0        4.284820   -0.955923   -1.558295
     16          6           0        4.601449   -0.100286   -0.630110
     17          6           0        5.918498    0.333621   -0.243464
     18          6           0        7.162236   -0.005607   -0.707042
     19          6           0        8.092185    0.751038    0.066712
     20          6           0        7.349214    1.490934    0.939498
     21          8           0        6.021612    1.250517    0.766134
     22          8           0        3.508182    0.407459    0.010904
     23          6           0        0.025146   -0.693643   -1.017702
     24          6           0       -0.487722   -1.936044   -0.285407
     25          6           0       -4.039508    0.485435    1.102440
     26          6           0       -4.759675    1.467651    0.422926
     27          1           0       -6.638243    1.944475   -2.336565
     28          1           0       -6.420597    3.041021   -0.960750
     29          1           0       -5.219337    2.990675   -2.255645
     30          1           0       -5.097886   -0.066134   -2.586927
     31          1           0       -3.834840   -1.831245   -1.386775
     32          1           0       -1.104715    0.509873    1.455329
     33          1           0       -0.663582   -0.566049    2.792709
     34          1           0        1.362238    0.559410    1.943763
     35          1           0        1.456405   -1.163204    1.598322
     36          1           0        0.924131    1.149882   -0.306376
     37          1           0        7.370085   -0.708591   -1.500515
     38          1           0        9.169748    0.744063   -0.016293
     39          1           0        7.595880    2.202866    1.712115
     40          1           0        0.454552   -0.989158   -1.978650
     41          1           0       -0.819543   -0.027607   -1.224293
     42          1           0        0.336260   -2.638038   -0.108355
     43          1           0       -1.225554   -2.472198   -0.884127
     44          1           0       -3.779141    0.609659    2.148156
     45          1           0       -5.041712    2.378247    0.945950
 ---------------------------------------------------------------------

 SCF Done:  E(RB3LYP) =  -1560.58114733     A.U. after   15 cycles

 Excitation energies and oscillator strengths:

 Excited state symmetry could not be determined.
 Excited State   1:      Triplet-?Sym    2.8592 eV  433.63 nm  f=0.0000  <S**2>=2.000
      98 -> 99         0.68948
 This state for optimization and/or second-order correction.
 Total Energy, E(TD-HF/TD-DFT) =  -1560.47607278
 Copying the excited state density for this state as the 1-particle RhoCI density.

 Excited state symmetry could not be determined.
 Excited State   2:      Triplet-?Sym    3.6300 eV  341.55 nm  f=0.0000  <S**2>=2.000
      95 ->100         0.24026
      95 ->101        -0.29200
      96 ->100         0.30973
      96 ->101         0.26705
      97 ->100         0.41854

 Excited state symmetry could not be determined.
 Excited State   3:      Singlet-?Sym    4.7050 eV  263.52 nm  f=0.7092  <S**2>=0.000
      97 -> 99        -0.13862
      98 -> 99         0.68555

 Excited state symmetry could not be determined.
 Excited State   4:      Singlet-?Sym    4.8015 eV  258.22 nm  f=0.0492  <S**2>=0.000
      97 -> 99         0.68751
      98 -> 99         0.13741

 Alpha  occ. eigenvalues --  -89.10541 -19.24476 -19.23713 -19.13622 -19.13533
 Alpha  occ. eigenvalues --  -14.36408 -14.36269 -14.36063 -10.29755 -10.28954
 Alpha  occ. eigenvalues --  -10.26728 -10.25867 -10.23331 -10.22882 -10.22787
 Alpha  occ. eigenvalues --  -10.22458 -10.21849 -10.21213 -10.21193 -10.21026
 Alpha  occ. eigenvalues --  -10.21004 -10.20712 -10.20611 -10.20600 -10.20050
 Alpha  occ. eigenvalues --  -10.19843  -8.13001  -6.09487  -6.09431  -6.09324
 Alpha  occ. eigenvalues --   -1.16468  -1.13114  -1.10414  -0.99563  -0.98330
 Alpha  occ. eigenvalues --   -0.93855  -0.87664  -0.86916  -0.82262  -0.81268
 Alpha  occ. eigenvalues --   -0.79570  -0.77564  -0.76647  -0.76343  -0.72315
 Alpha  occ. eigenvalues --   -0.70080  -0.67259  -0.65322  -0.64478  -0.62597
 Alpha  occ. eigenvalues --   -0.62242  -0.60734  -0.58771  -0.57544  -0.56280
 Alpha  occ. eigenvalues --   -0.55716  -0.54448  -0.52551  -0.50775  -0.50553
 Alpha  occ. eigenvalues --   -0.49124  -0.48366  -0.47385  -0.47189  -0.46324
 Alpha  occ. eigenvalues --   -0.46041  -0.45454  -0.44718  -0.43914  -0.43838
 Alpha  occ. eigenvalues --   -0.43418  -0.42891  -0.42528  -0.42218  -0.41804
 Alpha  occ. eigenvalues --   -0.40577  -0.40031  -0.39411  -0.38852  -0.37923
 Alpha  occ. eigenvalues --   -0.37455  -0.36416  -0.35784  -0.35698  -0.34858
 Alpha  occ. eigenvalues --   -0.34747  -0.32860  -0.32462  -0.31036  -0.30845
 Alpha  occ. eigenvalues --   -0.29748  -0.29572  -0.29370  -0.28108  -0.26994
 Alpha  occ. eigenvalues --   -0.26733  -0.24161  -0.22968
 Alpha virt. eigenvalues --   -0.04970  -0.03376  -0.02043   0.01164   0.03600
 Alpha virt. eigenvalues --    0.05873   0.07329   0.08704   0.08962   0.10012
 Alpha virt. eigenvalues --    0.10099   0.10344   0.10623   0.11113   0.11480

 Mulliken charges:
               1
     1  C   -0.530841
     2  C    0.179381
     3  C   -0.174783
     4  C   -0.151524
     5  C   -0.148326
     6  S    1.254966
     7  O   -0.558583
     8  O   -0.550913
     9  N   -0.533390
    10  C   -0.135149
    11  C   -0.305898
    12  C   -0.187290
    13  C    0.543272
    14  N   -0.345678
    15  N   -0.362584
    16  C    0.499646
    17  C    0.291358
    18  C   -0.163425
    19  C   -0.193027
    20  C    0.103511
    21  O   -0.443549
    22  O   -0.468065
    23  C   -0.296908
    24  C   -0.154961
    25  C   -0.150638
    26  C   -0.178073
    27  H    0.166687
    28  H    0.163266
    29  H    0.171560
    30  H    0.137016
    31  H    0.174723
    32  H    0.139508
    33  H    0.191987
    34  H    0.166045
    35  H    0.170918
    36  H    0.165762
    37  H    0.173979
    38  H    0.155783
    39  H    0.167619
    40  H    0.190577
    41  H    0.152845
    42  H    0.176152
    43  H    0.186703
    44  H    0.174548
    45  H    0.135792
 Sum of Mulliken charges =  -0.00000

 Dipole moment (field-independent basis, Debye):
    X=              2.1493    Y=              6.7811    Z=             -1.1271  Tot=              7.2023
 Quadrupole moment (field-independent basis, Debye-Ang):
   XX=           -125.9568   YY=           -167.1901   ZZ=           -162.4416
   XY=            -10.0627   XZ=             23.7167   YZ=              6.9413

 Normal termination of Gaussian 16 at Sat Nov  5 11:48:37 2022.
