 Gaussian 16, Revision B.01,
 Gaussian 16:  ES64L-G16RevB.01 20-Dec-2017

 -----------------------------
 #p b3lyp/6-31g(d) opt SCF=XQC
 -----------------------------

 ------------------------------
 Gaussian input prepared by ASE
 ------------------------------
 Symbolic Z-matrix:
 Charge =  0 Multiplicity = 1

 SCF Done:  E(RB3LYP) =  -1560.56877760     A.U. after   15 cycles
 SCF Done:  E(RB3LYP) =  -1560.57978259     A.U. after   12 cycles
 SCF Done:  E(RB3LYP) =  -1560.58085014     A.U. after   11 cycles
 SCF Done:  E(RB3LYP) =  -1560.58107136     A.U. after   11 cycles
 SCF Done:  E(RB3LYP) =  -1560.58111459     A.U. after   10 cycles
 SCF Done:  E(RB3LYP) =  -1560.58113173     A.U. after   10 cycles
 SCF Done:  E(RB3LYP) =  -1560.58113955     A.U. after    9 cycles
 SCF Done:  E(RB3LYP) =  -1560.58114343     A.U. after    9 cycles
 SCF Done:  E(RB3LYP) =  -1560.58114450     A.U. after    9 cycles
 SCF Done:  E(RB3LYP) =  -1560.58114493     A.U. after    8 cycles
 SCF Done:  E(RB3LYP) =  -1560.58114718     A.U. after    8 cycles
 SCF Done:  E(RB3LYP) =  -1560.58114732     A.U. after    7 cycles
 SCF Done:  E(RB3LYP) =  -1560.58114741     A.U. after    7 cycles
 SCF Done:  E(RB3LYP) =  -1560.58114741     A.U. after    7 cycles
 SCF Done:  E(RB3LYP) =  -1560.58114736     A.U. after    8 cycles
 SCF Done:  E(RB3LYP) =  -1560.58114727     A.U. after    8 cycles
 SCF Done:  E(RB3LYP) =  -1560.58114723     A.U. after    7 cycles
 SCF Done:  E(RB3LYP) =  -1560.58114721     A.U. after    7 cycles
 SCF Done:  E(RB3LYP) =  -1560.58114723     A.U. after    7 cycles
 SCF Done:  E(RB3LYP) =  -1560.58114721     A.U. after    6 cycles
 Optimization completed.
    -- Stationary point found.

                         Standard orientation:
 ---------------------------------------------------------------------
 Center     Atomic      Atomic             Coordinates (Angstroms)
 Number     Number       Type             X           Y           Z
 ---------------------------------------------------------------------
      1          6           0       -5.913161    3.547664    0.095715
      2          6           0       -5.232226    2.199820    0.108611
      3          6           0       -4.940609    1.533189   -1.091198
      4          6           0       -4.292800    0.300318   -1.093454
      5          6           0       -3.925958   -0.283259    0.123159
      6         16           0       -3.043406   -1.851595    0.129632
      7          8           0       -3.277634   -2.467028    1.438345
      8          8           0       -3.363687   -2.531704   -1.127458
      9          7           0       -1.403224   -1.500445    0.076200
     10          6           0       -0.803487   -0.936392    1.301026
     11          6           0        0.683339   -0.678834    1.056762
     12          6           0        0.891205    0.404856   -0.040523
     13          6           0        2.273371    0.321797   -0.604388
     14          7           0        2.661244    0.131471   -1.825716
     15          7           0        4.056748    0.121461   -1.812779
     16          6           0        4.404278    0.306524   -0.572267
     17          6           0        5.736476    0.378473   -0.031469
     18          6           0        6.967267    0.277017   -0.624530
     19          6           0        7.924245    0.428257    0.423006
     20          6           0        7.208528    0.609595    1.570208
     21          8           0        5.872853    0.582470    1.314045
     22          8           0        3.329985    0.442192    0.259251
     23          6           0       -0.190315    0.293943   -1.150539
     24          6           0       -0.788098   -1.113752   -1.212987
     25          6           0       -4.220271    0.351983    1.331944
     26          6           0       -4.869276    1.586336    1.314851
     27          1           0       -6.663571    3.609581   -0.699635
     28          1           0       -6.409570    3.755529    1.048744
     29          1           0       -5.188454    4.353871   -0.079606
     30          1           0       -5.237328    1.980173   -2.037092
     31          1           0       -4.101701   -0.224692   -2.023420
     32          1           0       -1.296320    0.005903    1.594402
     33          1           0       -0.943938   -1.651373    2.114067
     34          1           0        1.159490   -0.366148    1.991201
     35          1           0        1.160690   -1.618151    0.755045
     36          1           0        0.799715    1.387410    0.442229
     37          1           0        7.149456    0.114391   -1.676836
     38          1           0        9.001009    0.404612    0.332997
     39          1           0        7.480930    0.764388    2.602905
     40          1           0        0.239778    0.549943   -2.122458
     41          1           0       -0.990994    1.012353   -0.944184
     42          1           0       -0.009593   -1.844702   -1.463450
     43          1           0       -1.543963   -1.188581   -1.996181
     44          1           0       -3.973396   -0.133953    2.269848
     45          1           0       -5.108308    2.074911    2.256362
 ---------------------------------------------------------------------

 The electronic state is 1-A.
 Alpha  occ. eigenvalues --  -89.10541 -19.24476 -19.23713 -19.13622 -19.13533
 Alpha  occ. eigenvalues --  -14.36408 -14.36269 -14.36063 -10.29755 -10.28954
 Alpha  occ. eigenvalues --  -10.26728 -10.25867 -10.23331 -10.22882 -10.22787
 Alpha  occ. eigenvalues --  -10.22457 -10.21849 -10.21213 -10.21193 -10.21026
 Alpha  occ. eigenvalues --  -10.21004 -10.20712 -10.20611 -10.20600 -10.20050
 Alpha  occ. eigenvalues --  -10.19843  -8.13001  -6.09487  -6.09431  -6.09324
 Alpha  occ. eigenvalues --   -1.16468  -1.13114  -1.10414  -0.99563  -0.98330
 Alpha  occ. eigenvalues --   -0.93855  -0.87664  -0.86916  -0.82262  -0.81268
 Alpha  occ. eigenvalues --   -0.79570  -0.77564  -0.76647  -0.76343  -0.72315
 Alpha  occ. eigenvalues --   -0.70080  -0.67259  -0.65322  -0.64478  -0.62597
 Alpha  occ. eigenvalues --   -0.62242  -0.60734  -0.58771  -0.57544  -0.56280
 Alpha  occ. eigenvalues --   -0.55716  -0.54448  -0.52551  -0.50775  -0.50553
 Alpha  occ. eigenvalues --   -0.49124  -0.48366  -0.47385  -0.47189  -0.46324
 Alpha  occ. eigenvalues --   -0.46041  -0.45454  -0.44718  -0.43914  -0.43838
 Alpha  occ. eigenvalues --   -0.43418  -0.42891  -0.42528  -0.42218  -0.41804
 Alpha  occ. eigenvalues --   -0.40577  -0.40031  -0.39411  -0.38852  -0.37923
 Alpha  occ. eigenvalues --   -0.37455  -0.36416  -0.35784  -0.35698  -0.34858
 Alpha  occ. eigenvalues --   -0.34747  -0.32860  -0.32462  -0.31036  -0.30845
 Alpha  occ. eigenvalues --   -0.29748  -0.29572  -0.29370  -0.28108  -0.26994
 Alpha  occ. eigenvalues --   -0.26733  -0.24161  -0.22968
 Alpha virt. eigenvalues --   -0.04970  -0.03376  -0.02043   0.01164   0.03600
 Alpha virt. eigenvalues --    0.05873   0.07329   0.08704   0.08962   0.10012
 Alpha virt. eigenvalues --    0.10099   0.10344   0.10623   0.11113   0.11480

 Mulliken charges:
               1
     1  C   -0.530841
     2  C    0.179384
     3  C   -0.174785
     4  C   -0.151522
     5  C   -0.148330
     6  S    1.254999
     7  O   -0.558587
     8  O   -0.550916
     9  N   -0.533410
    10  C   -0.135143
    11  C   -0.305893
    12  C   -0.187314
    13  C    0.543282
    14  N   -0.345677
    15  N   -0.362588
    16  C    0.499655
    17  C    0.291364
    18  C   -0.163428
    19  C   -0.193025
    20  C    0.103502
    21  O   -0.443550
    22  O   -0.468067
    23  C   -0.296911
    24  C   -0.154944
    25  C   -0.150652
    26  C   -0.178069
    27  H    0.166687
    28  H    0.163266
    29  H    0.171560
    30  H    0.137017
    31  H    0.174722
    32  H    0.139506
    33  H    0.191985
    34  H    0.166047
    35  H    0.170919
    36  H    0.165765
    37  H    0.173980
    38  H    0.155783
    39  H    0.167619
    40  H    0.190578
    41  H    0.152845
    42  H    0.176150
    43  H    0.186699
    44  H    0.174549
    45  H    0.135793
 Sum of Mulliken charges =  -0.00000

 Dipole moment (field-independent basis, Debye):
    X=              2.5586    Y=              6.1458    Z=              2.7489  Tot=              7.2023
 Quadrupole moment (field-independent basis, Debye-Ang):
   XX=           -129.1947   YY=           -165.5802   ZZ=           -157.4947
   XY=            -24.4068   XZ=             13.4935   YZ=              1.4591

 Normal termination of Gaussian 16 at Fri Nov  4 19:33:14 2022.
