 Gaussian 16, Revision B.01,
 Gaussian 16:  ES64L-G16RevB.01 20-Dec-2017

 -------------------------------------------------------------------
 #p b3lyp/6-31g(d) 6D 10F nosymm GFInput td=(50-50,nstate=2) SCF=XQC
 -------------------------------------------------------------------

 ------------------------------
 Gaussian input prepared by ASE
 ------------------------------
 Symbolic Z-matrix:
 Charge =  0 Multiplicity = 1

                          Input orientation:
 ---------------------------------------------------------------------
 Center     Atomic      Atomic             Coordinates (Angstroms)
 Number     Number       Type             X           Y           Z
 ---------------------------------------------------------------------
      1          6           0        0.283312   -0.311570    2.509259
      2          6           0       -0.401300   -0.059415    1.183398
      3          6           0       -1.769916   -0.306237    1.062403
      4          6           0       -2.471839   -0.096729   -0.133038
      5          6           0       -3.981659   -0.390920   -0.200904
      6          6           0       -4.575433   -0.100514   -1.592396
      7          6           0       -4.230975   -1.882651    0.125757
      8          6           0       -4.725038    0.489678    0.831620
      9          6           0       -1.738647    0.376652   -1.224640
     10          6           0       -0.364432    0.637551   -1.147981
     11          6           0        0.357549    1.148150   -2.376332
     12          6           0        0.314340    0.425017    0.067041
     13          6           0        1.792651    0.705533    0.174105
     14         16           0        2.755831   -0.820867   -0.266135
     15          6           0        4.398187   -0.214783   -0.048546
     16          7           0        4.690038    1.013554    0.349567
     17          7           0        6.069546    0.967002    0.370336
     18          6           0        6.498096   -0.256320   -0.018748
     19          7           0        7.830895   -0.593567   -0.172809
     20          7           0        5.466598   -1.041009   -0.281704
     21          1           0       -0.408645   -0.771020    3.221586
     22          1           0        0.649738    0.619217    2.962516
     23          1           0        1.146656   -0.978150    2.400827
     24          1           0       -2.298224   -0.678007    1.936773
     25          1           0       -5.648440   -0.323804   -1.589481
     26          1           0       -4.111919   -0.717405   -2.370587
     27          1           0       -4.457781    0.951882   -1.874794
     28          1           0       -5.304133   -2.107690    0.088656
     29          1           0       -3.721970   -2.531615   -0.595956
     30          1           0       -3.869141   -2.147143    1.124765
     31          1           0       -5.802778    0.286636    0.801419
     32          1           0       -4.378677    0.300595    1.853010
     33          1           0       -4.573539    1.554287    0.619462
     34          1           0       -2.231860    0.551678   -2.174857
     35          1           0       -0.310443    1.156871   -3.242907
     36          1           0        0.725426    2.173484   -2.236513
     37          1           0        1.225003    0.526633   -2.626592
     38          1           0        2.112515    1.499748   -0.502181
     39          1           0        2.086672    0.996328    1.183738
     40          1           0        6.595292    1.813067    0.529720
     41          1           0        7.935620   -1.588313   -0.337932
     42          1           0        8.442825   -0.275832    0.570574
 ---------------------------------------------------------------------

 SCF Done:  E(RB3LYP) =  -1202.04881525     A.U. after   14 cycles

 Excitation energies and oscillator strengths:

 Excited state symmetry could not be determined.
 Excited State   1:      Triplet-?Sym    3.5779 eV  346.53 nm  f=0.0000  <S**2>=2.000
      76 -> 80         0.39275
      77 -> 79         0.56816
 This state for optimization and/or second-order correction.
 Total Energy, E(TD-HF/TD-DFT) =  -1201.91732894
 Copying the excited state density for this state as the 1-particle RhoCI density.

 Excited state symmetry could not be determined.
 Excited State   2:      Triplet-?Sym    4.1473 eV  298.95 nm  f=0.0000  <S**2>=2.000
      75 -> 81         0.24414
      78 -> 81         0.62193
      78 -> 83         0.12883
      78 -> 84         0.11328

 Excited state symmetry could not be determined.
 Excited State   3:      Singlet-?Sym    4.8011 eV  258.24 nm  f=0.0001  <S**2>=0.000
      78 -> 79         0.69208
      78 -> 82        -0.10775

 Excited state symmetry could not be determined.
 Excited State   4:      Singlet-?Sym    5.1117 eV  242.55 nm  f=0.0049  <S**2>=0.000
      76 -> 79         0.54205
      77 -> 79         0.10381
      77 -> 80        -0.43309

 Alpha  occ. eigenvalues --  -88.87546 -14.40806 -14.36679 -14.34535 -14.31479
 Alpha  occ. eigenvalues --  -10.29310 -10.25247 -10.20788 -10.19792 -10.18802
 Alpha  occ. eigenvalues --  -10.18760 -10.18525 -10.18317 -10.17435 -10.17372
 Alpha  occ. eigenvalues --  -10.17183 -10.17145 -10.16910 -10.16897 -10.16849
 Alpha  occ. eigenvalues --   -7.93618  -5.90146  -5.89741  -5.89097  -1.06837
 Alpha  occ. eigenvalues --   -0.93911  -0.88762  -0.85730  -0.82324  -0.81221
 Alpha  occ. eigenvalues --   -0.77227  -0.77135  -0.73069  -0.69327  -0.68549
 Alpha  occ. eigenvalues --   -0.67786  -0.66135  -0.65290  -0.63102  -0.59296
 Alpha  occ. eigenvalues --   -0.57664  -0.56387  -0.55561  -0.52402  -0.50797
 Alpha  occ. eigenvalues --   -0.48825  -0.48060  -0.47848  -0.46088  -0.44470
 Alpha  occ. eigenvalues --   -0.43231  -0.42605  -0.41911  -0.41020  -0.40447
 Alpha  occ. eigenvalues --   -0.40073  -0.39982  -0.39234  -0.38787  -0.38603
 Alpha  occ. eigenvalues --   -0.37086  -0.36211  -0.35989  -0.35334  -0.34147
 Alpha  occ. eigenvalues --   -0.33764  -0.33431  -0.32986  -0.32231  -0.31230
 Alpha  occ. eigenvalues --   -0.30927  -0.30564  -0.30305  -0.27314  -0.24391
 Alpha  occ. eigenvalues --   -0.22725  -0.22243  -0.20558
 Alpha virt. eigenvalues --   -0.00229   0.01408   0.02539   0.04129   0.05872
 Alpha virt. eigenvalues --    0.07034   0.08687   0.09225   0.10574   0.11095
 Alpha virt. eigenvalues --    0.11834   0.12663   0.13062   0.13435   0.14151

 Mulliken charges:
               1
     1  C   -0.547753
     2  C    0.160238
     3  C   -0.263917
     4  C    0.208209
     5  C    0.014881
     6  C   -0.455170
     7  C   -0.438219
     8  C   -0.438128
     9  C   -0.274539
    10  C    0.162877
    11  C   -0.548172
    12  C    0.029685
    13  C   -0.510568
    14  S    0.157828
    15  C    0.230837
    16  N   -0.303063
    17  N   -0.473205
    18  C    0.672715
    19  N   -0.778583
    20  N   -0.517784
    21  H    0.152258
    22  H    0.159183
    23  H    0.181173
    24  H    0.114591
    25  H    0.139160
    26  H    0.145977
    27  H    0.144512
    28  H    0.136046
    29  H    0.148172
    30  H    0.143150
    31  H    0.136360
    32  H    0.142767
    33  H    0.145922
    34  H    0.116516
    35  H    0.153069
    36  H    0.159175
    37  H    0.181634
    38  H    0.194501
    39  H    0.194822
    40  H    0.342852
    41  H    0.350317
    42  H    0.329673
 Sum of Mulliken charges =  -0.00000

 Dipole moment (field-independent basis, Debye):
    X=              3.1070    Y=              1.6718    Z=              1.6287  Tot=              3.8860
 Quadrupole moment (field-independent basis, Debye-Ang):
   XX=            -76.0839   YY=           -128.0366   ZZ=           -125.1796
   XY=              7.4982   XZ=             12.6749   YZ=             -1.6983

 Normal termination of Gaussian 16 at Sat Nov  5 11:40:33 2022.
