 Gaussian 16, Revision B.01,
 Gaussian 16:  ES64L-G16RevB.01 20-Dec-2017

 -----------------------------
 #p b3lyp/6-31g(d) opt SCF=XQC
 -----------------------------

 ------------------------------
 Gaussian input prepared by ASE
 ------------------------------
 Symbolic Z-matrix:
 Charge =  0 Multiplicity = 1

 SCF Done:  E(RB3LYP) =  -1202.04297906     A.U. after   14 cycles
 SCF Done:  E(RB3LYP) =  -1202.04816448     A.U. after   12 cycles
 SCF Done:  E(RB3LYP) =  -1202.04857718     A.U. after   11 cycles
 SCF Done:  E(RB3LYP) =  -1202.04869130     A.U. after   10 cycles
 SCF Done:  E(RB3LYP) =  -1202.04873830     A.U. after   10 cycles
 SCF Done:  E(RB3LYP) =  -1202.04877358     A.U. after   10 cycles
 SCF Done:  E(RB3LYP) =  -1202.04879940     A.U. after   10 cycles
 SCF Done:  E(RB3LYP) =  -1202.04881338     A.U. after   10 cycles
 SCF Done:  E(RB3LYP) =  -1202.04881600     A.U. after    8 cycles
 SCF Done:  E(RB3LYP) =  -1202.04881649     A.U. after    7 cycles
 SCF Done:  E(RB3LYP) =  -1202.04881662     A.U. after    6 cycles
 Optimization completed.
    -- Stationary point found.

                         Standard orientation:
 ---------------------------------------------------------------------
 Center     Atomic      Atomic             Coordinates (Angstroms)
 Number     Number       Type             X           Y           Z
 ---------------------------------------------------------------------
      1          6           0        0.522759   -2.528939   -0.501915
      2          6           0        1.227894   -1.195592   -0.378818
      3          6           0        2.602351   -1.168497   -0.136318
      4          6           0        3.323042    0.027462   -0.010001
      5          6           0        4.838431   -0.011779    0.259750
      6          6           0        5.453365    1.396603    0.366855
      7          6           0        5.105701   -0.754888    1.590345
      8          6           0        5.548005   -0.758972   -0.894536
      9          6           0        2.602842    1.218526   -0.136229
     10          6           0        1.223391    1.238012   -0.379426
     11          6           0        0.516356    2.570596   -0.502460
     12          6           0        0.525526    0.022119   -0.508924
     13          6           0       -0.958876    0.019472   -0.777435
     14         16           0       -1.888817    0.017341    0.830865
     15          6           0       -3.544551    0.004136    0.222274
     16          7           0       -3.863645   -0.021958   -1.062242
     17          7           0       -5.242366   -0.036823   -0.994800
     18          6           0       -5.643704   -0.008360    0.297360
     19          7           0       -6.967752    0.060484    0.692300
     20          7           0       -4.594900    0.005337    1.102776
     21          1           0        1.208608   -3.352086   -0.279769
     22          1           0        0.132897   -2.692010   -1.515567
     23          1           0       -0.327503   -2.604288    0.185709
     24          1           0        3.120150   -2.119632   -0.041075
     25          1           0        6.529603    1.315645    0.557561
     26          1           0        5.014542    1.971848    1.189963
     27          1           0        5.324002    1.969848   -0.558231
     28          1           0        6.182867   -0.798008    1.794162
     29          1           0        4.620862   -0.242327    2.428988
     30          1           0        4.729561   -1.782902    1.565755
     31          1           0        6.629267   -0.802469   -0.713862
     32          1           0        5.185695   -1.787058   -0.998093
     33          1           0        5.383293   -0.249077   -1.850692
     34          1           0        3.110856    2.172446   -0.042612
     35          1           0        1.200221    3.394469   -0.277066
     36          1           0        0.129380    2.734901   -1.517076
     37          1           0       -0.336089    2.644080    0.182615
     38          1           0       -1.278839    0.898920   -1.338369
     39          1           0       -1.276410   -0.860744   -1.338472
     40          1           0       -5.784628    0.059545   -1.839965
     41          1           0       -7.053255   -0.064538    1.694702
     42          1           0       -7.598551   -0.552699    0.188184
 ---------------------------------------------------------------------

 The electronic state is 1-A.
 Alpha  occ. eigenvalues --  -88.87546 -14.40806 -14.36679 -14.34535 -14.31479
 Alpha  occ. eigenvalues --  -10.29310 -10.25247 -10.20788 -10.19792 -10.18802
 Alpha  occ. eigenvalues --  -10.18760 -10.18525 -10.18317 -10.17435 -10.17372
 Alpha  occ. eigenvalues --  -10.17183 -10.17146 -10.16910 -10.16897 -10.16849
 Alpha  occ. eigenvalues --   -7.93618  -5.90146  -5.89741  -5.89097  -1.06837
 Alpha  occ. eigenvalues --   -0.93911  -0.88762  -0.85730  -0.82324  -0.81221
 Alpha  occ. eigenvalues --   -0.77227  -0.77135  -0.73069  -0.69327  -0.68549
 Alpha  occ. eigenvalues --   -0.67786  -0.66135  -0.65290  -0.63102  -0.59296
 Alpha  occ. eigenvalues --   -0.57664  -0.56387  -0.55561  -0.52402  -0.50797
 Alpha  occ. eigenvalues --   -0.48825  -0.48060  -0.47848  -0.46088  -0.44470
 Alpha  occ. eigenvalues --   -0.43231  -0.42605  -0.41911  -0.41020  -0.40447
 Alpha  occ. eigenvalues --   -0.40073  -0.39982  -0.39234  -0.38787  -0.38603
 Alpha  occ. eigenvalues --   -0.37086  -0.36211  -0.35989  -0.35334  -0.34147
 Alpha  occ. eigenvalues --   -0.33764  -0.33431  -0.32986  -0.32231  -0.31230
 Alpha  occ. eigenvalues --   -0.30927  -0.30564  -0.30305  -0.27314  -0.24392
 Alpha  occ. eigenvalues --   -0.22725  -0.22243  -0.20558
 Alpha virt. eigenvalues --   -0.00229   0.01408   0.02539   0.04129   0.05872
 Alpha virt. eigenvalues --    0.07034   0.08687   0.09225   0.10574   0.11095
 Alpha virt. eigenvalues --    0.11834   0.12663   0.13062   0.13435   0.14151

 Mulliken charges:
               1
     1  C   -0.547756
     2  C    0.160235
     3  C   -0.263920
     4  C    0.208207
     5  C    0.014880
     6  C   -0.455177
     7  C   -0.438217
     8  C   -0.438127
     9  C   -0.274528
    10  C    0.162860
    11  C   -0.548173
    12  C    0.029696
    13  C   -0.510563
    14  S    0.157819
    15  C    0.230842
    16  N   -0.303062
    17  N   -0.473206
    18  C    0.672718
    19  N   -0.778583
    20  N   -0.517784
    21  H    0.152257
    22  H    0.159183
    23  H    0.181174
    24  H    0.114592
    25  H    0.139162
    26  H    0.145980
    27  H    0.144513
    28  H    0.136046
    29  H    0.148172
    30  H    0.143150
    31  H    0.136361
    32  H    0.142768
    33  H    0.145920
    34  H    0.116515
    35  H    0.153070
    36  H    0.159176
    37  H    0.181635
    38  H    0.194501
    39  H    0.194822
    40  H    0.342852
    41  H    0.350317
    42  H    0.329673
 Sum of Mulliken charges =  -0.00000

 Dipole moment (field-independent basis, Debye):
    X=             -3.1636    Y=             -1.0407    Z=             -2.0024  Tot=              3.8860
 Quadrupole moment (field-independent basis, Debye-Ang):
   XX=            -80.7638   YY=           -124.6576   ZZ=           -128.8047
   XY=              8.5759   XZ=              8.2733   YZ=             -0.8038

 Normal termination of Gaussian 16 at Fri Nov  4 18:55:51 2022.
