 Gaussian 16, Revision B.01,
 Gaussian 16:  ES64L-G16RevB.01 20-Dec-2017

 -------------------------------------------------------------------
 #p b3lyp/6-31g(d) 6D 10F nosymm GFInput td=(50-50,nstate=2) SCF=XQC
 -------------------------------------------------------------------

 ------------------------------
 Gaussian input prepared by ASE
 ------------------------------
 Symbolic Z-matrix:
 Charge =  0 Multiplicity = 1

                          Input orientation:
 ---------------------------------------------------------------------
 Center     Atomic      Atomic             Coordinates (Angstroms)
 Number     Number       Type             X           Y           Z
 ---------------------------------------------------------------------
      1          6           0        5.051954   -2.024550    2.162337
      2          6           0        3.710851   -2.031067    1.423623
      3          6           0        3.429008   -0.718147    0.661026
      4          7           0        2.062168   -0.716099    0.110871
      5          6           0        0.968414   -0.437116    0.874081
      6          8           0        1.042530   -0.215161    2.080885
      7          6           0       -0.375696   -0.438988    0.140880
      8          6           0       -1.137086    0.868080    0.425824
      9          6           0       -2.549436    0.833954   -0.166542
     10          7           0       -3.292726   -0.335504    0.313352
     11          6           0       -4.683368   -0.379331    0.423948
     12          8           0       -5.321353   -1.411020    0.244806
     13          7           0       -5.266223    0.822950    0.800225
     14          6           0       -6.637065    1.112462    0.957484
     15          6           0       -7.670083    0.240214    0.579354
     16          6           0       -8.997063    0.634652    0.751343
     17          6           0       -9.323098    1.878326    1.293551
     18          6           0       -8.293433    2.742303    1.669872
     19          6           0       -6.964011    2.365370    1.502970
     20          6           0       -2.631922   -1.604385   -0.003998
     21          6           0       -1.226438   -1.641037    0.601382
     22          6           0        4.416900   -0.421141   -0.453674
     23          6           0        4.632765   -1.331152   -1.504041
     24          6           0        5.517607   -1.046893   -2.535707
     25          6           0        6.225606    0.164761   -2.543371
     26          8           0        7.073049    0.348457   -3.596258
     27          6           0        7.823719    1.551563   -3.652589
     28          6           0        6.028942    1.082023   -1.505539
     29          6           0        5.128188    0.780072   -0.479998
     30          1           0        5.100305   -1.199103    2.883177
     31          1           0        5.894532   -1.915044    1.470831
     32          1           0        5.192424   -2.957602    2.718824
     33          1           0        2.893269   -2.168324    2.139174
     34          1           0        3.668410   -2.875408    0.722887
     35          1           0        3.463411    0.098086    1.391887
     36          1           0        1.955481   -0.820254   -0.888164
     37          1           0       -0.211553   -0.523015   -0.944470
     38          1           0       -0.593949    1.725198    0.007795
     39          1           0       -1.187782    1.007598    1.510875
     40          1           0       -3.076223    1.756334    0.085190
     41          1           0       -2.489253    0.803734   -1.269111
     42          1           0       -4.647999    1.525884    1.177028
     43          1           0       -7.424429   -0.730308    0.173047
     44          1           0       -9.787074   -0.051233    0.456019
     45          1           0      -10.361511    2.169399    1.423240
     46          1           0       -8.521239    3.715933    2.095872
     47          1           0       -6.168191    3.047900    1.797166
     48          1           0       -2.577569   -1.738854   -1.098321
     49          1           0       -3.251578   -2.411218    0.386531
     50          1           0       -0.736932   -2.581600    0.319002
     51          1           0       -1.293906   -1.620555    1.694917
     52          1           0        4.106226   -2.282992   -1.514351
     53          1           0        5.684897   -1.749963   -3.345791
     54          1           0        7.170939    2.432297   -3.715199
     55          1           0        8.486051    1.654923   -2.783000
     56          1           0        8.427179    1.485241   -4.559563
     57          1           0        6.562710    2.025257   -1.483646
     58          1           0        4.980655    1.504098    0.317885
 ---------------------------------------------------------------------

 SCF Done:  E(RB3LYP) =  -1283.87983519     A.U. after   15 cycles

 Excitation energies and oscillator strengths:

 Excited state symmetry could not be determined.
 Excited State   1:      Triplet-?Sym    3.6135 eV  343.12 nm  f=0.0000  <S**2>=2.000
      98 ->109        -0.10080
     103 ->110         0.35322
     104 ->110         0.12587
     106 ->109         0.56618
     106 ->112         0.11285
 This state for optimization and/or second-order correction.
 Total Energy, E(TD-HF/TD-DFT) =  -1283.74704216
 Copying the excited state density for this state as the 1-particle RhoCI density.

 Excited state symmetry could not be determined.
 Excited State   2:      Triplet-?Sym    3.7048 eV  334.66 nm  f=0.0000  <S**2>=2.000
     100 ->107        -0.40103
     105 ->108         0.53961

 Excited state symmetry could not be determined.
 Excited State   3:      Singlet-?Sym    5.0430 eV  245.85 nm  f=0.0000  <S**2>=0.000
     106 ->107         0.69546

 Excited state symmetry could not be determined.
 Excited State   4:      Singlet-?Sym    5.0436 eV  245.83 nm  f=0.0122  <S**2>=0.000
     103 ->109        -0.29685
     104 ->109        -0.12193
     106 ->107        -0.11058
     106 ->110         0.61340

 Alpha  occ. eigenvalues --  -19.18635 -19.10797 -19.10616 -14.36782 -14.35958
 Alpha  occ. eigenvalues --  -14.35521 -10.31027 -10.28124 -10.25628 -10.24881
 Alpha  occ. eigenvalues --  -10.23259 -10.22965 -10.22933 -10.21406 -10.20447
 Alpha  occ. eigenvalues --  -10.20038 -10.19973 -10.19824 -10.19690 -10.19440
 Alpha  occ. eigenvalues --  -10.19395 -10.18974 -10.18478 -10.18418 -10.18085
 Alpha  occ. eigenvalues --  -10.18034 -10.17622 -10.17260 -10.17255  -1.07230
 Alpha  occ. eigenvalues --   -1.04271  -1.02700  -0.94138  -0.92607  -0.92240
 Alpha  occ. eigenvalues --   -0.85983  -0.83683  -0.81376  -0.78900  -0.76674
 Alpha  occ. eigenvalues --   -0.76052  -0.75142  -0.73862  -0.73570  -0.71492
 Alpha  occ. eigenvalues --   -0.69218  -0.66705  -0.64178  -0.62376  -0.62255
 Alpha  occ. eigenvalues --   -0.61039  -0.60710  -0.59040  -0.57426  -0.57299
 Alpha  occ. eigenvalues --   -0.55518  -0.54780  -0.54110  -0.52010  -0.51254
 Alpha  occ. eigenvalues --   -0.49411  -0.48356  -0.47907  -0.47612  -0.46685
 Alpha  occ. eigenvalues --   -0.46606  -0.45725  -0.45504  -0.44475  -0.44078
 Alpha  occ. eigenvalues --   -0.43520  -0.43017  -0.42921  -0.42587  -0.42117
 Alpha  occ. eigenvalues --   -0.41847  -0.41583  -0.41102  -0.40749  -0.40092
 Alpha  occ. eigenvalues --   -0.39584  -0.38443  -0.37840  -0.37172  -0.36696
 Alpha  occ. eigenvalues --   -0.36562  -0.36078  -0.35786  -0.35341  -0.35016
 Alpha  occ. eigenvalues --   -0.34235  -0.33725  -0.33555  -0.33316  -0.33033
 Alpha  occ. eigenvalues --   -0.32359  -0.31931  -0.29869  -0.26122  -0.26083
 Alpha  occ. eigenvalues --   -0.25028  -0.24654  -0.24219  -0.23649  -0.22522
 Alpha  occ. eigenvalues --   -0.20646
 Alpha virt. eigenvalues --   -0.01227  -0.00076   0.00626   0.00852   0.02994
 Alpha virt. eigenvalues --    0.05583   0.06658   0.07572   0.08270   0.09729
 Alpha virt. eigenvalues --    0.10049   0.10872   0.11164   0.11656   0.12267

 Mulliken charges:
               1
     1  C   -0.452052
     2  C   -0.253287
     3  C   -0.016620
     4  N   -0.624567
     5  C    0.632618
     6  O   -0.543054
     7  C   -0.190216
     8  C   -0.260979
     9  C   -0.150153
    10  N   -0.473576
    11  C    0.790371
    12  O   -0.531105
    13  N   -0.758926
    14  C    0.366105
    15  C   -0.161278
    16  C   -0.144444
    17  C   -0.130291
    18  C   -0.132469
    19  C   -0.205251
    20  C   -0.133682
    21  C   -0.268964
    22  C    0.140437
    23  C   -0.196237
    24  C   -0.170988
    25  C    0.377183
    26  O   -0.505411
    27  C   -0.216850
    28  C   -0.194055
    29  C   -0.197897
    30  H    0.147184
    31  H    0.152232
    32  H    0.146615
    33  H    0.166498
    34  H    0.127356
    35  H    0.161770
    36  H    0.324847
    37  H    0.112876
    38  H    0.139657
    39  H    0.173484
    40  H    0.141898
    41  H    0.142210
    42  H    0.333297
    43  H    0.182418
    44  H    0.129652
    45  H    0.123487
    46  H    0.126408
    47  H    0.114395
    48  H    0.131459
    49  H    0.189824
    50  H    0.139665
    51  H    0.171340
    52  H    0.133431
    53  H    0.141952
    54  H    0.153144
    55  H    0.154451
    56  H    0.172768
    57  H    0.135205
    58  H    0.136114
 Sum of Mulliken charges =  -0.00000

 Dipole moment (field-independent basis, Debye):
    X=              5.0004    Y=              3.0114    Z=             -3.0988  Tot=              6.6087
 Quadrupole moment (field-independent basis, Debye-Ang):
   XX=           -170.9105   YY=           -161.2020   ZZ=           -176.0112
   XY=             -1.6178   XZ=             -9.4070   YZ=              0.9559

 Normal termination of Gaussian 16 at Sat Nov  5 11:49:28 2022.
