 Gaussian 16, Revision B.01,
 Gaussian 16:  ES64L-G16RevB.01 20-Dec-2017

 -----------------------------
 #p b3lyp/6-31g(d) opt SCF=XQC
 -----------------------------

 ------------------------------
 Gaussian input prepared by ASE
 ------------------------------
 Symbolic Z-matrix:
 Charge =  0 Multiplicity = 1

 SCF Done:  E(RB3LYP) =  -1283.87079422     A.U. after   15 cycles
 SCF Done:  E(RB3LYP) =  -1283.87707125     A.U. after   12 cycles
 SCF Done:  E(RB3LYP) =  -1283.87754827     A.U. after   12 cycles
 SCF Done:  E(RB3LYP) =  -1283.87775316     A.U. after   11 cycles
 SCF Done:  E(RB3LYP) =  -1283.87790605     A.U. after   11 cycles
 SCF Done:  E(RB3LYP) =  -1283.87817265     A.U. after   12 cycles
 SCF Done:  E(RB3LYP) =  -1283.87830046     A.U. after   12 cycles
 SCF Done:  E(RB3LYP) =  -1283.87838626     A.U. after   11 cycles
 SCF Done:  E(RB3LYP) =  -1283.87844222     A.U. after   11 cycles
 SCF Done:  E(RB3LYP) =  -1283.87840855     A.U. after   10 cycles
 SCF Done:  E(RB3LYP) =  -1283.87979918     A.U. after    8 cycles
 SCF Done:  E(RB3LYP) =  -1283.87981623     A.U. after   11 cycles
 SCF Done:  E(RB3LYP) =  -1283.87982708     A.U. after   11 cycles
 SCF Done:  E(RB3LYP) =  -1283.87983067     A.U. after    9 cycles
 SCF Done:  E(RB3LYP) =  -1283.87983140     A.U. after    9 cycles
 SCF Done:  E(RB3LYP) =  -1283.87983181     A.U. after    8 cycles
 SCF Done:  E(RB3LYP) =  -1283.87983190     A.U. after    7 cycles
 SCF Done:  E(RB3LYP) =  -1283.87983198     A.U. after    7 cycles
 SCF Done:  E(RB3LYP) =  -1283.87983204     A.U. after    7 cycles
 SCF Done:  E(RB3LYP) =  -1283.87983206     A.U. after    6 cycles
 Optimization completed.
    -- Stationary point found.

                         Standard orientation:
 ---------------------------------------------------------------------
 Center     Atomic      Atomic             Coordinates (Angstroms)
 Number     Number       Type             X           Y           Z
 ---------------------------------------------------------------------
      1          6           0        4.995830    3.315363   -1.043728
      2          6           0        3.814099    2.708761   -0.282254
      3          6           0        3.568745    1.222467   -0.622076
      4          7           0        2.327238    0.740093    0.007926
      5          6           0        1.095358    1.000302   -0.513015
      6          8           0        0.933471    1.693370   -1.515304
      7          6           0       -0.090686    0.394054    0.241955
      8          6           0       -0.993791   -0.387658   -0.728953
      9          6           0       -2.269420   -0.877097   -0.036125
     10          7           0       -2.989972    0.237652    0.587214
     11          6           0       -4.369731    0.249124    0.797377
     12          8           0       -4.879842    0.811666    1.760097
     13          7           0       -5.105734   -0.381718   -0.196163
     14          6           0       -6.501352   -0.572879   -0.255022
     15          6           0       -7.375910   -0.290564    0.806284
     16          6           0       -8.739634   -0.542850    0.655791
     17          6           0       -9.256967   -1.068893   -0.528547
     18          6           0       -8.384705   -1.346836   -1.582202
     19          6           0       -7.020913   -1.103246   -1.447916
     20          6           0       -2.182749    0.962517    1.572300
     21          6           0       -0.910477    1.510855    0.921253
     22          6           0        4.713463    0.299587   -0.241795
     23          6           0        5.187087    0.224974    1.080363
     24          6           0        6.216892   -0.637878    1.431178
     25          6           0        6.814664   -1.454204    0.458703
     26          8           0        7.819726   -2.263124    0.901395
     27          6           0        8.468759   -3.104497   -0.039344
     28          6           0        6.361531   -1.392180   -0.863403
     29          6           0        5.318652   -0.522169   -1.194686
     30          1           0        4.847233    3.237611   -2.127788
     31          1           0        5.937232    2.811976   -0.797815
     32          1           0        5.108930    4.377630   -0.801255
     33          1           0        2.895126    3.250448   -0.529961
     34          1           0        3.966405    2.814428    0.800050
     35          1           0        3.405417    1.157305   -1.704044
     36          1           0        2.410388    0.106663    0.790330
     37          1           0        0.271867   -0.295224    1.020054
     38          1           0       -0.455384   -1.251248   -1.139719
     39          1           0       -1.249539    0.269931   -1.566534
     40          1           0       -2.905512   -1.392519   -0.758195
     41          1           0       -2.010043   -1.623910    0.735360
     42          1           0       -4.623958   -0.573703   -1.061803
     43          1           0       -6.983820    0.131110    1.720505
     44          1           0       -9.405839   -0.317885    1.484846
     45          1           0      -10.321835   -1.257258   -0.630628
     46          1           0       -8.763082   -1.755673   -2.515481
     47          1           0       -6.348539   -1.326213   -2.274915
     48          1           0       -1.922158    0.295103    2.412079
     49          1           0       -2.795299    1.765787    1.980965
     50          1           0       -0.303969    2.015112    1.684067
     51          1           0       -1.174590    2.257744    0.164160
     52          1           0        4.749492    0.856885    1.850133
     53          1           0        6.583060   -0.694490    2.451593
     54          1           0        7.768931   -3.819379   -0.492021
     55          1           0        8.953689   -2.522383   -0.834039
     56          1           0        9.228587   -3.650689    0.522350
     57          1           0        6.804829   -2.009360   -1.636484
     58          1           0        4.972354   -0.487604   -2.224968
 ---------------------------------------------------------------------

 The electronic state is 1-A.
 Alpha  occ. eigenvalues --  -19.18635 -19.10797 -19.10616 -14.36782 -14.35958
 Alpha  occ. eigenvalues --  -14.35521 -10.31027 -10.28124 -10.25628 -10.24881
 Alpha  occ. eigenvalues --  -10.23259 -10.22965 -10.22933 -10.21406 -10.20447
 Alpha  occ. eigenvalues --  -10.20038 -10.19973 -10.19824 -10.19690 -10.19440
 Alpha  occ. eigenvalues --  -10.19395 -10.18974 -10.18478 -10.18418 -10.18085
 Alpha  occ. eigenvalues --  -10.18034 -10.17622 -10.17260 -10.17255  -1.07230
 Alpha  occ. eigenvalues --   -1.04271  -1.02700  -0.94138  -0.92607  -0.92240
 Alpha  occ. eigenvalues --   -0.85983  -0.83683  -0.81376  -0.78900  -0.76674
 Alpha  occ. eigenvalues --   -0.76052  -0.75142  -0.73862  -0.73570  -0.71492
 Alpha  occ. eigenvalues --   -0.69218  -0.66705  -0.64178  -0.62376  -0.62255
 Alpha  occ. eigenvalues --   -0.61039  -0.60710  -0.59040  -0.57426  -0.57299
 Alpha  occ. eigenvalues --   -0.55518  -0.54780  -0.54110  -0.52010  -0.51254
 Alpha  occ. eigenvalues --   -0.49411  -0.48356  -0.47907  -0.47612  -0.46685
 Alpha  occ. eigenvalues --   -0.46606  -0.45725  -0.45504  -0.44475  -0.44078
 Alpha  occ. eigenvalues --   -0.43520  -0.43017  -0.42921  -0.42587  -0.42117
 Alpha  occ. eigenvalues --   -0.41847  -0.41583  -0.41103  -0.40749  -0.40092
 Alpha  occ. eigenvalues --   -0.39584  -0.38443  -0.37840  -0.37172  -0.36696
 Alpha  occ. eigenvalues --   -0.36562  -0.36078  -0.35786  -0.35341  -0.35016
 Alpha  occ. eigenvalues --   -0.34235  -0.33725  -0.33555  -0.33316  -0.33033
 Alpha  occ. eigenvalues --   -0.32359  -0.31931  -0.29869  -0.26122  -0.26083
 Alpha  occ. eigenvalues --   -0.25028  -0.24654  -0.24219  -0.23649  -0.22522
 Alpha  occ. eigenvalues --   -0.20646
 Alpha virt. eigenvalues --   -0.01227  -0.00076   0.00626   0.00852   0.02994
 Alpha virt. eigenvalues --    0.05583   0.06659   0.07572   0.08270   0.09729
 Alpha virt. eigenvalues --    0.10049   0.10872   0.11164   0.11656   0.12267

 Mulliken charges:
               1
     1  C   -0.452053
     2  C   -0.253276
     3  C   -0.016620
     4  N   -0.624568
     5  C    0.632615
     6  O   -0.543059
     7  C   -0.190186
     8  C   -0.260985
     9  C   -0.150157
    10  N   -0.473574
    11  C    0.790371
    12  O   -0.531106
    13  N   -0.758921
    14  C    0.366116
    15  C   -0.161287
    16  C   -0.144446
    17  C   -0.130285
    18  C   -0.132471
    19  C   -0.205257
    20  C   -0.133674
    21  C   -0.268992
    22  C    0.140438
    23  C   -0.196246
    24  C   -0.170978
    25  C    0.377205
    26  O   -0.505419
    27  C   -0.216853
    28  C   -0.194076
    29  C   -0.197892
    30  H    0.147182
    31  H    0.152232
    32  H    0.146615
    33  H    0.166495
    34  H    0.127353
    35  H    0.161769
    36  H    0.324847
    37  H    0.112875
    38  H    0.139656
    39  H    0.173483
    40  H    0.141899
    41  H    0.142211
    42  H    0.333297
    43  H    0.182419
    44  H    0.129652
    45  H    0.123487
    46  H    0.126409
    47  H    0.114394
    48  H    0.131458
    49  H    0.189825
    50  H    0.139669
    51  H    0.171342
    52  H    0.133433
    53  H    0.141951
    54  H    0.153145
    55  H    0.154451
    56  H    0.172769
    57  H    0.135208
    58  H    0.136116
 Sum of Mulliken charges =  -0.00000

 Dipole moment (field-independent basis, Debye):
    X=              5.2159    Y=             -3.9603    Z=             -0.8864  Tot=              6.6087
 Quadrupole moment (field-independent basis, Debye-Ang):
   XX=           -164.6249   YY=           -170.3083   ZZ=           -170.4116
   XY=             -4.9509   XZ=              6.8030   YZ=              8.9620

 Normal termination of Gaussian 16 at Fri Nov  4 20:13:43 2022.
