 Gaussian 16, Revision B.01,
 Gaussian 16:  ES64L-G16RevB.01 20-Dec-2017

 -------------------------------------------------------------------
 #p b3lyp/6-31g(d) 6D 10F nosymm GFInput td=(50-50,nstate=2) SCF=XQC
 -------------------------------------------------------------------

 ------------------------------
 Gaussian input prepared by ASE
 ------------------------------
 Symbolic Z-matrix:
 Charge =  0 Multiplicity = 1

                          Input orientation:
 ---------------------------------------------------------------------
 Center     Atomic      Atomic             Coordinates (Angstroms)
 Number     Number       Type             X           Y           Z
 ---------------------------------------------------------------------
      1          6           0        0.869888   -0.336293   -4.654445
      2          6           0        1.609977    0.305238   -3.481217
      3          7           0        2.350802   -0.685137   -2.681281
      4          7           0        1.679586   -1.204619   -1.647229
      5          6           0        2.242085   -2.108492   -0.887656
      6          6           0        1.392705   -2.589463    0.253241
      7          8           0        1.810790   -3.240094    1.191495
      8          8           0        0.100893   -2.222579    0.121129
      9          6           0       -0.795590   -2.629805    1.183156
     10          6           0       -2.208307   -2.627000    0.605832
     11          6           0       -0.707711   -1.792747    2.474377
     12          8           0       -1.016130   -2.363963    3.517280
     13          7           0       -0.322257   -0.480857    2.433445
     14          6           0       -0.282300    0.258317    3.692424
     15          6           0       -1.477930    1.226177    3.799535
     16          7           0       -1.894572    1.679196    2.465514
     17          6           0       -2.728210    2.875665    2.529410
     18          6           0       -3.464547    3.163828    1.234176
     19          6           0       -4.169038    2.145221    0.576716
     20          6           0       -4.880490    2.413869   -0.591605
     21          6           0       -4.900818    3.707328   -1.121166
     22          6           0       -4.201348    4.727017   -0.475966
     23          6           0       -3.485721    4.453298    0.692369
     24          6           0       -0.751925    1.786437    1.566830
     25          6           0       -0.233310    0.371720    1.237803
     26          6           0        3.594303   -2.599584   -1.115728
     27          6           0        4.251801   -3.570626   -0.328046
     28          6           0        5.539717   -3.971088   -0.652094
     29          6           0        6.212751   -3.426628   -1.758129
     30          6           0        5.584440   -2.474271   -2.543609
     31          6           0        4.281849   -2.058225   -2.228769
     32          6           0        3.644892   -1.052011   -3.086056
     33          8           0        4.154347   -0.542372   -4.079037
     34          1           0        0.156304   -1.087140   -4.299360
     35          1           0        0.316643    0.429860   -5.208711
     36          1           0        1.576612   -0.812191   -5.340336
     37          1           0        0.916119    0.790617   -2.792267
     38          1           0        2.339314    1.034911   -3.837150
     39          1           0       -0.515386   -3.635174    1.500665
     40          1           0       -2.905698   -2.965252    1.377444
     41          1           0       -2.511080   -1.628025    0.276378
     42          1           0       -2.267043   -3.307374   -0.249112
     43          1           0       -0.291658   -0.462619    4.508706
     44          1           0        0.662567    0.813597    3.732337
     45          1           0       -2.331471    0.730764    4.277808
     46          1           0       -1.179632    2.072666    4.448131
     47          1           0       -2.148599    3.770584    2.832092
     48          1           0       -3.461736    2.704943    3.329907
     49          1           0       -4.143828    1.140074    0.988377
     50          1           0       -5.423054    1.614177   -1.089561
     51          1           0       -5.456700    3.916509   -2.031339
     52          1           0       -4.206647    5.735032   -0.882582
     53          1           0       -2.938142    5.251190    1.189778
     54          1           0       -1.071209    2.265899    0.637161
     55          1           0        0.055855    2.416612    1.988037
     56          1           0        0.799817    0.428876    0.869930
     57          1           0       -0.838132   -0.056687    0.440586
     58          1           0        3.743437   -3.987558    0.530035
     59          1           0        6.032673   -4.718437   -0.036326
     60          1           0        7.221486   -3.752069   -1.996046
     61          1           0        6.068565   -2.031200   -3.407277
 ---------------------------------------------------------------------

 SCF Done:  E(RB3LYP) =  -1489.44025140     A.U. after   15 cycles

 Excitation energies and oscillator strengths:

 Excited state symmetry could not be determined.
 Excited State   1:      Triplet-?Sym    2.6807 eV  462.51 nm  f=0.0000  <S**2>=2.000
     116 ->120         0.16903
     117 ->120         0.47853
     118 ->120        -0.44876
 This state for optimization and/or second-order correction.
 Total Energy, E(TD-HF/TD-DFT) =  -1489.34173737
 Copying the excited state density for this state as the 1-particle RhoCI density.

 Excited state symmetry could not be determined.
 Excited State   2:      Triplet-?Sym    3.5404 eV  350.20 nm  f=0.0000  <S**2>=2.000
     112 ->121        -0.13063
     117 ->121        -0.18285
     118 ->121         0.17087
     119 ->120         0.61979

 Excited state symmetry could not be determined.
 Excited State   3:      Singlet-?Sym    3.5475 eV  349.50 nm  f=0.0020  <S**2>=0.000
     119 ->120         0.70178

 Excited state symmetry could not be determined.
 Excited State   4:      Singlet-?Sym    3.8861 eV  319.05 nm  f=0.0064  <S**2>=0.000
     117 ->120         0.30521
     118 ->120         0.62465

 Alpha  occ. eigenvalues --  -19.19770 -19.14684 -19.12754 -19.10599 -14.42666
 Alpha  occ. eigenvalues --  -14.39730 -14.36242 -14.33281 -10.32952 -10.30194
 Alpha  occ. eigenvalues --  -10.28207 -10.25481 -10.25335 -10.23145 -10.22757
 Alpha  occ. eigenvalues --  -10.22384 -10.21879 -10.21773 -10.21764 -10.21717
 Alpha  occ. eigenvalues --  -10.21448 -10.20944 -10.20879 -10.20649 -10.20309
 Alpha  occ. eigenvalues --  -10.19711 -10.19220 -10.19168 -10.19117 -10.19100
 Alpha  occ. eigenvalues --  -10.18993 -10.18797 -10.18660  -1.11210  -1.07115
 Alpha  occ. eigenvalues --   -1.03049  -1.02196  -1.02065  -0.95210  -0.91083
 Alpha  occ. eigenvalues --   -0.88762  -0.86413  -0.85334  -0.79300  -0.78699
 Alpha  occ. eigenvalues --   -0.77679  -0.77070  -0.76961  -0.75555  -0.74448
 Alpha  occ. eigenvalues --   -0.72391  -0.69901  -0.67547  -0.66979  -0.65834
 Alpha  occ. eigenvalues --   -0.65178  -0.62887  -0.61851  -0.60722  -0.60149
 Alpha  occ. eigenvalues --   -0.58743  -0.57931  -0.57099  -0.54452  -0.53582
 Alpha  occ. eigenvalues --   -0.51879  -0.51711  -0.51114  -0.49953  -0.49201
 Alpha  occ. eigenvalues --   -0.48325  -0.47701  -0.47335  -0.47051  -0.46523
 Alpha  occ. eigenvalues --   -0.46163  -0.45715  -0.45263  -0.44639  -0.44001
 Alpha  occ. eigenvalues --   -0.43742  -0.42881  -0.42807  -0.42602  -0.42494
 Alpha  occ. eigenvalues --   -0.41967  -0.41206  -0.40539  -0.40368  -0.40028
 Alpha  occ. eigenvalues --   -0.39646  -0.39176  -0.38754  -0.38073  -0.37909
 Alpha  occ. eigenvalues --   -0.37787  -0.37771  -0.36968  -0.36775  -0.36264
 Alpha  occ. eigenvalues --   -0.36090  -0.35890  -0.35371  -0.34834  -0.34184
 Alpha  occ. eigenvalues --   -0.34022  -0.33221  -0.32412  -0.31238  -0.29051
 Alpha  occ. eigenvalues --   -0.28068  -0.26717  -0.25885  -0.25165  -0.24665
 Alpha  occ. eigenvalues --   -0.24542  -0.23781  -0.23365  -0.21801
 Alpha virt. eigenvalues --   -0.07179  -0.04985  -0.01325  -0.00590  -0.00165
 Alpha virt. eigenvalues --    0.02317   0.05418   0.07525   0.08027   0.09239
 Alpha virt. eigenvalues --    0.09496   0.09634   0.10664   0.10937   0.11571

 Mulliken charges:
               1
     1  C   -0.453605
     2  C   -0.129370
     3  N   -0.315613
     4  N   -0.327934
     5  C    0.144698
     6  C    0.650236
     7  O   -0.486333
     8  O   -0.479834
     9  C    0.040166
    10  C   -0.467710
    11  C    0.596468
    12  O   -0.526313
    13  N   -0.431616
    14  C   -0.186302
    15  C   -0.108061
    16  N   -0.395465
    17  C   -0.195062
    18  C    0.143134
    19  C   -0.168138
    20  C   -0.131363
    21  C   -0.129427
    22  C   -0.128401
    23  C   -0.187171
    24  C   -0.165443
    25  C   -0.119147
    26  C    0.128392
    27  C   -0.198832
    28  C   -0.126456
    29  C   -0.127784
    30  C   -0.169746
    31  C    0.028424
    32  C    0.584306
    33  O   -0.529417
    34  H    0.161681
    35  H    0.154418
    36  H    0.177260
    37  H    0.167180
    38  H    0.185474
    39  H    0.194578
    40  H    0.179254
    41  H    0.163993
    42  H    0.163898
    43  H    0.200389
    44  H    0.151157
    45  H    0.158675
    46  H    0.115973
    47  H    0.117816
    48  H    0.157665
    49  H    0.139768
    50  H    0.129714
    51  H    0.129436
    52  H    0.129782
    53  H    0.124496
    54  H    0.164193
    55  H    0.119654
    56  H    0.147406
    57  H    0.178969
    58  H    0.194010
    59  H    0.146001
    60  H    0.144728
    61  H    0.171150
 Sum of Mulliken charges =  -0.00000

 Dipole moment (field-independent basis, Debye):
    X=             -0.2472    Y=              2.2100    Z=             -1.4280  Tot=              2.6428
 Quadrupole moment (field-independent basis, Debye-Ang):
   XX=           -183.1143   YY=           -184.2114   ZZ=           -203.4342
   XY=             -9.6314   XZ=             11.2683   YZ=             13.8025

 Normal termination of Gaussian 16 at Sat Nov  5 11:50:31 2022.
