 Gaussian 16, Revision B.01,
 Gaussian 16:  ES64L-G16RevB.01 20-Dec-2017

 -----------------------------
 #p b3lyp/6-31g(d) opt SCF=XQC
 -----------------------------

 ------------------------------
 Gaussian input prepared by ASE
 ------------------------------
 Symbolic Z-matrix:
 Charge =  0 Multiplicity = 1

 SCF Done:  E(RB3LYP) =  -1489.42804444     A.U. after   15 cycles
 SCF Done:  E(RB3LYP) =  -1489.43270188     A.U. after   15 cycles
 SCF Done:  E(RB3LYP) =  -1489.43594442     A.U. after   15 cycles
 SCF Done:  E(RB3LYP) =  -1489.43760379     A.U. after   12 cycles
 SCF Done:  E(RB3LYP) =  -1489.43858437     A.U. after   13 cycles
 SCF Done:  E(RB3LYP) =  -1489.43914839     A.U. after   12 cycles
 SCF Done:  E(RB3LYP) =  -1489.43925257     A.U. after   13 cycles
 SCF Done:  E(RB3LYP) =  -1489.43943059     A.U. after   12 cycles
 SCF Done:  E(RB3LYP) =  -1489.43955766     A.U. after   12 cycles
 SCF Done:  E(RB3LYP) =  -1489.43963460     A.U. after   11 cycles
 SCF Done:  E(RB3LYP) =  -1489.44024264     A.U. after   10 cycles
 SCF Done:  E(RB3LYP) =  -1489.44024362     A.U. after   10 cycles
 SCF Done:  E(RB3LYP) =  -1489.44024341     A.U. after    9 cycles
 SCF Done:  E(RB3LYP) =  -1489.44024384     A.U. after    9 cycles
 SCF Done:  E(RB3LYP) =  -1489.44024403     A.U. after    9 cycles
 SCF Done:  E(RB3LYP) =  -1489.44024410     A.U. after    8 cycles
 SCF Done:  E(RB3LYP) =  -1489.44024414     A.U. after    7 cycles
 SCF Done:  E(RB3LYP) =  -1489.44024416     A.U. after    6 cycles
 SCF Done:  E(RB3LYP) =  -1489.44024418     A.U. after    7 cycles
 SCF Done:  E(RB3LYP) =  -1489.44024419     A.U. after    6 cycles
 Optimization completed.
    -- Stationary point found.

                         Standard orientation:
 ---------------------------------------------------------------------
 Center     Atomic      Atomic             Coordinates (Angstroms)
 Number     Number       Type             X           Y           Z
 ---------------------------------------------------------------------
      1          6           0        1.959200   -3.992200    1.397892
      2          6           0        1.809614   -3.289795    0.048815
      3          7           0        2.648196   -2.082648   -0.046777
      4          7           0        2.056959   -0.942723    0.328275
      5          6           0        2.723782    0.181965    0.300591
      6          6           0        1.937641    1.390632    0.719552
      7          8           0        2.298460    2.537961    0.540994
      8          8           0        0.777935    1.063003    1.326659
      9          6           0       -0.057968    2.165317    1.755127
     10          6           0       -0.972090    1.635696    2.856473
     11          6           0       -0.859600    2.856299    0.634605
     12          8           0       -1.142965    4.037901    0.815097
     13          7           0       -1.239639    2.164928   -0.482930
     14          6           0       -2.016210    2.876656   -1.494553
     15          6           0       -3.498131    2.452943   -1.448337
     16          7           0       -3.622294    1.064581   -0.984153
     17          6           0       -4.928199    0.495663   -1.302768
     18          6           0       -5.227630   -0.782684   -0.541829
     19          6           0       -5.021140   -0.848758    0.843494
     20          6           0       -5.332770   -2.007286    1.553429
     21          6           0       -5.858434   -3.119292    0.889346
     22          6           0       -6.065363   -3.064442   -0.488870
     23          6           0       -5.747791   -1.903243   -1.197965
     24          6           0       -2.489266    0.260322   -1.424825
     25          6           0       -1.226193    0.704421   -0.659273
     26          6           0        4.115568    0.263332   -0.121305
     27          6           0        4.882873    1.448323   -0.173355
     28          6           0        6.208178    1.399669   -0.579931
     29          6           0        6.811415    0.185084   -0.945462
     30          6           0        6.076076   -0.987914   -0.899754
     31          6           0        4.734101   -0.955407   -0.491089
     32          6           0        3.987236   -2.217765   -0.449049
     33          8           0        4.443741   -3.320801   -0.732253
     34          1           0        1.681930   -3.321277    2.217674
     35          1           0        1.304632   -4.869966    1.434649
     36          1           0        2.990111   -4.327123    1.544296
     37          1           0        0.782722   -2.956758   -0.113243
     38          1           0        2.110683   -3.950385   -0.766060
     39          1           0        0.588281    2.954248    2.142480
     40          1           0       -1.592946    2.457048    3.225354
     41          1           0       -1.628633    0.839219    2.492143
     42          1           0       -0.374947    1.242056    3.684578
     43          1           0       -1.911729    3.945209   -1.311708
     44          1           0       -1.585346    2.650267   -2.477307
     45          1           0       -4.060731    3.097658   -0.762382
     46          1           0       -3.927853    2.589762   -2.459683
     47          1           0       -5.049413    0.315864   -2.389702
     48          1           0       -5.675547    1.256285   -1.036446
     49          1           0       -4.605340    0.015705    1.353626
     50          1           0       -5.168461   -2.043239    2.627465
     51          1           0       -6.102423   -4.021816    1.443507
     52          1           0       -6.468796   -3.925578   -1.015316
     53          1           0       -5.907049   -1.866742   -2.273695
     54          1           0       -2.685106   -0.790779   -1.194727
     55          1           0       -2.331250    0.321708   -2.519496
     56          1           0       -0.327749    0.380714   -1.201454
     57          1           0       -1.208151    0.221120    0.315914
     58          1           0        4.422745    2.388148    0.097906
     59          1           0        6.785352    2.319620   -0.615495
     60          1           0        7.850421    0.166642   -1.261988
     61          1           0        6.505275   -1.946317   -1.171533
 ---------------------------------------------------------------------

 The electronic state is 1-A.
 Alpha  occ. eigenvalues --  -19.19770 -19.14684 -19.12754 -19.10599 -14.42666
 Alpha  occ. eigenvalues --  -14.39730 -14.36242 -14.33281 -10.32952 -10.30194
 Alpha  occ. eigenvalues --  -10.28207 -10.25481 -10.25335 -10.23145 -10.22757
 Alpha  occ. eigenvalues --  -10.22384 -10.21879 -10.21773 -10.21764 -10.21717
 Alpha  occ. eigenvalues --  -10.21448 -10.20944 -10.20879 -10.20649 -10.20309
 Alpha  occ. eigenvalues --  -10.19711 -10.19220 -10.19168 -10.19117 -10.19100
 Alpha  occ. eigenvalues --  -10.18993 -10.18797 -10.18660  -1.11210  -1.07115
 Alpha  occ. eigenvalues --   -1.03049  -1.02196  -1.02065  -0.95210  -0.91083
 Alpha  occ. eigenvalues --   -0.88762  -0.86413  -0.85334  -0.79300  -0.78699
 Alpha  occ. eigenvalues --   -0.77679  -0.77070  -0.76961  -0.75555  -0.74448
 Alpha  occ. eigenvalues --   -0.72391  -0.69901  -0.67547  -0.66979  -0.65834
 Alpha  occ. eigenvalues --   -0.65178  -0.62887  -0.61851  -0.60722  -0.60149
 Alpha  occ. eigenvalues --   -0.58743  -0.57931  -0.57099  -0.54452  -0.53582
 Alpha  occ. eigenvalues --   -0.51879  -0.51711  -0.51114  -0.49953  -0.49201
 Alpha  occ. eigenvalues --   -0.48325  -0.47701  -0.47335  -0.47051  -0.46523
 Alpha  occ. eigenvalues --   -0.46163  -0.45715  -0.45263  -0.44639  -0.44001
 Alpha  occ. eigenvalues --   -0.43742  -0.42881  -0.42807  -0.42602  -0.42494
 Alpha  occ. eigenvalues --   -0.41967  -0.41206  -0.40539  -0.40368  -0.40028
 Alpha  occ. eigenvalues --   -0.39646  -0.39176  -0.38754  -0.38073  -0.37909
 Alpha  occ. eigenvalues --   -0.37787  -0.37772  -0.36968  -0.36775  -0.36264
 Alpha  occ. eigenvalues --   -0.36090  -0.35890  -0.35371  -0.34834  -0.34184
 Alpha  occ. eigenvalues --   -0.34023  -0.33221  -0.32412  -0.31238  -0.29051
 Alpha  occ. eigenvalues --   -0.28068  -0.26717  -0.25885  -0.25165  -0.24665
 Alpha  occ. eigenvalues --   -0.24542  -0.23781  -0.23365  -0.21801
 Alpha virt. eigenvalues --   -0.07179  -0.04985  -0.01325  -0.00590  -0.00165
 Alpha virt. eigenvalues --    0.02317   0.05418   0.07525   0.08027   0.09239
 Alpha virt. eigenvalues --    0.09496   0.09634   0.10664   0.10937   0.11571

 Mulliken charges:
               1
     1  C   -0.453603
     2  C   -0.129376
     3  N   -0.315604
     4  N   -0.327940
     5  C    0.144712
     6  C    0.650235
     7  O   -0.486334
     8  O   -0.479833
     9  C    0.040176
    10  C   -0.467708
    11  C    0.596464
    12  O   -0.526319
    13  N   -0.431611
    14  C   -0.186306
    15  C   -0.108069
    16  N   -0.395470
    17  C   -0.195052
    18  C    0.143132
    19  C   -0.168133
    20  C   -0.131361
    21  C   -0.129426
    22  C   -0.128404
    23  C   -0.187170
    24  C   -0.165423
    25  C   -0.119154
    26  C    0.128354
    27  C   -0.198816
    28  C   -0.126451
    29  C   -0.127791
    30  C   -0.169750
    31  C    0.028445
    32  C    0.584299
    33  O   -0.529415
    34  H    0.161681
    35  H    0.154418
    36  H    0.177259
    37  H    0.167181
    38  H    0.185475
    39  H    0.194577
    40  H    0.179254
    41  H    0.163989
    42  H    0.163898
    43  H    0.200390
    44  H    0.151158
    45  H    0.158675
    46  H    0.115976
    47  H    0.117814
    48  H    0.157663
    49  H    0.139759
    50  H    0.129717
    51  H    0.129436
    52  H    0.129782
    53  H    0.124497
    54  H    0.164189
    55  H    0.119651
    56  H    0.147402
    57  H    0.178974
    58  H    0.194008
    59  H    0.146000
    60  H    0.144729
    61  H    0.171151
 Sum of Mulliken charges =  -0.00000

 Dipole moment (field-independent basis, Debye):
    X=             -0.8911    Y=             -2.3555    Z=             -0.8011  Tot=              2.6428
 Quadrupole moment (field-independent basis, Debye-Ang):
   XX=           -177.8843   YY=           -209.1169   ZZ=           -182.0589
   XY=             14.1202   XZ=              4.2373   YZ=             -7.8005

 Normal termination of Gaussian 16 at Fri Nov  4 06:53:36 2022.
