 Gaussian 16, Revision B.01,
 Gaussian 16:  ES64L-G16RevB.01 20-Dec-2017

 -----------------------------
 #p b3lyp/6-31g(d) opt SCF=XQC
 -----------------------------

 ------------------------------
 Gaussian input prepared by ASE
 ------------------------------
 Symbolic Z-matrix:
 Charge =  0 Multiplicity = 1

 SCF Done:  E(RB3LYP) =  -1395.19797222     A.U. after   14 cycles
 SCF Done:  E(RB3LYP) =  -1395.20625006     A.U. after   13 cycles
 SCF Done:  E(RB3LYP) =  -1395.20830247     A.U. after   13 cycles
 SCF Done:  E(RB3LYP) =  -1395.20993218     A.U. after   12 cycles
 SCF Done:  E(RB3LYP) =  -1395.21089391     A.U. after   12 cycles
 SCF Done:  E(RB3LYP) =  -1395.21161208     A.U. after   13 cycles
 SCF Done:  E(RB3LYP) =  -1395.21188426     A.U. after   11 cycles
 SCF Done:  E(RB3LYP) =  -1395.21195531     A.U. after   10 cycles
 SCF Done:  E(RB3LYP) =  -1395.21204542     A.U. after   10 cycles
 SCF Done:  E(RB3LYP) =  -1395.21206630     A.U. after   10 cycles
 SCF Done:  E(RB3LYP) =  -1395.21207199     A.U. after   10 cycles
 SCF Done:  E(RB3LYP) =  -1395.21207671     A.U. after    9 cycles
 SCF Done:  E(RB3LYP) =  -1395.21207981     A.U. after    9 cycles
 SCF Done:  E(RB3LYP) =  -1395.21208131     A.U. after    8 cycles
 SCF Done:  E(RB3LYP) =  -1395.21208165     A.U. after    7 cycles
 SCF Done:  E(RB3LYP) =  -1395.21208189     A.U. after    7 cycles
 SCF Done:  E(RB3LYP) =  -1395.21208197     A.U. after    7 cycles
 Optimization completed.
    -- Stationary point found.

                         Standard orientation:
 ---------------------------------------------------------------------
 Center     Atomic      Atomic             Coordinates (Angstroms)
 Number     Number       Type             X           Y           Z
 ---------------------------------------------------------------------
      1          6           0       -4.638362   -2.338664    1.652057
      2          6           0       -5.550577   -1.400004    1.400009
      3          6           0       -6.424842   -1.339097    0.161078
      4          8           0       -5.804656   -2.161180   -0.840380
      5          6           0       -7.735742   -2.011455    0.569511
      6          6           0       -8.901120   -1.454005    0.902384
      7          6           0       -6.611624    0.127850   -0.334392
      8          6           0       -7.410029    0.199670   -1.655375
      9          6           0       -5.338494    0.946381   -0.481110
     10          6           0       -4.135718    0.510492   -0.869512
     11          6           0       -2.888219    1.356826   -1.058476
     12          6           0       -3.181808    2.863062   -1.033054
     13          6           0       -1.804107    0.907690   -0.034351
     14          6           0       -1.498543   -0.623655   -0.131982
     15          6           0       -0.012699   -0.824012    0.271977
     16          6           0        0.409055    0.546943    0.811327
     17          6           0        1.862873    0.914177    0.971707
     18          6           0        2.880222    0.097616    0.609878
     19          6           0        4.299951    0.363216    0.738785
     20          6           0        5.296234   -0.463626    0.332751
     21          6           0        5.021487   -1.783097   -0.379078
     22          6           0        6.282473   -2.476380   -0.902228
     23          8           0        6.906316   -3.119746    0.214994
     24          6           0        7.214434   -1.459442   -1.561949
     25          6           0        7.714118   -0.406777   -0.562120
     26          8           0        7.974521    0.773570   -1.335149
     27          6           0        6.714043   -0.116236    0.558742
     28          6           0        7.157976    0.454797    1.690877
     29          6           0        2.019649    2.286118    1.595418
     30          6           0        1.198461    3.362884    0.850864
     31          6           0       -0.268678    2.951600    0.619180
     32          6           0       -0.388147    1.574092   -0.068477
     33          6           0        0.167255    1.629510   -1.507088
     34          1           0       -4.085165   -2.346664    2.587332
     35          1           0       -4.412730   -3.117241    0.930639
     36          1           0       -5.771422   -0.632372    2.139858
     37          1           0       -6.441428   -2.256684   -1.565828
     38          1           0       -7.627090   -3.094797    0.624926
     39          1           0       -9.072122   -0.381105    0.890540
     40          1           0       -9.742107   -2.068116    1.213241
     41          1           0       -7.213701    0.625935    0.438307
     42          1           0       -6.833911   -0.246611   -2.474198
     43          1           0       -8.377975   -0.306944   -1.583428
     44          1           0       -7.593875    1.243907   -1.930035
     45          1           0       -5.486281    2.011388   -0.302093
     46          1           0       -4.013403   -0.552463   -1.059504
     47          1           0       -2.500158    1.112465   -2.060662
     48          1           0       -4.011910    3.104695   -1.706081
     49          1           0       -2.316119    3.443776   -1.360272
     50          1           0       -3.453948    3.207669   -0.028154
     51          1           0       -2.219349    1.107210    0.965085
     52          1           0       -2.177856   -1.192128    0.509544
     53          1           0       -1.669034   -0.983907   -1.153664
     54          1           0        0.120337   -1.617148    1.015415
     55          1           0        0.588551   -1.103920   -0.600327
     56          1           0       -0.039811    0.640782    1.816556
     57          1           0        2.612846   -0.870230    0.192982
     58          1           0        4.596180    1.308846    1.185265
     59          1           0        4.346895   -1.618708   -1.229385
     60          1           0        4.510428   -2.481349    0.296565
     61          1           0        5.980175   -3.233362   -1.643202
     62          1           0        7.734288   -3.516459   -0.098914
     63          1           0        6.668217   -0.936071   -2.356208
     64          1           0        8.067649   -1.956061   -2.041776
     65          1           0        8.648518   -0.752813   -0.096124
     66          1           0        8.166379    1.485276   -0.703865
     67          1           0        8.211024    0.693134    1.831462
     68          1           0        6.495412    0.679000    2.521422
     69          1           0        1.655140    2.233194    2.634305
     70          1           0        3.066546    2.597119    1.650356
     71          1           0        1.229979    4.299328    1.422283
     72          1           0        1.679151    3.575780   -0.112077
     73          1           0       -0.786442    2.905218    1.589011
     74          1           0       -0.767685    3.735054    0.039038
     75          1           0        0.010685    0.687302   -2.042825
     76          1           0        1.242922    1.828993   -1.518573
     77          1           0       -0.324387    2.419077   -2.086769
 ---------------------------------------------------------------------

 The electronic state is 1-A.
 Alpha  occ. eigenvalues --  -19.14991 -19.14028 -19.13426 -10.25050 -10.23399
 Alpha  occ. eigenvalues --  -10.23165 -10.19525 -10.19286 -10.18871 -10.18731
 Alpha  occ. eigenvalues --  -10.18623 -10.18597 -10.18591 -10.18587 -10.18453
 Alpha  occ. eigenvalues --  -10.18146 -10.18030 -10.17868 -10.17852 -10.17829
 Alpha  occ. eigenvalues --  -10.17819 -10.17813 -10.17521 -10.17418 -10.17343
 Alpha  occ. eigenvalues --  -10.17297 -10.17231 -10.17188 -10.17090 -10.16828
 Alpha  occ. eigenvalues --  -10.16785 -10.16731 -10.16535  -1.02450  -1.01433
 Alpha  occ. eigenvalues --   -1.00641  -0.85643  -0.83060  -0.82070  -0.80635
 Alpha  occ. eigenvalues --   -0.78484  -0.77566  -0.76518  -0.76085  -0.75415
 Alpha  occ. eigenvalues --   -0.74794  -0.72185  -0.70644  -0.69945  -0.68233
 Alpha  occ. eigenvalues --   -0.67491  -0.66853  -0.65778  -0.63546  -0.62844
 Alpha  occ. eigenvalues --   -0.59723  -0.59014  -0.58066  -0.57625  -0.57004
 Alpha  occ. eigenvalues --   -0.56243  -0.55017  -0.53230  -0.52075  -0.51745
 Alpha  occ. eigenvalues --   -0.50637  -0.49644  -0.49452  -0.49148  -0.47589
 Alpha  occ. eigenvalues --   -0.47086  -0.46883  -0.45972  -0.45596  -0.44421
 Alpha  occ. eigenvalues --   -0.44205  -0.44154  -0.43705  -0.42945  -0.42862
 Alpha  occ. eigenvalues --   -0.42491  -0.41522  -0.41435  -0.41079  -0.40637
 Alpha  occ. eigenvalues --   -0.40519  -0.40171  -0.39422  -0.38804  -0.38650
 Alpha  occ. eigenvalues --   -0.38430  -0.38247  -0.37990  -0.37645  -0.37097
 Alpha  occ. eigenvalues --   -0.36959  -0.35910  -0.35827  -0.35400  -0.34731
 Alpha  occ. eigenvalues --   -0.34435  -0.34236  -0.33725  -0.33332  -0.33203
 Alpha  occ. eigenvalues --   -0.32629  -0.32565  -0.31960  -0.31195  -0.31051
 Alpha  occ. eigenvalues --   -0.30845  -0.30405  -0.30179  -0.29634  -0.29046
 Alpha  occ. eigenvalues --   -0.28760  -0.27882  -0.26757  -0.25947  -0.25843
 Alpha  occ. eigenvalues --   -0.25183  -0.24588  -0.22883  -0.19095
 Alpha virt. eigenvalues --   -0.03218  -0.00550   0.03145   0.03547   0.04460
 Alpha virt. eigenvalues --    0.06798   0.07628   0.08013   0.09098   0.09525
 Alpha virt. eigenvalues --    0.09939   0.10334   0.10446   0.11448   0.11979

 Mulliken charges:
               1
     1  C   -0.343674
     2  C   -0.054837
     3  C    0.248048
     4  O   -0.653220
     5  C   -0.089850
     6  C   -0.344280
     7  C   -0.123488
     8  C   -0.469518
     9  C   -0.147856
    10  C   -0.100805
    11  C   -0.129856
    12  C   -0.464561
    13  C   -0.072229
    14  C   -0.309921
    15  C   -0.287815
    16  C   -0.169227
    17  C    0.177576
    18  C   -0.213270
    19  C   -0.180770
    20  C    0.098469
    21  C   -0.337571
    22  C    0.112824
    23  O   -0.622729
    24  C   -0.318292
    25  C    0.095373
    26  O   -0.630449
    27  C    0.156678
    28  C   -0.416980
    29  C   -0.336270
    30  C   -0.268650
    31  C   -0.275234
    32  C    0.092021
    33  C   -0.480485
    34  H    0.136371
    35  H    0.160340
    36  H    0.130080
    37  H    0.397375
    38  H    0.141485
    39  H    0.144833
    40  H    0.145167
    41  H    0.124033
    42  H    0.144630
    43  H    0.148847
    44  H    0.150188
    45  H    0.114854
    46  H    0.158709
    47  H    0.126251
    48  H    0.143355
    49  H    0.148458
    50  H    0.142465
    51  H    0.115605
    52  H    0.158920
    53  H    0.133633
    54  H    0.136844
    55  H    0.137619
    56  H    0.124760
    57  H    0.124589
    58  H    0.121822
    59  H    0.149828
    60  H    0.170715
    61  H    0.114087
    62  H    0.387709
    63  H    0.161033
    64  H    0.134633
    65  H    0.116325
    66  H    0.383435
    67  H    0.129812
    68  H    0.146573
    69  H    0.140825
    70  H    0.144360
    71  H    0.131600
    72  H    0.141510
    73  H    0.122138
    74  H    0.132600
    75  H    0.145005
    76  H    0.154495
    77  H    0.142928
 Sum of Mulliken charges =  -0.00000

 Dipole moment (field-independent basis, Debye):
    X=             -1.9440    Y=              0.2936    Z=             -0.2382  Tot=              1.9804
 Quadrupole moment (field-independent basis, Debye-Ang):
   XX=           -177.8016   YY=           -196.1944   ZZ=           -202.8122
   XY=             -4.2167   XZ=              3.2103   YZ=              9.9443

 1\1\GINC-NODE58\FOpt\RB3LYP\6-31G(d)\C30H44O3\WYKGROUP\04-Nov-2022\0\\
 #p b3lyp/6-31g(d) opt SCF=XQC\\Gaussian input prepared by ASE\\0,1\C,-
 4.6029438329,-2.0059208729,-1.6781363499\C,-5.426224836,-1.4999375424,
 -0.7600209684\C,-6.2587288966,-0.2423483221,-0.9285667702\O,-5.6829176
 112,0.5097354283,-2.0084654091\C,-7.6318368284,-0.7360789835,-1.384796
 1611\C,-8.7549392091,-0.8756741839,-0.6785294291\C,-6.308597764,0.5902
 679323,0.389224861\C,-7.0624179531,1.9266207603,0.2061379516\C,-4.9678
 972123,0.8657085201,1.0518202897\C,-3.7958666664,1.0859301701,0.447359

 Normal termination of Gaussian 16 at Fri Nov  4 19:29:02 2022.
