 Gaussian 16, Revision B.01,
 Gaussian 16:  ES64L-G16RevB.01 20-Dec-2017

 -------------------------------------------------------------------
 #p b3lyp/6-31g(d) 6D 10F nosymm GFInput td=(50-50,nstate=2) SCF=XQC
 -------------------------------------------------------------------

 ------------------------------
 Gaussian input prepared by ASE
 ------------------------------
 Symbolic Z-matrix:
 Charge =  0 Multiplicity = 1

                          Input orientation:
 ---------------------------------------------------------------------
 Center     Atomic      Atomic             Coordinates (Angstroms)
 Number     Number       Type             X           Y           Z
 ---------------------------------------------------------------------
      1          6           0       -4.602944   -2.005921   -1.678136
      2          6           0       -5.426225   -1.499938   -0.760021
      3          6           0       -6.258729   -0.242348   -0.928567
      4          8           0       -5.682918    0.509735   -2.008465
      5          6           0       -7.631837   -0.736079   -1.384796
      6          6           0       -8.754939   -0.875674   -0.678529
      7          6           0       -6.308598    0.590268    0.389225
      8          6           0       -7.062418    1.926621    0.206138
      9          6           0       -4.967897    0.865709    1.051820
     10          6           0       -3.795867    1.085930    0.447359
     11          6           0       -2.477234    1.410074    1.128815
     12          6           0       -2.644194    1.750864    2.615950
     13          6           0       -1.462450    0.260758    0.854697
     14          6           0       -1.283726   -0.016319   -0.674748
     15          6           0        0.168727   -0.523586   -0.884797
     16          6           0        0.689203   -0.746341    0.539204
     17          6           0        2.163841   -0.882916    0.823739
     18          6           0        3.118562   -0.768970   -0.129265
     19          6           0        4.551574   -0.897170    0.051929
     20          6           0        5.485635   -0.741728   -0.919913
     21          6           0        5.120541   -0.346163   -2.345894
     22          6           0        6.332612   -0.057895   -3.235948
     23          8           0        6.870142   -1.321925   -3.641625
     24          6           0        7.363863    0.777795   -2.476942
     25          6           0        7.922939    0.029852   -1.258147
     26          8           0        8.301967    1.044561   -0.317241
     27          6           0        6.920979   -0.945015   -0.636370
     28          6           0        7.380623   -1.931464    0.151367
     29          6           0        2.418184   -1.175228    2.288553
     30          6           0        1.710372   -0.162806    3.217068
     31          6           0        0.220691    0.033338    2.873988
     32          6           0        0.004760    0.384744    1.385847
     33          6           0        0.601284    1.769454    1.057390
     34          1           0       -4.077678   -2.941510   -1.506093
     35          1           0       -4.424033   -1.497566   -2.619998
     36          1           0       -5.601780   -2.028971    0.175240
     37          1           0       -6.305740    1.221176   -2.224843
     38          1           0       -7.615843   -1.048069   -2.429264
     39          1           0       -8.835087   -0.605584    0.370816
     40          1           0       -9.652457   -1.282563   -1.136708
     41          1           0       -6.887368   -0.016191    1.099775
     42          1           0       -6.503929    2.591174   -0.463196
     43          1           0       -8.070981    1.782710   -0.194915
     44          1           0       -7.150702    2.445854    1.166487
     45          1           0       -5.030705    0.947520    2.136942
     46          1           0       -3.757965    1.016424   -0.636459
     47          1           0       -2.084234    2.308524    0.625806
     48          1           0       -3.432763    2.499047    2.753075
     49          1           0       -1.724429    2.164706    3.036051
     50          1           0       -2.913397    0.867893    3.208005
     51          1           0       -1.886208   -0.644256    1.315659
     52          1           0       -2.025253   -0.741106   -1.022606
     53          1           0       -1.456297    0.899584   -1.252697
     54          1           0        0.214844   -1.437094   -1.487157
     55          1           0        0.767623    0.230641   -1.407509
     56          1           0        0.222944   -1.680138    0.901689
     57          1           0        2.782344   -0.578011   -1.145390
     58          1           0        4.913878   -1.123376    1.051368
     59          1           0        4.485168    0.549017   -2.337224
     60          1           0        4.534828   -1.142129   -2.824026
     61          1           0        5.987974    0.498699   -4.121880
     62          1           0        7.670101   -1.147718   -4.162367
     63          1           0        6.884935    1.696553   -2.116904
     64          1           0        8.185056    1.088641   -3.135621
     65          1           0        8.812217   -0.546437   -1.553230
     66          1           0        8.535746    0.588982    0.507167
     67          1           0        8.445779   -2.060570    0.336446
     68          1           0        6.717105   -2.655342    0.614841
     69          1           0        2.022757   -2.179882    2.510501
     70          1           0        3.485600   -1.203888    2.524215
     71          1           0        1.804867   -0.500370    4.257048
     72          1           0        2.232891    0.800149    3.159332
     73          1           0       -0.324996   -0.895694    3.097438
     74          1           0       -0.195175    0.802761    3.533090
     75          1           0        0.380782    2.076747    0.029659
     76          1           0        1.689800    1.777925    1.167148
     77          1           0        0.193255    2.539520    1.721972
 ---------------------------------------------------------------------

 SCF Done:  E(RB3LYP) =  -1395.21208356     A.U. after   14 cycles

 Excitation energies and oscillator strengths:

 Excited state symmetry could not be determined.
 Excited State   1:      Triplet-?Sym    2.1742 eV  570.26 nm  f=0.0000  <S**2>=2.000
     124 ->125         0.69778
     124 <-125         0.13892
 This state for optimization and/or second-order correction.
 Total Energy, E(TD-HF/TD-DFT) =  -1395.13218486
 Copying the excited state density for this state as the 1-particle RhoCI density.

 Excited state symmetry could not be determined.
 Excited State   2:      Triplet-?Sym    3.6838 eV  336.57 nm  f=0.0000  <S**2>=2.000
     118 ->125        -0.13333
     120 ->125        -0.33272
     120 ->128         0.12835
     121 ->125         0.36415
     121 ->128        -0.11372
     124 ->127         0.12286
     124 ->128         0.39632

 Excited state symmetry could not be determined.
 Excited State   3:      Singlet-?Sym    4.2136 eV  294.25 nm  f=0.9006  <S**2>=0.000
     124 ->125         0.70155

 Excited state symmetry could not be determined.
 Excited State   4:      Singlet-?Sym    4.7737 eV  259.72 nm  f=0.0001  <S**2>=0.000
     124 ->126         0.70620

 Alpha  occ. eigenvalues --  -19.14991 -19.14029 -19.13426 -10.25050 -10.23399
 Alpha  occ. eigenvalues --  -10.23165 -10.19525 -10.19286 -10.18871 -10.18731
 Alpha  occ. eigenvalues --  -10.18623 -10.18598 -10.18591 -10.18587 -10.18453
 Alpha  occ. eigenvalues --  -10.18146 -10.18030 -10.17868 -10.17852 -10.17829
 Alpha  occ. eigenvalues --  -10.17819 -10.17813 -10.17521 -10.17418 -10.17343
 Alpha  occ. eigenvalues --  -10.17297 -10.17230 -10.17188 -10.17090 -10.16828
 Alpha  occ. eigenvalues --  -10.16785 -10.16730 -10.16535  -1.02450  -1.01433
 Alpha  occ. eigenvalues --   -1.00641  -0.85643  -0.83061  -0.82070  -0.80635
 Alpha  occ. eigenvalues --   -0.78484  -0.77566  -0.76518  -0.76085  -0.75415
 Alpha  occ. eigenvalues --   -0.74794  -0.72185  -0.70644  -0.69945  -0.68233
 Alpha  occ. eigenvalues --   -0.67491  -0.66853  -0.65778  -0.63546  -0.62844
 Alpha  occ. eigenvalues --   -0.59723  -0.59014  -0.58066  -0.57625  -0.57004
 Alpha  occ. eigenvalues --   -0.56243  -0.55017  -0.53230  -0.52075  -0.51745
 Alpha  occ. eigenvalues --   -0.50637  -0.49644  -0.49452  -0.49148  -0.47589
 Alpha  occ. eigenvalues --   -0.47086  -0.46883  -0.45972  -0.45596  -0.44421
 Alpha  occ. eigenvalues --   -0.44205  -0.44154  -0.43705  -0.42945  -0.42862
 Alpha  occ. eigenvalues --   -0.42492  -0.41522  -0.41435  -0.41079  -0.40637
 Alpha  occ. eigenvalues --   -0.40519  -0.40171  -0.39422  -0.38804  -0.38650
 Alpha  occ. eigenvalues --   -0.38430  -0.38247  -0.37990  -0.37645  -0.37097
 Alpha  occ. eigenvalues --   -0.36959  -0.35910  -0.35827  -0.35400  -0.34731
 Alpha  occ. eigenvalues --   -0.34435  -0.34236  -0.33725  -0.33332  -0.33203
 Alpha  occ. eigenvalues --   -0.32629  -0.32565  -0.31960  -0.31195  -0.31051
 Alpha  occ. eigenvalues --   -0.30846  -0.30405  -0.30179  -0.29634  -0.29046
 Alpha  occ. eigenvalues --   -0.28759  -0.27882  -0.26757  -0.25947  -0.25844
 Alpha  occ. eigenvalues --   -0.25184  -0.24588  -0.22883  -0.19095
 Alpha virt. eigenvalues --   -0.03218  -0.00550   0.03145   0.03547   0.04460
 Alpha virt. eigenvalues --    0.06798   0.07628   0.08013   0.09098   0.09525
 Alpha virt. eigenvalues --    0.09939   0.10334   0.10446   0.11448   0.11979

 Mulliken charges:
               1
     1  C   -0.343669
     2  C   -0.054837
     3  C    0.248059
     4  O   -0.653226
     5  C   -0.089839
     6  C   -0.344289
     7  C   -0.123496
     8  C   -0.469515
     9  C   -0.147866
    10  C   -0.100793
    11  C   -0.129832
    12  C   -0.464555
    13  C   -0.072294
    14  C   -0.309902
    15  C   -0.287818
    16  C   -0.169228
    17  C    0.177554
    18  C   -0.213259
    19  C   -0.180773
    20  C    0.098488
    21  C   -0.337581
    22  C    0.112827
    23  O   -0.622724
    24  C   -0.318291
    25  C    0.095385
    26  O   -0.630451
    27  C    0.156650
    28  C   -0.416979
    29  C   -0.336285
    30  C   -0.268640
    31  C   -0.275276
    32  C    0.092123
    33  C   -0.480508
    34  H    0.136370
    35  H    0.160338
    36  H    0.130080
    37  H    0.397374
    38  H    0.141483
    39  H    0.144832
    40  H    0.145166
    41  H    0.124035
    42  H    0.144628
    43  H    0.148847
    44  H    0.150189
    45  H    0.114851
    46  H    0.158709
    47  H    0.126248
    48  H    0.143354
    49  H    0.148455
    50  H    0.142464
    51  H    0.115607
    52  H    0.158918
    53  H    0.133632
    54  H    0.136844
    55  H    0.137618
    56  H    0.124759
    57  H    0.124592
    58  H    0.121823
    59  H    0.149831
    60  H    0.170717
    61  H    0.114086
    62  H    0.387710
    63  H    0.161033
    64  H    0.134632
    65  H    0.116327
    66  H    0.383434
    67  H    0.129812
    68  H    0.146573
    69  H    0.140830
    70  H    0.144361
    71  H    0.131601
    72  H    0.141510
    73  H    0.122142
    74  H    0.132600
    75  H    0.145006
    76  H    0.154492
    77  H    0.142928
 Sum of Mulliken charges =  -0.00000

 Dipole moment (field-independent basis, Debye):
    X=             -1.9053    Y=              0.3891    Z=              0.3741  Tot=              1.9802
 Quadrupole moment (field-independent basis, Debye-Ang):
   XX=           -179.8515   YY=           -206.5889   ZZ=           -191.5164
   XY=             -5.7231   XZ=             -4.2883   YZ=             -6.8453

 Normal termination of Gaussian 16 at Sat Nov  5 11:46:18 2022.
