 Gaussian 16, Revision B.01,
 Gaussian 16:  ES64L-G16RevB.01 20-Dec-2017

 -------------------------------------------------------------------
 #p b3lyp/6-31g(d) 6D 10F nosymm GFInput td=(50-50,nstate=2) SCF=XQC
 -------------------------------------------------------------------

 ------------------------------
 Gaussian input prepared by ASE
 ------------------------------
 Symbolic Z-matrix:
 Charge =  0 Multiplicity = 1

                          Input orientation:
 ---------------------------------------------------------------------
 Center     Atomic      Atomic             Coordinates (Angstroms)
 Number     Number       Type             X           Y           Z
 ---------------------------------------------------------------------
      1          6           0       -0.646337   -4.661936    0.125211
      2          6           0       -1.570818   -3.609516   -0.434223
      3          6           0       -1.235669   -2.227078   -0.281265
      4          6           0        0.078898   -1.917765    0.315538
      5          6           0        1.137482   -1.344851   -0.287589
      6         16           0        1.304783   -0.830810   -1.971323
      7          6           0        3.007191   -0.367739   -1.733023
      8         16           0        3.928947    0.224572   -2.963236
      9          7           0        3.384455   -0.592703   -0.429089
     10          6           0        4.741732   -0.302452    0.089486
     11          6           0        4.875459    1.080448    0.694840
     12          6           0        5.406484    2.139446   -0.053634
     13          6           0        5.540819    3.411770    0.501739
     14          6           0        5.136763    3.610634    1.816438
     15          9           0        5.263613    4.837977    2.361520
     16          6           0        4.609044    2.581987    2.589267
     17          6           0        4.482761    1.315537    2.020888
     18          6           0        2.419102   -1.135049    0.435587
     19          8           0        2.633453   -1.394991    1.606565
     20          6           0       -2.131882   -1.239139   -0.713128
     21          7           0       -1.986531    0.127227   -0.468957
     22          6           0       -1.453048    0.614846    0.810851
     23          6           0       -2.442269    1.461997    1.630791
     24          6           0       -3.207098    2.571840    0.877489
     25          6           0       -2.480242    3.198117   -0.325289
     26          6           0       -2.571503    2.347557   -1.603638
     27          6           0       -1.767886    1.041226   -1.614396
     28          7           0       -3.280962   -1.618875   -1.377904
     29          6           0       -4.350183   -0.661848   -1.688044
     30          6           0       -3.590886   -2.969059   -1.722873
     31          8           0       -4.580016   -3.215347   -2.400355
     32          6           0       -2.701187   -3.963147   -1.148506
     33          6           0       -3.053841   -5.328643   -1.372491
     34          7           0       -3.313870   -6.451815   -1.534177
     35          1           0       -1.014776   -5.667691   -0.081909
     36          1           0        0.357979   -4.566238   -0.302963
     37          1           0       -0.542796   -4.551789    1.211778
     38          1           0        0.273988   -2.248938    1.336964
     39          1           0        5.428191   -0.433801   -0.747861
     40          1           0        4.935677   -1.072523    0.838911
     41          1           0        5.714623    1.968036   -1.080518
     42          1           0        5.952852    4.240056   -0.065144
     43          1           0        4.313834    2.778412    3.614789
     44          1           0        4.072201    0.500022    2.608437
     45          1           0       -1.151586   -0.232765    1.427552
     46          1           0       -0.539581    1.191703    0.611316
     47          1           0       -3.168459    0.795591    2.112941
     48          1           0       -1.852417    1.907506    2.443621
     49          1           0       -3.461108    3.357531    1.599339
     50          1           0       -4.168766    2.177351    0.523304
     51          1           0       -2.939447    4.170618   -0.541589
     52          1           0       -1.430172    3.411006   -0.078563
     53          1           0       -3.629477    2.139092   -1.805650
     54          1           0       -2.206916    2.936202   -2.456389
     55          1           0       -0.696082    1.286772   -1.641463
     56          1           0       -1.978897    0.490760   -2.535355
     57          1           0       -4.355028    0.118743   -0.929838
     58          1           0       -5.288697   -1.213426   -1.698474
     59          1           0       -4.211903   -0.214652   -2.677124
 ---------------------------------------------------------------------

 SCF Done:  E(RB3LYP) =  -2233.38274782     A.U. after   16 cycles

 Excitation energies and oscillator strengths:

 Excited state symmetry could not be determined.
 Excited State   1:      Triplet-?Sym    2.1995 eV  563.68 nm  f=0.0000  <S**2>=2.000
     128 ->131        -0.35436
     130 ->131         0.57009
 This state for optimization and/or second-order correction.
 Total Energy, E(TD-HF/TD-DFT) =  -2233.30191644
 Copying the excited state density for this state as the 1-particle RhoCI density.

 Excited state symmetry could not be determined.
 Excited State   2:      Triplet-?Sym    2.5944 eV  477.90 nm  f=0.0000  <S**2>=2.000
     127 ->131        -0.12202
     128 ->131         0.19455
     129 ->131         0.60044
     129 ->133         0.16972
     130 ->131         0.10863
     130 ->132         0.17997

 Excited state symmetry could not be determined.
 Excited State   3:      Singlet-?Sym    2.6437 eV  468.98 nm  f=0.1013  <S**2>=0.000
     130 ->131         0.69918

 Excited state symmetry could not be determined.
 Excited State   4:      Singlet-?Sym    2.8899 eV  429.02 nm  f=0.0009  <S**2>=0.000
     127 ->131        -0.14891
     129 ->131         0.67305
     129 ->133         0.13649

 Alpha  occ. eigenvalues --  -88.93925 -88.86926 -24.71268 -19.16952 -19.12434
 Alpha  occ. eigenvalues --  -14.42965 -14.41533 -14.38214 -14.32414 -10.33871
 Alpha  occ. eigenvalues --  -10.33070 -10.31135 -10.30552 -10.28284 -10.26366
 Alpha  occ. eigenvalues --  -10.25350 -10.24962 -10.24715 -10.24548 -10.24267
 Alpha  occ. eigenvalues --  -10.23493 -10.23087 -10.22863 -10.21975 -10.21469
 Alpha  occ. eigenvalues --  -10.20982 -10.20926 -10.20697 -10.20689 -10.20644
 Alpha  occ. eigenvalues --  -10.20620 -10.20512 -10.20368 -10.20204  -8.00031
 Alpha  occ. eigenvalues --   -7.93164  -5.96496  -5.96132  -5.95585  -5.89651
 Alpha  occ. eigenvalues --   -5.89232  -5.88711  -1.22446  -1.08899  -1.05495
 Alpha  occ. eigenvalues --   -1.00895  -1.00319  -0.94290  -0.89672  -0.88481
 Alpha  occ. eigenvalues --   -0.87433  -0.85770  -0.82706  -0.81771  -0.79850
 Alpha  occ. eigenvalues --   -0.79181  -0.78245  -0.76711  -0.76612  -0.74703
 Alpha  occ. eigenvalues --   -0.71929  -0.71624  -0.70888  -0.69229  -0.67267
 Alpha  occ. eigenvalues --   -0.66219  -0.63794  -0.62739  -0.61672  -0.60687
 Alpha  occ. eigenvalues --   -0.59801  -0.58214  -0.57169  -0.56453  -0.54986
 Alpha  occ. eigenvalues --   -0.54753  -0.53326  -0.51372  -0.51268  -0.50626
 Alpha  occ. eigenvalues --   -0.50213  -0.48971  -0.48441  -0.48230  -0.47425
 Alpha  occ. eigenvalues --   -0.47319  -0.46882  -0.46651  -0.46564  -0.45848
 Alpha  occ. eigenvalues --   -0.45035  -0.44695  -0.44398  -0.44162  -0.43718
 Alpha  occ. eigenvalues --   -0.43446  -0.42893  -0.42008  -0.41733  -0.41161
 Alpha  occ. eigenvalues --   -0.40799  -0.40495  -0.40271  -0.39847  -0.39422
 Alpha  occ. eigenvalues --   -0.39299  -0.38856  -0.38338  -0.38178  -0.36812
 Alpha  occ. eigenvalues --   -0.36645  -0.35901  -0.35310  -0.35018  -0.34950
 Alpha  occ. eigenvalues --   -0.34718  -0.34449  -0.33842  -0.33534  -0.32045
 Alpha  occ. eigenvalues --   -0.30745  -0.29280  -0.28141  -0.27457  -0.27052
 Alpha  occ. eigenvalues --   -0.26044  -0.25555  -0.25322  -0.24419  -0.22062
 Alpha virt. eigenvalues --   -0.10248  -0.06674  -0.04613  -0.02211  -0.02109
 Alpha virt. eigenvalues --   -0.00989  -0.00563   0.04056   0.04324   0.04737
 Alpha virt. eigenvalues --    0.05452   0.05927   0.07096   0.08099   0.08501

 Mulliken charges:
               1
     1  C   -0.545591
     2  C    0.193831
     3  C   -0.030934
     4  C   -0.250259
     5  C   -0.166225
     6  S    0.287532
     7  C   -0.023207
     8  S   -0.154316
     9  N   -0.426771
    10  C   -0.266317
    11  C    0.154790
    12  C   -0.174789
    13  C   -0.198396
    14  C    0.382996
    15  F   -0.294994
    16  C   -0.198682
    17  C   -0.183466
    18  C    0.640043
    19  O   -0.491843
    20  C    0.505216
    21  N   -0.477781
    22  C   -0.152700
    23  C   -0.258212
    24  C   -0.264022
    25  C   -0.270104
    26  C   -0.265607
    27  C   -0.157006
    28  N   -0.534437
    29  C   -0.338301
    30  C    0.597831
    31  O   -0.509637
    32  C   -0.041091
    33  C    0.265413
    34  N   -0.499250
    35  H    0.200085
    36  H    0.183251
    37  H    0.174625
    38  H    0.192747
    39  H    0.201926
    40  H    0.195700
    41  H    0.164204
    42  H    0.152577
    43  H    0.150572
    44  H    0.167656
    45  H    0.163925
    46  H    0.147169
    47  H    0.143644
    48  H    0.143449
    49  H    0.144888
    50  H    0.139040
    51  H    0.145711
    52  H    0.137368
    53  H    0.142008
    54  H    0.146807
    55  H    0.169165
    56  H    0.165559
    57  H    0.184268
    58  H    0.212900
    59  H    0.177036
 Sum of Mulliken charges =  -0.00000

 Dipole moment (field-independent basis, Debye):
    X=              1.6915    Y=              6.9372    Z=              3.6677  Tot=              8.0273
 Quadrupole moment (field-independent basis, Debye-Ang):
   XX=           -227.7643   YY=           -256.2270   ZZ=           -223.5037
   XY=            -41.5738   XZ=            -11.1329   YZ=            -22.0269

 Normal termination of Gaussian 16 at Sat Nov  5 11:56:19 2022.
