 Gaussian 16, Revision B.01,
 Gaussian 16:  ES64L-G16RevB.01 20-Dec-2017

 -----------------------------
 #p b3lyp/6-31g(d) opt SCF=XQC
 -----------------------------

 ------------------------------
 Gaussian input prepared by ASE
 ------------------------------
 Symbolic Z-matrix:
 Charge =  0 Multiplicity = 1

 SCF Done:  E(RB3LYP) =  -2233.37042925     A.U. after   16 cycles
 SCF Done:  E(RB3LYP) =  -2233.37670753     A.U. after   14 cycles
 SCF Done:  E(RB3LYP) =  -2233.37722422     A.U. after   14 cycles
 SCF Done:  E(RB3LYP) =  -2233.38160100     A.U. after   13 cycles
 SCF Done:  E(RB3LYP) =  -2233.38229790     A.U. after   12 cycles
 SCF Done:  E(RB3LYP) =  -2233.38239333     A.U. after   13 cycles
 SCF Done:  E(RB3LYP) =  -2233.38260820     A.U. after   11 cycles
 SCF Done:  E(RB3LYP) =  -2233.38267182     A.U. after   12 cycles
 SCF Done:  E(RB3LYP) =  -2233.38272403     A.U. after   11 cycles
 SCF Done:  E(RB3LYP) =  -2233.38273704     A.U. after   11 cycles
 SCF Done:  E(RB3LYP) =  -2233.38274618     A.U. after   10 cycles
 SCF Done:  E(RB3LYP) =  -2233.38275141     A.U. after   10 cycles
 SCF Done:  E(RB3LYP) =  -2233.38275368     A.U. after    9 cycles
 SCF Done:  E(RB3LYP) =  -2233.38275521     A.U. after    9 cycles
 SCF Done:  E(RB3LYP) =  -2233.38275691     A.U. after    9 cycles
 SCF Done:  E(RB3LYP) =  -2233.38275827     A.U. after   10 cycles
 SCF Done:  E(RB3LYP) =  -2233.38275850     A.U. after    7 cycles
 SCF Done:  E(RB3LYP) =  -2233.38275854     A.U. after    7 cycles
 Optimization completed.
    -- Stationary point found.

                         Standard orientation:
 ---------------------------------------------------------------------
 Center     Atomic      Atomic             Coordinates (Angstroms)
 Number     Number       Type             X           Y           Z
 ---------------------------------------------------------------------
      1          6           0        3.039967   -2.904300   -1.695113
      2          6           0        3.392003   -1.638304   -0.954476
      3          6           0        2.377049   -0.658498   -0.716350
      4          6           0        0.998305   -1.012093   -1.108740
      5          6           0       -0.054997   -1.224072   -0.297438
      6         16           0       -0.111949   -1.192903    1.469756
      7          6           0       -1.819892   -1.694732    1.492385
      8         16           0       -2.640343   -1.928181    2.901730
      9          7           0       -2.287689   -1.851965    0.208008
     10          6           0       -3.676443   -2.258325   -0.110743
     11          6           0       -4.615762   -1.088213   -0.323500
     12          6           0       -5.445502   -0.640730    0.713308
     13          6           0       -6.318842    0.429403    0.519955
     14          6           0       -6.351143    1.046119   -0.724979
     15          9           0       -7.193231    2.081569   -0.920701
     16          6           0       -5.544594    0.626086   -1.777081
     17          6           0       -4.678315   -0.445915   -1.569060
     18          6           0       -1.381415   -1.618939   -0.839883
     19          8           0       -1.667981   -1.740105   -2.017977
     20          6           0        2.712154    0.561953   -0.113081
     21          7           0        1.845426    1.647861    0.018403
     22          6           0        0.889362    1.986312   -1.045400
     23          6           0        1.117754    3.364653   -1.690798
     24          6           0        1.346736    4.556568   -0.736291
     25          6           0        0.666367    4.461698    0.640414
     26          6           0        1.437011    3.585553    1.642628
     27          6           0        1.431899    2.075254    1.375445
     28          7           0        4.002256    0.755800    0.339216
     29          6           0        4.472857    2.066491    0.803914
     30          6           0        5.018992   -0.245427    0.296236
     31          8           0        6.110041   -0.031169    0.807823
     32          6           0        4.663305   -1.442009   -0.446296
     33          6           0        5.698809   -2.411056   -0.613007
     34          7           0        6.520814   -3.220428   -0.769516
     35          1           0        3.902178   -3.566544   -1.785742
     36          1           0        2.239061   -3.447296   -1.180479
     37          1           0        2.675025   -2.676615   -2.704299
     38          1           0        0.794687   -1.207893   -2.162898
     39          1           0       -4.012309   -2.887946    0.714120
     40          1           0       -3.600134   -2.862135   -1.017303
     41          1           0       -5.405851   -1.131580    1.680942
     42          1           0       -6.968844    0.784492    1.312793
     43          1           0       -5.607506    1.130203   -2.735901
     44          1           0       -4.040271   -0.787642   -2.378356
     45          1           0        0.942375    1.236855   -1.836063
     46          1           0       -0.127174    1.928234   -0.632750
     47          1           0        1.965427    3.297893   -2.384274
     48          1           0        0.231525    3.554776   -2.311722
     49          1           0        1.011678    5.467830   -1.246425
     50          1           0        2.424081    4.691869   -0.572290
     51          1           0        0.599792    5.470602    1.065966
     52          1           0       -0.370514    4.110229    0.539458
     53          1           0        2.469101    3.952906    1.701085
     54          1           0        1.007105    3.718823    2.644641
     55          1           0        0.416248    1.690026    1.548189
     56          1           0        2.076865    1.574052    2.102439
     57          1           0        3.924601    2.844761    0.276719
     58          1           0        5.540435    2.121521    0.597993
     59          1           0        4.332055    2.182270    1.882874
 ---------------------------------------------------------------------

 The electronic state is 1-A.
 Alpha  occ. eigenvalues --  -88.93924 -88.86927 -24.71268 -19.16952 -19.12434
 Alpha  occ. eigenvalues --  -14.42965 -14.41533 -14.38215 -14.32414 -10.33870
 Alpha  occ. eigenvalues --  -10.33070 -10.31135 -10.30552 -10.28283 -10.26366
 Alpha  occ. eigenvalues --  -10.25350 -10.24962 -10.24715 -10.24548 -10.24267
 Alpha  occ. eigenvalues --  -10.23493 -10.23087 -10.22863 -10.21975 -10.21468
 Alpha  occ. eigenvalues --  -10.20982 -10.20926 -10.20697 -10.20689 -10.20644
 Alpha  occ. eigenvalues --  -10.20620 -10.20512 -10.20367 -10.20204  -8.00031
 Alpha  occ. eigenvalues --   -7.93165  -5.96495  -5.96131  -5.95585  -5.89652
 Alpha  occ. eigenvalues --   -5.89233  -5.88711  -1.22446  -1.08899  -1.05495
 Alpha  occ. eigenvalues --   -1.00895  -1.00319  -0.94290  -0.89672  -0.88481
 Alpha  occ. eigenvalues --   -0.87433  -0.85770  -0.82706  -0.81771  -0.79851
 Alpha  occ. eigenvalues --   -0.79181  -0.78245  -0.76711  -0.76612  -0.74703
 Alpha  occ. eigenvalues --   -0.71929  -0.71624  -0.70888  -0.69229  -0.67267
 Alpha  occ. eigenvalues --   -0.66219  -0.63794  -0.62739  -0.61672  -0.60687
 Alpha  occ. eigenvalues --   -0.59801  -0.58214  -0.57169  -0.56453  -0.54986
 Alpha  occ. eigenvalues --   -0.54753  -0.53327  -0.51372  -0.51268  -0.50626
 Alpha  occ. eigenvalues --   -0.50213  -0.48971  -0.48441  -0.48230  -0.47425
 Alpha  occ. eigenvalues --   -0.47318  -0.46882  -0.46651  -0.46564  -0.45848
 Alpha  occ. eigenvalues --   -0.45035  -0.44695  -0.44398  -0.44162  -0.43718
 Alpha  occ. eigenvalues --   -0.43446  -0.42893  -0.42008  -0.41733  -0.41161
 Alpha  occ. eigenvalues --   -0.40799  -0.40495  -0.40271  -0.39847  -0.39422
 Alpha  occ. eigenvalues --   -0.39298  -0.38856  -0.38338  -0.38178  -0.36812
 Alpha  occ. eigenvalues --   -0.36645  -0.35901  -0.35310  -0.35018  -0.34950
 Alpha  occ. eigenvalues --   -0.34718  -0.34449  -0.33842  -0.33534  -0.32045
 Alpha  occ. eigenvalues --   -0.30745  -0.29280  -0.28141  -0.27457  -0.27052
 Alpha  occ. eigenvalues --   -0.26044  -0.25555  -0.25322  -0.24419  -0.22062
 Alpha virt. eigenvalues --   -0.10248  -0.06674  -0.04613  -0.02211  -0.02109
 Alpha virt. eigenvalues --   -0.00989  -0.00562   0.04055   0.04324   0.04737
 Alpha virt. eigenvalues --    0.05452   0.05927   0.07097   0.08099   0.08501

 Mulliken charges:
               1
     1  C   -0.545586
     2  C    0.193809
     3  C   -0.030913
     4  C   -0.250260
     5  C   -0.166221
     6  S    0.287559
     7  C   -0.023243
     8  S   -0.154317
     9  N   -0.426761
    10  C   -0.266316
    11  C    0.154796
    12  C   -0.174806
    13  C   -0.198379
    14  C    0.382990
    15  F   -0.294992
    16  C   -0.198691
    17  C   -0.183452
    18  C    0.640057
    19  O   -0.491851
    20  C    0.505197
    21  N   -0.477807
    22  C   -0.152686
    23  C   -0.258258
    24  C   -0.263983
    25  C   -0.270090
    26  C   -0.265647
    27  C   -0.156982
    28  N   -0.534424
    29  C   -0.338297
    30  C    0.597834
    31  O   -0.509637
    32  C   -0.041093
    33  C    0.265414
    34  N   -0.499248
    35  H    0.200085
    36  H    0.183252
    37  H    0.174626
    38  H    0.192747
    39  H    0.201927
    40  H    0.195701
    41  H    0.164206
    42  H    0.152575
    43  H    0.150572
    44  H    0.167654
    45  H    0.163925
    46  H    0.147172
    47  H    0.143653
    48  H    0.143453
    49  H    0.144883
    50  H    0.139035
    51  H    0.145710
    52  H    0.137365
    53  H    0.142013
    54  H    0.146813
    55  H    0.169157
    56  H    0.165559
    57  H    0.184268
    58  H    0.212900
    59  H    0.177034
 Sum of Mulliken charges =  -0.00000

 Dipole moment (field-independent basis, Debye):
    X=             -5.6946    Y=              5.4279    Z=             -1.5957  Tot=              8.0273
 Quadrupole moment (field-independent basis, Debye-Ang):
   XX=           -280.4708   YY=           -208.0833   ZZ=           -213.7336
   XY=             32.5987   XZ=             -1.5860   YZ=              4.2647

 Normal termination of Gaussian 16 at Fri Nov  4 19:34:36 2022.
