 Gaussian 16, Revision B.01,
 Gaussian 16:  ES64L-G16RevB.01 20-Dec-2017

 -------------------------------------------------------------------
 #p b3lyp/6-31g(d) 6D 10F nosymm GFInput td=(50-50,nstate=2) SCF=XQC
 -------------------------------------------------------------------

 ------------------------------
 Gaussian input prepared by ASE
 ------------------------------
 Symbolic Z-matrix:
 Charge =  0 Multiplicity = 1

                          Input orientation:
 ---------------------------------------------------------------------
 Center     Atomic      Atomic             Coordinates (Angstroms)
 Number     Number       Type             X           Y           Z
 ---------------------------------------------------------------------
      1          6           0        4.283494   -1.012350    1.820584
      2          6           0        3.983167    0.448868    1.473178
      3          7           0        3.193872    0.629695    0.243297
      4          6           0        3.910824    1.078469   -0.951194
      5          6           0        4.885773    0.045042   -1.526970
      6          6           0        1.847869    0.375126    0.344198
      7          8           0        1.350740   -0.004797    1.399472
      8          6           0        0.945747    0.578277   -0.899661
      9         16           0        1.138903   -0.812928   -2.112530
     10          6           0        0.178699   -2.072237   -1.291666
     11          6           0        0.572329   -3.399848   -1.477924
     12          6           0       -0.143957   -4.443846   -0.894635
     13          6           0       -1.236599   -4.153876   -0.079008
     14          6           0       -1.629332   -2.831886    0.116419
     15          6           0       -0.967493   -1.760973   -0.512477
     16          6           0       -1.360731   -0.359660   -0.376662
     17          6           0       -0.500576    0.710323   -0.550462
     18          6           0       -1.237950    1.912191   -0.331368
     19          6           0       -0.910514    3.280915   -0.363191
     20          6           0       -1.913245    4.213151   -0.129848
     21          8           0       -1.685770    5.568013   -0.140622
     22          6           0       -3.239736    3.807438    0.133732
     23          6           0       -3.577249    2.461906    0.178508
     24          6           0       -2.569089    1.516470   -0.044699
     25          7           0       -2.633088    0.128393   -0.066819
     26          6           0       -3.896968   -0.592092   -0.017973
     27          6           0       -4.409405   -0.794589    1.410511
     28          8           0       -5.622569   -1.525755    1.300521
     29          1           0        3.349447   -1.558230    1.972282
     30          1           0        4.866203   -1.061607    2.748288
     31          1           0        4.856864   -1.508431    1.030830
     32          1           0        4.913877    1.012252    1.342139
     33          1           0        3.426102    0.906391    2.296000
     34          1           0        3.190651    1.353853   -1.721647
     35          1           0        4.458100    1.997366   -0.695713
     36          1           0        5.674277   -0.208184   -0.811033
     37          1           0        4.356273   -0.872054   -1.801370
     38          1           0        5.368054    0.450767   -2.424076
     39          1           0        1.254752    1.460108   -1.467306
     40          1           0        1.455403   -3.611676   -2.074178
     41          1           0        0.171650   -5.471313   -1.052160
     42          1           0       -1.778502   -4.952581    0.419424
     43          1           0       -2.450171   -2.631125    0.793455
     44          1           0        0.108124    3.607860   -0.566151
     45          1           0       -0.746096    5.722455   -0.322174
     46          1           0       -3.987152    4.575097    0.305027
     47          1           0       -4.601239    2.166262    0.386099
     48          1           0       -4.645693   -0.029800   -0.586643
     49          1           0       -3.784537   -1.559575   -0.509149
     50          1           0       -3.655807   -1.333877    2.005395
     51          1           0       -4.561767    0.183304    1.891415
     52          1           0       -5.995959   -1.626703    2.188542
 ---------------------------------------------------------------------

 SCF Done:  E(RB3LYP) =  -1586.15943183     A.U. after   16 cycles

 Excitation energies and oscillator strengths:

 Excited state symmetry could not be determined.
 Excited State   1:      Triplet-?Sym    2.5458 eV  487.02 nm  f=0.0000  <S**2>=2.000
     105 ->106         0.67408
 This state for optimization and/or second-order correction.
 Total Energy, E(TD-HF/TD-DFT) =  -1586.06587703
 Copying the excited state density for this state as the 1-particle RhoCI density.

 Excited state symmetry could not be determined.
 Excited State   2:      Triplet-?Sym    3.0463 eV  407.00 nm  f=0.0000  <S**2>=2.000
     104 ->106         0.65054
     104 ->108         0.13447
     104 ->109         0.10947

 Excited state symmetry could not be determined.
 Excited State   3:      Singlet-?Sym    3.5750 eV  346.81 nm  f=0.1469  <S**2>=0.000
     103 ->106         0.16763
     105 ->106         0.66300

 Excited state symmetry could not be determined.
 Excited State   4:      Singlet-?Sym    3.7238 eV  332.95 nm  f=0.1348  <S**2>=0.000
     103 ->106         0.12622
     104 ->106         0.68167

 Alpha  occ. eigenvalues --  -88.88546 -19.16876 -19.15406 -19.10327 -14.37910
 Alpha  occ. eigenvalues --  -14.35897 -10.27975 -10.24120 -10.23896 -10.23368
 Alpha  occ. eigenvalues --  -10.23071 -10.22832 -10.22308 -10.22183 -10.21508
 Alpha  occ. eigenvalues --  -10.21051 -10.20944 -10.19392 -10.19363 -10.19185
 Alpha  occ. eigenvalues --  -10.19015 -10.18998 -10.18460 -10.18357 -10.18231
 Alpha  occ. eigenvalues --  -10.18078 -10.17951 -10.16965  -7.94557  -5.91067
 Alpha  occ. eigenvalues --   -5.90713  -5.90043  -1.04768  -1.02697  -1.02537
 Alpha  occ. eigenvalues --   -0.98217  -0.92627  -0.86942  -0.84370  -0.82329
 Alpha  occ. eigenvalues --   -0.79126  -0.76903  -0.76579  -0.75942  -0.74585
 Alpha  occ. eigenvalues --   -0.73382  -0.71419  -0.70702  -0.66629  -0.64335
 Alpha  occ. eigenvalues --   -0.63854  -0.63431  -0.61975  -0.60866  -0.58911
 Alpha  occ. eigenvalues --   -0.57513  -0.55517  -0.53810  -0.53465  -0.52561
 Alpha  occ. eigenvalues --   -0.51336  -0.50643  -0.49125  -0.48423  -0.47336
 Alpha  occ. eigenvalues --   -0.47135  -0.45654  -0.45571  -0.44810  -0.44486
 Alpha  occ. eigenvalues --   -0.43349  -0.43252  -0.42608  -0.42418  -0.41554
 Alpha  occ. eigenvalues --   -0.41196  -0.40689  -0.40359  -0.39979  -0.39710
 Alpha  occ. eigenvalues --   -0.38807  -0.38488  -0.37979  -0.37882  -0.37664
 Alpha  occ. eigenvalues --   -0.36462  -0.36110  -0.35811  -0.35660  -0.35091
 Alpha  occ. eigenvalues --   -0.34617  -0.34393  -0.33667  -0.32976  -0.31970
 Alpha  occ. eigenvalues --   -0.30302  -0.28093  -0.27830  -0.26647  -0.25905
 Alpha  occ. eigenvalues --   -0.24792  -0.23399  -0.21236  -0.19460  -0.18988
 Alpha virt. eigenvalues --   -0.03953  -0.00741   0.00756   0.02011   0.03871
 Alpha virt. eigenvalues --    0.04697   0.06043   0.07302   0.07476   0.08310
 Alpha virt. eigenvalues --    0.08381   0.09736   0.10358   0.10985   0.11713

 Mulliken charges:
               1
     1  C   -0.448255
     2  C   -0.135767
     3  N   -0.410709
     4  C   -0.145239
     5  C   -0.447939
     6  C    0.641945
     7  O   -0.511975
     8  C   -0.531997
     9  S    0.147944
    10  C   -0.132968
    11  C   -0.168624
    12  C   -0.115521
    13  C   -0.145964
    14  C   -0.170436
    15  C    0.154936
    16  C    0.243136
    17  C    0.067892
    18  C    0.099731
    19  C   -0.293281
    20  C    0.355265
    21  O   -0.653597
    22  C   -0.180058
    23  C   -0.177554
    24  C    0.308054
    25  N   -0.624363
    26  C   -0.180366
    27  C   -0.041402
    28  O   -0.618828
    29  H    0.187072
    30  H    0.140017
    31  H    0.143947
    32  H    0.133567
    33  H    0.172980
    34  H    0.155491
    35  H    0.146570
    36  H    0.153468
    37  H    0.177182
    38  H    0.145906
    39  H    0.188076
    40  H    0.141044
    41  H    0.132837
    42  H    0.133150
    43  H    0.144114
    44  H    0.108281
    45  H    0.404376
    46  H    0.136343
    47  H    0.133843
    48  H    0.172720
    49  H    0.184178
    50  H    0.142440
    51  H    0.139022
    52  H    0.399316
 Sum of Mulliken charges =  -0.00000

 Dipole moment (field-independent basis, Debye):
    X=              1.8275    Y=             -0.3194    Z=              0.3486  Tot=              1.8877
 Quadrupole moment (field-independent basis, Debye-Ang):
   XX=           -149.0255   YY=           -163.2967   ZZ=           -171.4442
   XY=             12.6619   XZ=            -14.4716   YZ=             -4.5997

 Normal termination of Gaussian 16 at Sat Nov  5 11:43:09 2022.
