 Gaussian 16, Revision B.01,
 Gaussian 16:  ES64L-G16RevB.01 20-Dec-2017

 -----------------------------
 #p b3lyp/6-31g(d) opt SCF=XQC
 -----------------------------

 ------------------------------
 Gaussian input prepared by ASE
 ------------------------------
 Symbolic Z-matrix:
 Charge =  0 Multiplicity = 1

 SCF Done:  E(RB3LYP) =  -1586.14759824     A.U. after   16 cycles
 SCF Done:  E(RB3LYP) =  -1586.15652486     A.U. after   13 cycles
 SCF Done:  E(RB3LYP) =  -1586.15762015     A.U. after   12 cycles
 SCF Done:  E(RB3LYP) =  -1586.15878389     A.U. after   13 cycles
 SCF Done:  E(RB3LYP) =  -1586.15919126     A.U. after   12 cycles
 SCF Done:  E(RB3LYP) =  -1586.15933665     A.U. after   11 cycles
 SCF Done:  E(RB3LYP) =  -1586.15937976     A.U. after   11 cycles
 SCF Done:  E(RB3LYP) =  -1586.15939465     A.U. after   10 cycles
 SCF Done:  E(RB3LYP) =  -1586.15941481     A.U. after   10 cycles
 SCF Done:  E(RB3LYP) =  -1586.15942774     A.U. after   10 cycles
 SCF Done:  E(RB3LYP) =  -1586.15943095     A.U. after    9 cycles
 SCF Done:  E(RB3LYP) =  -1586.15943161     A.U. after    8 cycles
 SCF Done:  E(RB3LYP) =  -1586.15943177     A.U. after    7 cycles
 SCF Done:  E(RB3LYP) =  -1586.15943184     A.U. after    7 cycles
 Optimization completed.
    -- Stationary point found.

                         Standard orientation:
 ---------------------------------------------------------------------
 Center     Atomic      Atomic             Coordinates (Angstroms)
 Number     Number       Type             X           Y           Z
 ---------------------------------------------------------------------
      1          6           0       -4.475028    0.019260    2.402093
      2          6           0       -3.894288   -1.333416    1.978948
      3          7           0       -3.202239   -1.316195    0.679307
      4          6           0       -3.910677   -1.895391   -0.463004
      5          6           0       -5.138173   -1.096048   -0.915024
      6          6           0       -1.941768   -0.770434    0.671183
      7          8           0       -1.444582   -0.305151    1.691673
      8          6           0       -1.136542   -0.749701   -0.653000
      9         16           0       -1.742683    0.581537   -1.795019
     10          6           0       -1.010972    2.010474   -1.017583
     11          6           0       -1.702485    3.220036   -1.122264
     12          6           0       -1.182346    4.388373   -0.567588
     13          6           0        0.018208    4.336435    0.138932
     14          6           0        0.708465    3.132019    0.253016
     15          6           0        0.242884    1.950212   -0.352759
     16          6           0        0.945542    0.669456   -0.300840
     17          6           0        0.329430   -0.562219   -0.436192
     18          6           0        1.330144   -1.573302   -0.324426
     19          6           0        1.310230   -2.979943   -0.375366
     20          6           0        2.510656   -3.669414   -0.263151
     21          8           0        2.586720   -5.040641   -0.301374
     22          6           0        3.734046   -2.983038   -0.102331
     23          6           0        3.770047   -1.596958   -0.040186
     24          6           0        2.562388   -0.895974   -0.141375
     25          7           0        2.317216    0.471796   -0.120472
     26          6           0        3.390641    1.454295   -0.156969
     27          6           0        3.976365    1.744505    1.227541
     28          8           0        4.983443    2.728489    1.037711
     29          1           0       -3.673950    0.756735    2.490676
     30          1           0       -4.965585   -0.075871    3.378266
     31          1           0       -5.214248    0.387132    1.683216
     32          1           0       -4.686357   -2.087519    1.910028
     33          1           0       -3.176310   -1.667808    2.733516
     34          1           0       -3.222299   -1.992484   -1.302523
     35          1           0       -4.216325   -2.916582   -0.193004
     36          1           0       -5.893095   -1.034935   -0.124590
     37          1           0       -4.851148   -0.080282   -1.202370
     38          1           0       -5.600579   -1.585518   -1.780244
     39          1           0       -1.295386   -1.669679   -1.221980
     40          1           0       -2.661976    3.239124   -1.631403
     41          1           0       -1.729416    5.322239   -0.660962
     42          1           0        0.415071    5.228142    0.615774
     43          1           0        1.612587    3.108700    0.848397
     44          1           0        0.374100   -3.522020   -0.499951
     45          1           0        1.691321   -5.397316   -0.405508
     46          1           0        4.644581   -3.567878   -0.023855
     47          1           0        4.718689   -1.084276    0.087447
     48          1           0        4.188578    1.080866   -0.808118
     49          1           0        3.023084    2.379746   -0.602346
     50          1           0        3.181188    2.094038    1.904409
     51          1           0        4.384032    0.817928    1.658842
     52          1           0        5.406290    2.896774    1.892738
 ---------------------------------------------------------------------

 The electronic state is 1-A.
 Alpha  occ. eigenvalues --  -88.88546 -19.16876 -19.15406 -19.10327 -14.37910
 Alpha  occ. eigenvalues --  -14.35897 -10.27975 -10.24120 -10.23896 -10.23368
 Alpha  occ. eigenvalues --  -10.23071 -10.22832 -10.22308 -10.22183 -10.21508
 Alpha  occ. eigenvalues --  -10.21051 -10.20944 -10.19392 -10.19363 -10.19185
 Alpha  occ. eigenvalues --  -10.19015 -10.18998 -10.18460 -10.18357 -10.18231
 Alpha  occ. eigenvalues --  -10.18078 -10.17951 -10.16965  -7.94557  -5.91067
 Alpha  occ. eigenvalues --   -5.90714  -5.90043  -1.04768  -1.02697  -1.02537
 Alpha  occ. eigenvalues --   -0.98217  -0.92627  -0.86942  -0.84370  -0.82329
 Alpha  occ. eigenvalues --   -0.79126  -0.76903  -0.76579  -0.75942  -0.74585
 Alpha  occ. eigenvalues --   -0.73382  -0.71419  -0.70702  -0.66629  -0.64335
 Alpha  occ. eigenvalues --   -0.63854  -0.63431  -0.61975  -0.60866  -0.58911
 Alpha  occ. eigenvalues --   -0.57513  -0.55517  -0.53810  -0.53465  -0.52561
 Alpha  occ. eigenvalues --   -0.51336  -0.50643  -0.49125  -0.48423  -0.47336
 Alpha  occ. eigenvalues --   -0.47135  -0.45655  -0.45571  -0.44810  -0.44486
 Alpha  occ. eigenvalues --   -0.43349  -0.43252  -0.42608  -0.42418  -0.41554
 Alpha  occ. eigenvalues --   -0.41196  -0.40689  -0.40359  -0.39979  -0.39710
 Alpha  occ. eigenvalues --   -0.38807  -0.38488  -0.37979  -0.37882  -0.37664
 Alpha  occ. eigenvalues --   -0.36462  -0.36110  -0.35811  -0.35660  -0.35091
 Alpha  occ. eigenvalues --   -0.34617  -0.34393  -0.33667  -0.32976  -0.31970
 Alpha  occ. eigenvalues --   -0.30302  -0.28093  -0.27830  -0.26647  -0.25905
 Alpha  occ. eigenvalues --   -0.24792  -0.23399  -0.21236  -0.19460  -0.18988
 Alpha virt. eigenvalues --   -0.03953  -0.00741   0.00756   0.02011   0.03871
 Alpha virt. eigenvalues --    0.04697   0.06043   0.07302   0.07476   0.08310
 Alpha virt. eigenvalues --    0.08381   0.09736   0.10358   0.10985   0.11713

 Mulliken charges:
               1
     1  C   -0.448251
     2  C   -0.135764
     3  N   -0.410739
     4  C   -0.145217
     5  C   -0.447926
     6  C    0.641943
     7  O   -0.511969
     8  C   -0.532005
     9  S    0.147953
    10  C   -0.132969
    11  C   -0.168627
    12  C   -0.115526
    13  C   -0.145959
    14  C   -0.170433
    15  C    0.154934
    16  C    0.243145
    17  C    0.067890
    18  C    0.099716
    19  C   -0.293272
    20  C    0.355264
    21  O   -0.653595
    22  C   -0.180063
    23  C   -0.177552
    24  C    0.308064
    25  N   -0.624373
    26  C   -0.180370
    27  C   -0.041402
    28  O   -0.618827
    29  H    0.187070
    30  H    0.140016
    31  H    0.143947
    32  H    0.133567
    33  H    0.172980
    34  H    0.155493
    35  H    0.146568
    36  H    0.153463
    37  H    0.177177
    38  H    0.145901
    39  H    0.188076
    40  H    0.141045
    41  H    0.132837
    42  H    0.133149
    43  H    0.144114
    44  H    0.108282
    45  H    0.404376
    46  H    0.136343
    47  H    0.133844
    48  H    0.172720
    49  H    0.184179
    50  H    0.142440
    51  H    0.139023
    52  H    0.399316
 Sum of Mulliken charges =  -0.00000

 Dipole moment (field-independent basis, Debye):
    X=             -1.8124    Y=             -0.0998    Z=              0.5178  Tot=              1.8875
 Quadrupole moment (field-independent basis, Debye-Ang):
   XX=           -151.9469   YY=           -157.3376   ZZ=           -173.3488
   XY=             14.9876   XZ=             11.1290   YZ=              6.5333

 Normal termination of Gaussian 16 at Fri Nov  4 19:11:40 2022.
