 Gaussian 16, Revision B.01,
 Gaussian 16:  ES64L-G16RevB.01 20-Dec-2017

 -------------------------------------------------------------------
 #p b3lyp/6-31g(d) 6D 10F nosymm GFInput td=(50-50,nstate=2) SCF=XQC
 -------------------------------------------------------------------

 ------------------------------
 Gaussian input prepared by ASE
 ------------------------------
 Symbolic Z-matrix:
 Charge =  0 Multiplicity = 1

                          Input orientation:
 ---------------------------------------------------------------------
 Center     Atomic      Atomic             Coordinates (Angstroms)
 Number     Number       Type             X           Y           Z
 ---------------------------------------------------------------------
      1          6           0       -3.900677   -0.683559    2.340791
      2          6           0       -4.027846   -0.910534    0.826361
      3          7           0       -2.776999   -0.879098    0.063986
      4          6           0       -2.175045    0.458482   -0.118247
      5          6           0       -2.703626    1.110575   -1.418745
      6          6           0       -2.075242    0.474045   -2.665648
      7          6           0       -0.555683    0.707210   -2.710015
      8          6           0        0.064258    0.457453   -1.362200
      9          7           0        1.426039    0.334407   -1.214143
     10          6           0        1.767827    0.131268    0.030283
     11          6           0        3.154157   -0.043083    0.480760
     12          6           0        3.487436   -0.247040    1.829908
     13          6           0        4.812834   -0.408742    2.224307
     14          6           0        5.808512   -0.364762    1.254974
     15          9           0        7.094093   -0.520771    1.630354
     16          6           0        5.516327   -0.164413   -0.090781
     17          6           0        4.189000   -0.004262   -0.472313
     18         16           0        0.390605    0.083948    1.143551
     19          6           0       -0.676229    0.360461   -0.213512
     20          1           0       -3.271903   -1.457249    2.798960
     21          1           0       -4.883644   -0.722765    2.825820
     22          1           0       -3.455408    0.290813    2.573056
     23          1           0       -4.702529   -0.161819    0.392858
     24          1           0       -4.501003   -1.884250    0.645518
     25          1           0       -2.100396   -1.512543    0.482997
     26          1           0       -2.430530    1.122666    0.724837
     27          1           0       -3.794184    1.004138   -1.445632
     28          1           0       -2.485169    2.187349   -1.391260
     29          1           0       -2.282238   -0.602334   -2.639139
     30          1           0       -2.540169    0.873493   -3.574293
     31          1           0       -0.335751    1.740408   -3.018167
     32          1           0       -0.078587    0.060472   -3.456106
     33          1           0        2.708320   -0.280297    2.586571
     34          1           0        5.081113   -0.566529    3.263538
     35          1           0        6.322918   -0.136656   -0.816057
     36          1           0        3.929420    0.153516   -1.513176
 ---------------------------------------------------------------------

 SCF Done:  E(RB3LYP) =  -1189.37001364     A.U. after   15 cycles

 Excitation energies and oscillator strengths:

 Excited state symmetry could not be determined.
 Excited State   1:      Triplet-?Sym    2.6433 eV  469.05 nm  f=0.0000  <S**2>=2.000
      72 -> 74        -0.22829
      73 -> 74         0.64146
 This state for optimization and/or second-order correction.
 Total Energy, E(TD-HF/TD-DFT) =  -1189.27287302
 Copying the excited state density for this state as the 1-particle RhoCI density.

 Excited state symmetry could not be determined.
 Excited State   2:      Triplet-?Sym    3.8382 eV  323.03 nm  f=0.0000  <S**2>=2.000
      68 -> 74         0.19605
      70 -> 74         0.25495
      70 -> 75         0.15866
      71 -> 74         0.17248
      71 -> 75        -0.26099
      72 -> 74         0.34873
      73 -> 74         0.14991
      73 -> 75         0.12467
      73 -> 77         0.30127

 Excited state symmetry could not be determined.
 Excited State   3:      Singlet-?Sym    3.9224 eV  316.10 nm  f=0.1079  <S**2>=0.000
      72 -> 74         0.47787
      73 -> 74         0.51664

 Excited state symmetry could not be determined.
 Excited State   4:      Singlet-?Sym    4.1497 eV  298.78 nm  f=0.4325  <S**2>=0.000
      72 -> 74         0.51527
      73 -> 74        -0.47491

 Alpha  occ. eigenvalues --  -88.91009 -24.70812 -14.33001 -14.31812 -10.27761
 Alpha  occ. eigenvalues --  -10.25711 -10.22787 -10.21860 -10.21550 -10.21266
 Alpha  occ. eigenvalues --  -10.21010 -10.20847 -10.20258 -10.20234 -10.20076
 Alpha  occ. eigenvalues --  -10.18678 -10.18223 -10.17897 -10.17864  -7.97142
 Alpha  occ. eigenvalues --   -5.93528  -5.93192  -5.92848  -1.21985  -0.96201
 Alpha  occ. eigenvalues --   -0.90674  -0.86964  -0.82009  -0.79549  -0.77316
 Alpha  occ. eigenvalues --   -0.76243  -0.74493  -0.72176  -0.70540  -0.64477
 Alpha  occ. eigenvalues --   -0.63128  -0.62054  -0.60587  -0.58745  -0.56430
 Alpha  occ. eigenvalues --   -0.54367  -0.52820  -0.49863  -0.49169  -0.48267
 Alpha  occ. eigenvalues --   -0.46728  -0.46160  -0.45304  -0.44730  -0.44587
 Alpha  occ. eigenvalues --   -0.43575  -0.43056  -0.41416  -0.40996  -0.40419
 Alpha  occ. eigenvalues --   -0.40027  -0.39332  -0.38497  -0.37660  -0.36784
 Alpha  occ. eigenvalues --   -0.36266  -0.35726  -0.34907  -0.34435  -0.33258
 Alpha  occ. eigenvalues --   -0.32453  -0.31934  -0.28355  -0.26971  -0.26789
 Alpha  occ. eigenvalues --   -0.26324  -0.22056  -0.21236
 Alpha virt. eigenvalues --   -0.05084  -0.01391   0.01537   0.02472   0.06279
 Alpha virt. eigenvalues --    0.07764   0.08671   0.10206   0.11031   0.11658
 Alpha virt. eigenvalues --    0.12622   0.13910   0.14239   0.15537   0.16132

 Mulliken charges:
               1
     1  C   -0.453994
     2  C   -0.133356
     3  N   -0.554481
     4  C   -0.000189
     5  C   -0.257655
     6  C   -0.274499
     7  C   -0.325056
     8  C    0.320369
     9  N   -0.497070
    10  C    0.039826
    11  C    0.133157
    12  C   -0.192441
    13  C   -0.205778
    14  C    0.387072
    15  F   -0.294281
    16  C   -0.199604
    17  C   -0.156012
    18  S    0.201904
    19  C   -0.200963
    20  H    0.142856
    21  H    0.144770
    22  H    0.149459
    23  H    0.142558
    24  H    0.144678
    25  H    0.302714
    26  H    0.129865
    27  H    0.138895
    28  H    0.131966
    29  H    0.161825
    30  H    0.132637
    31  H    0.153985
    32  H    0.158307
    33  H    0.154405
    34  H    0.151045
    35  H    0.151748
    36  H    0.171337
 Sum of Mulliken charges =  -0.00000

 Dipole moment (field-independent basis, Debye):
    X=             -1.8840    Y=              0.2031    Z=              0.8161  Tot=              2.0632
 Quadrupole moment (field-independent basis, Debye-Ang):
   XX=           -120.5213   YY=           -119.3515   ZZ=           -112.9053
   XY=             -1.0493   XZ=             -2.9620   YZ=             -2.7074

 Normal termination of Gaussian 16 at Sat Nov  5 11:40:20 2022.
