 Gaussian 16, Revision B.01,
 Gaussian 16:  ES64L-G16RevB.01 20-Dec-2017

 -----------------------------
 #p b3lyp/6-31g(d) opt SCF=XQC
 -----------------------------

 ------------------------------
 Gaussian input prepared by ASE
 ------------------------------
 Symbolic Z-matrix:
 Charge =  0 Multiplicity = 1

 SCF Done:  E(RB3LYP) =  -1189.36557975     A.U. after   15 cycles
 SCF Done:  E(RB3LYP) =  -1189.36958677     A.U. after   12 cycles
 SCF Done:  E(RB3LYP) =  -1189.36992061     A.U. after   11 cycles
 SCF Done:  E(RB3LYP) =  -1189.36998540     A.U. after   11 cycles
 SCF Done:  E(RB3LYP) =  -1189.37000419     A.U. after   10 cycles
 SCF Done:  E(RB3LYP) =  -1189.37001217     A.U. after    9 cycles
 SCF Done:  E(RB3LYP) =  -1189.37001450     A.U. after    9 cycles
 SCF Done:  E(RB3LYP) =  -1189.37001484     A.U. after    7 cycles
 SCF Done:  E(RB3LYP) =  -1189.37001499     A.U. after    8 cycles
 SCF Done:  E(RB3LYP) =  -1189.37001501     A.U. after    7 cycles
 SCF Done:  E(RB3LYP) =  -1189.37001503     A.U. after    7 cycles
 SCF Done:  E(RB3LYP) =  -1189.37001504     A.U. after    7 cycles
 SCF Done:  E(RB3LYP) =  -1189.37001505     A.U. after    7 cycles
 SCF Done:  E(RB3LYP) =  -1189.37001506     A.U. after    6 cycles
 Optimization completed.
    -- Stationary point found.

                         Standard orientation:
 ---------------------------------------------------------------------
 Center     Atomic      Atomic             Coordinates (Angstroms)
 Number     Number       Type             X           Y           Z
 ---------------------------------------------------------------------
      1          6           0       -4.304205    2.976776   -0.005233
      2          6           0       -4.650692    1.618394    0.623999
      3          7           0       -3.530209    0.694086    0.816341
      4          6           0       -3.003217    0.066541   -0.413758
      5          6           0       -3.740785   -1.265272   -0.693377
      6          6           0       -3.288051   -2.373971    0.266115
      7          6           0       -1.800186   -2.711614    0.072075
      8          6           0       -0.977391   -1.457782   -0.047199
      9          7           0        0.394261   -1.491935    0.047197
     10          6           0        0.925241   -0.306466   -0.092111
     11          6           0        2.368170   -0.043056   -0.030406
     12          6           0        2.906509    1.243463   -0.197546
     13          6           0        4.280415    1.459466   -0.133471
     14          6           0        5.117252    0.374079    0.100096
     15          9           0        6.448779    0.576553    0.163396
     16          6           0        4.620140   -0.914519    0.270276
     17          6           0        3.246310   -1.117579    0.204167
     18         16           0       -0.266887    0.974953   -0.366233
     19          6           0       -1.533489   -0.226593   -0.275541
     20          1           0       -3.590592    3.525664    0.621944
     21          1           0       -5.201438    3.598646   -0.111367
     22          1           0       -3.858746    2.865508   -1.000620
     23          1           0       -5.405207    1.106733    0.013586
     24          1           0       -5.115998    1.782619    1.604420
     25          1           0       -2.779461    1.160456    1.319819
     26          1           0       -3.149011    0.726951   -1.285428
     27          1           0       -4.819267   -1.095264   -0.596721
     28          1           0       -3.553338   -1.564225   -1.734248
     29          1           0       -3.456066   -2.025562    1.292041
     30          1           0       -3.896164   -3.274664    0.123638
     31          1           0       -1.660425   -3.317976   -0.835459
     32          1           0       -1.421348   -3.318448    0.903204
     33          1           0        2.251374    2.090715   -0.380925
     34          1           0        4.706533    2.448872   -0.261421
     35          1           0        5.307310   -1.734652    0.450730
     36          1           0        2.828543   -2.109863    0.332675
 ---------------------------------------------------------------------

 The electronic state is 1-A.
 Alpha  occ. eigenvalues --  -88.91009 -24.70812 -14.33001 -14.31812 -10.27761
 Alpha  occ. eigenvalues --  -10.25711 -10.22787 -10.21860 -10.21550 -10.21266
 Alpha  occ. eigenvalues --  -10.21010 -10.20847 -10.20258 -10.20234 -10.20076
 Alpha  occ. eigenvalues --  -10.18678 -10.18223 -10.17897 -10.17864  -7.97142
 Alpha  occ. eigenvalues --   -5.93528  -5.93192  -5.92848  -1.21985  -0.96201
 Alpha  occ. eigenvalues --   -0.90674  -0.86964  -0.82009  -0.79549  -0.77316
 Alpha  occ. eigenvalues --   -0.76243  -0.74493  -0.72176  -0.70540  -0.64477
 Alpha  occ. eigenvalues --   -0.63128  -0.62054  -0.60587  -0.58745  -0.56430
 Alpha  occ. eigenvalues --   -0.54367  -0.52820  -0.49863  -0.49169  -0.48267
 Alpha  occ. eigenvalues --   -0.46728  -0.46160  -0.45304  -0.44730  -0.44587
 Alpha  occ. eigenvalues --   -0.43575  -0.43056  -0.41416  -0.40996  -0.40419
 Alpha  occ. eigenvalues --   -0.40027  -0.39332  -0.38497  -0.37660  -0.36784
 Alpha  occ. eigenvalues --   -0.36266  -0.35726  -0.34907  -0.34435  -0.33258
 Alpha  occ. eigenvalues --   -0.32454  -0.31934  -0.28355  -0.26971  -0.26789
 Alpha  occ. eigenvalues --   -0.26324  -0.22056  -0.21236
 Alpha virt. eigenvalues --   -0.05084  -0.01391   0.01537   0.02472   0.06279
 Alpha virt. eigenvalues --    0.07764   0.08671   0.10206   0.11031   0.11658
 Alpha virt. eigenvalues --    0.12622   0.13910   0.14239   0.15537   0.16132

 Mulliken charges:
               1
     1  C   -0.453987
     2  C   -0.133349
     3  N   -0.554489
     4  C   -0.000199
     5  C   -0.257643
     6  C   -0.274505
     7  C   -0.325054
     8  C    0.320352
     9  N   -0.497071
    10  C    0.039826
    11  C    0.133157
    12  C   -0.192447
    13  C   -0.205774
    14  C    0.387073
    15  F   -0.294280
    16  C   -0.199609
    17  C   -0.156006
    18  S    0.201907
    19  C   -0.200949
    20  H    0.142853
    21  H    0.144768
    22  H    0.149457
    23  H    0.142557
    24  H    0.144677
    25  H    0.302718
    26  H    0.129865
    27  H    0.138895
    28  H    0.131964
    29  H    0.161824
    30  H    0.132637
    31  H    0.153987
    32  H    0.158309
    33  H    0.154406
    34  H    0.151045
    35  H    0.151749
    36  H    0.171336
 Sum of Mulliken charges =  -0.00000

 Dipole moment (field-independent basis, Debye):
    X=             -1.7451    Y=              1.0086    Z=             -0.4403  Tot=              2.0632
 Quadrupole moment (field-independent basis, Debye-Ang):
   XX=           -118.2709   YY=           -111.4478   ZZ=           -120.2674
   XY=             -1.9297   XZ=              2.2062   YZ=              0.3362

 Normal termination of Gaussian 16 at Fri Nov  4 18:56:55 2022.
