 Gaussian 16, Revision B.01,
 Gaussian 16:  ES64L-G16RevB.01 20-Dec-2017

 -------------------------------------------------------------------
 #p b3lyp/6-31g(d) 6D 10F nosymm GFInput td=(50-50,nstate=2) SCF=XQC
 -------------------------------------------------------------------

 ------------------------------
 Gaussian input prepared by ASE
 ------------------------------
 Symbolic Z-matrix:
 Charge =  0 Multiplicity = 1

                          Input orientation:
 ---------------------------------------------------------------------
 Center     Atomic      Atomic             Coordinates (Angstroms)
 Number     Number       Type             X           Y           Z
 ---------------------------------------------------------------------
      1          6           0        5.482417    1.982274    1.393588
      2          6           0        4.052869    1.525621    1.083842
      3          6           0        3.896122   -0.001661    1.113148
      4          6           0        2.498121   -0.516071    0.732834
      5          6           0        1.396060   -0.149197    1.737176
      6          6           0        0.033054   -0.729442    1.389029
      7          8           0       -0.408970   -0.123486    0.161214
      8          6           0       -1.593565   -0.497216   -0.360795
      9          6           0       -2.442733   -1.439419    0.189754
     10          6           0       -3.648719   -1.717637   -0.484860
     11          6           0       -4.597452   -2.744505    0.092671
     12          8           0       -4.375638   -3.349795    1.117743
     13          8           0       -5.706284   -2.917855   -0.641354
     14          7           0       -4.042805   -1.149468   -1.610323
     15          6           0       -3.220721   -0.214439   -2.171007
     16          6           0       -3.621254    0.411616   -3.378827
     17          6           0       -2.818735    1.360443   -3.972702
     18          6           0       -1.583865    1.724073   -3.385718
     19          6           0       -1.166683    1.132965   -2.211928
     20          6           0       -1.971944    0.153927   -1.581163
     21          1           0        5.569065    3.074289    1.363915
     22          1           0        6.195577    1.571026    0.668615
     23          1           0        5.797223    1.650361    2.390645
     24          1           0        3.364196    1.988720    1.802985
     25          1           0        3.755362    1.898303    0.093034
     26          1           0        4.162782   -0.375133    2.113400
     27          1           0        4.628390   -0.442099    0.422016
     28          1           0        2.224346   -0.134939   -0.259454
     29          1           0        2.536079   -1.610965    0.640972
     30          1           0        1.664799   -0.523379    2.735029
     31          1           0        1.295721    0.939056    1.826733
     32          1           0        0.089005   -1.817811    1.252980
     33          1           0       -0.701457   -0.516614    2.176298
     34          1           0       -2.233932   -1.973793    1.106550
     35          1           0       -5.615744   -2.302402   -1.406393
     36          1           0       -4.572905    0.116865   -3.809702
     37          1           0       -3.133685    1.835065   -4.897881
     38          1           0       -0.961705    2.474795   -3.864700
     39          1           0       -0.222394    1.407928   -1.755509
 ---------------------------------------------------------------------

 SCF Done:  E(RB3LYP) =  -901.607069205     A.U. after   15 cycles

 Excitation energies and oscillator strengths:

 Excited state symmetry could not be determined.
 Excited State   1:      Triplet-?Sym    2.7568 eV  449.74 nm  f=0.0000  <S**2>=2.000
      70 -> 76        -0.10801
      71 -> 75         0.14309
      73 -> 74         0.65837
      73 -> 75        -0.13976
 This state for optimization and/or second-order correction.
 Total Energy, E(TD-HF/TD-DFT) =  -901.505758820
 Copying the excited state density for this state as the 1-particle RhoCI density.

 Excited state symmetry could not be determined.
 Excited State   2:      Triplet-?Sym    3.6895 eV  336.04 nm  f=0.0000  <S**2>=2.000
      72 -> 74         0.66222
      72 -> 75         0.15513
      72 -> 76         0.12589
      72 -> 77        -0.10267

 Excited state symmetry could not be determined.
 Excited State   3:      Singlet-?Sym    4.0907 eV  303.09 nm  f=0.0846  <S**2>=0.000
      71 -> 74        -0.15891
      71 -> 75         0.14390
      73 -> 74         0.65752
      73 -> 75         0.13232

 Excited state symmetry could not be determined.
 Excited State   4:      Singlet-?Sym    4.1025 eV  302.22 nm  f=0.0006  <S**2>=0.000
      72 -> 74         0.68521
      72 -> 75         0.12557

 Alpha  occ. eigenvalues --  -19.20500 -19.17734 -19.12695 -14.34827 -10.31051
 Alpha  occ. eigenvalues --  -10.28187 -10.25929 -10.24641 -10.24153 -10.21801
 Alpha  occ. eigenvalues --  -10.20840 -10.20742 -10.20680 -10.20541 -10.20335
 Alpha  occ. eigenvalues --  -10.20035 -10.19089 -10.18712 -10.18657 -10.17854
 Alpha  occ. eigenvalues --   -1.09260  -1.08918  -1.00822  -0.96016  -0.86242
 Alpha  occ. eigenvalues --   -0.82994  -0.80778  -0.77938  -0.76905  -0.75424
 Alpha  occ. eigenvalues --   -0.72541  -0.67300  -0.66833  -0.63857  -0.61717
 Alpha  occ. eigenvalues --   -0.60361  -0.59472  -0.57597  -0.56539  -0.54369
 Alpha  occ. eigenvalues --   -0.53391  -0.50748  -0.49676  -0.47814  -0.46701
 Alpha  occ. eigenvalues --   -0.46546  -0.45269  -0.44698  -0.44608  -0.44278
 Alpha  occ. eigenvalues --   -0.43205  -0.42661  -0.42082  -0.41184  -0.39572
 Alpha  occ. eigenvalues --   -0.39486  -0.37916  -0.37812  -0.37296  -0.36645
 Alpha  occ. eigenvalues --   -0.36123  -0.35183  -0.35081  -0.34426  -0.33221
 Alpha  occ. eigenvalues --   -0.32534  -0.32213  -0.30433  -0.29617  -0.28323
 Alpha  occ. eigenvalues --   -0.26380  -0.26103  -0.23645
 Alpha virt. eigenvalues --   -0.06918  -0.03778   0.00810   0.04413   0.07719
 Alpha virt. eigenvalues --    0.08943   0.09006   0.09996   0.10577   0.10966
 Alpha virt. eigenvalues --    0.11273   0.11979   0.12274   0.13789   0.14806

 Mulliken charges:
               1
     1  C   -0.442088
     2  C   -0.250338
     3  C   -0.249716
     4  C   -0.259771
     5  C   -0.283462
     6  C   -0.048144
     7  O   -0.514763
     8  C    0.384502
     9  C   -0.247462
    10  C    0.256835
    11  C    0.585389
    12  O   -0.466232
    13  O   -0.587985
    14  N   -0.659753
    15  C    0.259310
    16  C   -0.151255
    17  C   -0.132396
    18  C   -0.132869
    19  C   -0.179366
    20  C    0.081707
    21  H    0.143988
    22  H    0.143333
    23  H    0.143134
    24  H    0.134540
    25  H    0.131141
    26  H    0.127994
    27  H    0.132899
    28  H    0.147948
    29  H    0.131057
    30  H    0.143748
    31  H    0.156350
    32  H    0.154615
    33  H    0.157009
    34  H    0.178279
    35  H    0.428486
    36  H    0.145795
    37  H    0.141343
    38  H    0.139836
    39  H    0.156363
 Sum of Mulliken charges =  -0.00000

 Dipole moment (field-independent basis, Debye):
    X=              4.4938    Y=              3.8247    Z=             -1.4410  Tot=              6.0745
 Quadrupole moment (field-independent basis, Debye-Ang):
   XX=           -137.5326   YY=           -130.7867   ZZ=           -108.4174
   XY=            -20.1257   XZ=             12.3639   YZ=             -0.0693

 Normal termination of Gaussian 16 at Sat Nov  5 11:42:08 2022.
