 Gaussian 16, Revision B.01,
 Gaussian 16:  ES64L-G16RevB.01 20-Dec-2017

 -----------------------------
 #p b3lyp/6-31g(d) opt SCF=XQC
 -----------------------------

 ------------------------------
 Gaussian input prepared by ASE
 ------------------------------
 Symbolic Z-matrix:
 Charge =  0 Multiplicity = 1

 SCF Done:  E(RB3LYP) =  -901.603600849     A.U. after   15 cycles
 SCF Done:  E(RB3LYP) =  -901.606774408     A.U. after   12 cycles
 SCF Done:  E(RB3LYP) =  -901.607035386     A.U. after   11 cycles
 SCF Done:  E(RB3LYP) =  -901.607050866     A.U. after   10 cycles
 SCF Done:  E(RB3LYP) =  -901.607069927     A.U. after   10 cycles
 SCF Done:  E(RB3LYP) =  -901.607074703     A.U. after    9 cycles
 SCF Done:  E(RB3LYP) =  -901.607075056     A.U. after    8 cycles
 SCF Done:  E(RB3LYP) =  -901.607075123     A.U. after    7 cycles
 SCF Done:  E(RB3LYP) =  -901.607075142     A.U. after    7 cycles
 Optimization completed.
    -- Stationary point found.

                         Standard orientation:
 ---------------------------------------------------------------------
 Center     Atomic      Atomic             Coordinates (Angstroms)
 Number     Number       Type             X           Y           Z
 ---------------------------------------------------------------------
      1          6           0       -7.098876    0.390244   -0.217745
      2          6           0       -5.572044    0.268903   -0.264034
      3          6           0       -5.022686   -0.730443    0.764329
      4          6           0       -3.489404   -0.832438    0.812354
      5          6           0       -2.856803   -1.428776   -0.453362
      6          6           0       -1.346977   -1.595626   -0.362475
      7          8           0       -0.758421   -0.285875   -0.271645
      8          6           0        0.580209   -0.178782   -0.161948
      9          6           0        1.461977   -1.243158   -0.122894
     10          6           0        2.837407   -0.958807   -0.003536
     11          6           0        3.826153   -2.102626    0.042853
     12          8           0        3.497215   -3.266432   -0.018039
     13          8           0        5.100486   -1.701117    0.157822
     14          7           0        3.363245    0.250385    0.074804
     15          6           0        2.511206    1.316691    0.036238
     16          6           0        3.050496    2.625819    0.117175
     17          6           0        2.222078    3.725517    0.079986
     18          6           0        0.821607    3.564377   -0.040012
     19          6           0        0.267112    2.304493   -0.120379
     20          6           0        1.095847    1.157036   -0.083432
     21          1           0       -7.465808    1.110253   -0.957903
     22          1           0       -7.440074    0.723739    0.770016
     23          1           0       -7.579519   -0.573914   -0.424562
     24          1           0       -5.265781   -0.025989   -1.276525
     25          1           0       -5.120119    1.254961   -0.083601
     26          1           0       -5.448658   -1.725810    0.567130
     27          1           0       -5.383102   -0.440629    1.761312
     28          1           0       -3.061197    0.161294    0.996705
     29          1           0       -3.202199   -1.454376    1.672225
     30          1           0       -3.283821   -2.422640   -0.647872
     31          1           0       -3.084132   -0.812352   -1.331272
     32          1           0       -1.065664   -2.178452    0.524861
     33          1           0       -0.949961   -2.104120   -1.250399
     34          1           0        1.156304   -2.279090   -0.178373
     35          1           0        5.065922   -0.716034    0.183927
     36          1           0        4.127649    2.724217    0.207902
     37          1           0        2.644002    4.724767    0.142397
     38          1           0        0.180501    4.440858   -0.069199
     39          1           0       -0.805099    2.173473   -0.214209
 ---------------------------------------------------------------------

 The electronic state is 1-A.
 Alpha  occ. eigenvalues --  -19.20500 -19.17734 -19.12695 -14.34827 -10.31051
 Alpha  occ. eigenvalues --  -10.28187 -10.25929 -10.24641 -10.24153 -10.21801
 Alpha  occ. eigenvalues --  -10.20840 -10.20742 -10.20680 -10.20541 -10.20335
 Alpha  occ. eigenvalues --  -10.20035 -10.19089 -10.18712 -10.18657 -10.17854
 Alpha  occ. eigenvalues --   -1.09260  -1.08918  -1.00822  -0.96016  -0.86242
 Alpha  occ. eigenvalues --   -0.82994  -0.80778  -0.77938  -0.76905  -0.75424
 Alpha  occ. eigenvalues --   -0.72541  -0.67300  -0.66833  -0.63857  -0.61717
 Alpha  occ. eigenvalues --   -0.60361  -0.59472  -0.57597  -0.56539  -0.54369
 Alpha  occ. eigenvalues --   -0.53391  -0.50748  -0.49676  -0.47814  -0.46701
 Alpha  occ. eigenvalues --   -0.46546  -0.45269  -0.44698  -0.44608  -0.44278
 Alpha  occ. eigenvalues --   -0.43205  -0.42661  -0.42082  -0.41184  -0.39572
 Alpha  occ. eigenvalues --   -0.39486  -0.37916  -0.37812  -0.37296  -0.36645
 Alpha  occ. eigenvalues --   -0.36123  -0.35183  -0.35081  -0.34426  -0.33221
 Alpha  occ. eigenvalues --   -0.32534  -0.32213  -0.30433  -0.29617  -0.28323
 Alpha  occ. eigenvalues --   -0.26380  -0.26103  -0.23645
 Alpha virt. eigenvalues --   -0.06918  -0.03778   0.00810   0.04413   0.07719
 Alpha virt. eigenvalues --    0.08943   0.09007   0.09996   0.10577   0.10965
 Alpha virt. eigenvalues --    0.11273   0.11979   0.12274   0.13789   0.14806

 Mulliken charges:
               1
     1  C   -0.442091
     2  C   -0.250343
     3  C   -0.249707
     4  C   -0.259790
     5  C   -0.283447
     6  C   -0.048144
     7  O   -0.514763
     8  C    0.384482
     9  C   -0.247454
    10  C    0.256843
    11  C    0.585390
    12  O   -0.466233
    13  O   -0.587987
    14  N   -0.659747
    15  C    0.259292
    16  C   -0.151250
    17  C   -0.132395
    18  C   -0.132880
    19  C   -0.179348
    20  C    0.081712
    21  H    0.143989
    22  H    0.143334
    23  H    0.143135
    24  H    0.134542
    25  H    0.131143
    26  H    0.127994
    27  H    0.132899
    28  H    0.147951
    29  H    0.131059
    30  H    0.143747
    31  H    0.156346
    32  H    0.154614
    33  H    0.157010
    34  H    0.178279
    35  H    0.428486
    36  H    0.145795
    37  H    0.141343
    38  H    0.139837
    39  H    0.156360
 Sum of Mulliken charges =  -0.00000

 Dipole moment (field-independent basis, Debye):
    X=             -4.7665    Y=              3.7600    Z=             -0.2062  Tot=              6.0745
 Quadrupole moment (field-independent basis, Debye-Ang):
   XX=           -127.6571   YY=           -120.1001   ZZ=           -118.7020
   XY=             21.8716   XZ=              0.5762   YZ=              1.0337

 Normal termination of Gaussian 16 at Fri Nov  4 18:54:28 2022.
