 Gaussian 16, Revision B.01,
 Gaussian 16:  ES64L-G16RevB.01 20-Dec-2017

 -----------------------------
 #p b3lyp/6-31g(d) opt SCF=XQC
 -----------------------------

 ------------------------------
 Gaussian input prepared by ASE
 ------------------------------
 Symbolic Z-matrix:
 Charge =  0 Multiplicity = 1

 SCF Done:  E(RB3LYP) =  -1070.83073434     A.U. after   15 cycles
 SCF Done:  E(RB3LYP) =  -1070.83585845     A.U. after   13 cycles
 SCF Done:  E(RB3LYP) =  -1070.83652641     A.U. after   12 cycles
 SCF Done:  E(RB3LYP) =  -1070.83666533     A.U. after   12 cycles
 SCF Done:  E(RB3LYP) =  -1070.83669437     A.U. after   10 cycles
 SCF Done:  E(RB3LYP) =  -1070.83670069     A.U. after    8 cycles
 SCF Done:  E(RB3LYP) =  -1070.83670266     A.U. after    8 cycles
 SCF Done:  E(RB3LYP) =  -1070.83670285     A.U. after    8 cycles
 Optimization completed.
    -- Stationary point found.

                         Standard orientation:
 ---------------------------------------------------------------------
 Center     Atomic      Atomic             Coordinates (Angstroms)
 Number     Number       Type             X           Y           Z
 ---------------------------------------------------------------------
      1          6           0       -3.861798    0.014307    1.337491
      2          6           0       -2.397111    0.418092    1.126258
      3          6           0       -1.951339    0.352346   -0.340335
      4          6           0       -0.630544    1.130638   -0.692432
      5          7           0       -0.432916    2.442719   -0.095876
      6          6           0       -1.377956    3.470332   -0.522893
      7          6           0        0.510446    0.182496   -0.373341
      8          6           0        1.828935    0.557020   -0.107585
      9          6           0        2.772794   -0.444574    0.156451
     10          8           0        4.084824   -0.207468    0.436776
     11          6           0        4.538645    1.137880    0.453180
     12          6           0        2.396291   -1.801561    0.152183
     13          6           0        1.085087   -2.164968   -0.124864
     14          6           0        0.151788   -1.160513   -0.385799
     15         16           0       -1.575254   -1.442853   -0.828789
     16          8           0       -2.189332   -2.424271    0.151967
     17          1           0       -4.139014    0.115436    2.392864
     18          1           0       -4.534903    0.655028    0.753452
     19          1           0       -4.021425   -1.024750    1.041034
     20          1           0       -2.257099    1.447358    1.482863
     21          1           0       -1.746889   -0.218742    1.737838
     22          1           0       -2.767654    0.673735   -0.996152
     23          1           0       -0.643405    1.300120   -1.780278
     24          1           0       -0.418480    2.367956    0.918712
     25          1           0       -1.290857    3.607926   -1.606970
     26          1           0       -1.114645    4.419122   -0.044640
     27          1           0       -2.435885    3.254273   -0.295610
     28          1           0        2.083107    1.610071   -0.098025
     29          1           0        4.023892    1.727329    1.222993
     30          1           0        5.603710    1.090167    0.686481
     31          1           0        4.400751    1.621278   -0.522644
     32          1           0        3.153975   -2.546190    0.374561
     33          1           0        0.783955   -3.208563   -0.114559
 ---------------------------------------------------------------------

 The electronic state is 1-A.
 Alpha  occ. eigenvalues --  -88.97573 -19.18583 -19.09934 -14.33636 -10.25797
 Alpha  occ. eigenvalues --  -10.24699 -10.23791 -10.21581 -10.21552 -10.20780
 Alpha  occ. eigenvalues --  -10.20356 -10.20281 -10.19478 -10.19384 -10.19043
 Alpha  occ. eigenvalues --  -10.16823  -8.02241  -5.98653  -5.98543  -5.97991
 Alpha  occ. eigenvalues --   -1.07196  -0.99175  -0.92433  -0.86707  -0.81428
 Alpha  occ. eigenvalues --   -0.77353  -0.76197  -0.73220  -0.70667  -0.68810
 Alpha  occ. eigenvalues --   -0.65485  -0.63294  -0.60924  -0.58041  -0.56884
 Alpha  occ. eigenvalues --   -0.53399  -0.50858  -0.48684  -0.47603  -0.47505
 Alpha  occ. eigenvalues --   -0.46550  -0.46315  -0.44884  -0.43792  -0.42495
 Alpha  occ. eigenvalues --   -0.41910  -0.41103  -0.40000  -0.38914  -0.38434
 Alpha  occ. eigenvalues --   -0.37947  -0.37921  -0.37100  -0.36259  -0.34841
 Alpha  occ. eigenvalues --   -0.34211  -0.34116  -0.32920  -0.31670  -0.25933
 Alpha  occ. eigenvalues --   -0.25783  -0.23701  -0.23069  -0.21027
 Alpha virt. eigenvalues --   -0.01396  -0.01184   0.03804   0.05307   0.07417
 Alpha virt. eigenvalues --    0.09291   0.09915   0.10219   0.10957   0.11775
 Alpha virt. eigenvalues --    0.13370   0.13869   0.14461   0.15149   0.15222

 Mulliken charges:
               1
     1  C   -0.458162
     2  C   -0.250153
     3  C   -0.335971
     4  C   -0.040018
     5  N   -0.548730
     6  C   -0.306539
     7  C    0.139698
     8  C   -0.245513
     9  C    0.378487
    10  O   -0.504674
    11  C   -0.215428
    12  C   -0.159494
    13  C   -0.168887
    14  C   -0.197441
    15  S    0.765553
    16  O   -0.630697
    17  H    0.142115
    18  H    0.131513
    19  H    0.195512
    20  H    0.127808
    21  H    0.169198
    22  H    0.157973
    23  H    0.160443
    24  H    0.304609
    25  H    0.156406
    26  H    0.156240
    27  H    0.134691
    28  H    0.151113
    29  H    0.154548
    30  H    0.172643
    31  H    0.156206
    32  H    0.145375
    33  H    0.161576
 Sum of Mulliken charges =  -0.00000

 Dipole moment (field-independent basis, Debye):
    X=              2.0795    Y=              4.7268    Z=             -0.2508  Tot=              5.1701
 Quadrupole moment (field-independent basis, Debye-Ang):
   XX=            -99.3271   YY=           -103.3521   ZZ=           -101.7268
   XY=             -6.3914   XZ=              2.5595   YZ=              2.3165

 Normal termination of Gaussian 16 at Fri Nov  4 18:54:04 2022.
