 Gaussian 16, Revision B.01,
 Gaussian 16:  ES64L-G16RevB.01 20-Dec-2017

 -------------------------------------------------------------------
 #p b3lyp/6-31g(d) 6D 10F nosymm GFInput td=(50-50,nstate=2) SCF=XQC
 -------------------------------------------------------------------

 ------------------------------
 Gaussian input prepared by ASE
 ------------------------------
 Symbolic Z-matrix:
 Charge =  0 Multiplicity = 1

                          Input orientation:
 ---------------------------------------------------------------------
 Center     Atomic      Atomic             Coordinates (Angstroms)
 Number     Number       Type             X           Y           Z
 ---------------------------------------------------------------------
      1          6           0       -3.612884    1.671778    0.370353
      2          6           0       -2.243894    1.139022   -0.071243
      3          6           0       -1.841939   -0.165646    0.628902
      4          6           0       -0.681887   -0.981323   -0.051656
      5          7           0       -0.686484   -1.092004   -1.502251
      6          6           0       -1.803318   -1.844199   -2.066445
      7          6           0        0.611224   -0.382202    0.469466
      8          6           0        1.856737   -0.466850   -0.155707
      9          6           0        2.962699    0.130293    0.464005
     10          8           0        4.225262    0.123309   -0.047962
     11          6           0        4.448468   -0.539811   -1.283533
     12          6           0        2.818026    0.801117    1.693742
     13          6           0        1.577465    0.869874    2.313707
     14          6           0        0.481533    0.272971    1.688642
     15         16           0       -1.187799    0.203327    2.372097
     16          8           0       -1.596833    1.588938    2.835702
     17          1           0       -3.868187    2.580771   -0.185921
     18          1           0       -4.402345    0.932990    0.181574
     19          1           0       -3.606526    1.914189    1.435343
     20          1           0       -2.265966    0.956095   -1.153929
     21          1           0       -1.476724    1.902645    0.103987
     22          1           0       -2.721589   -0.802761    0.770521
     23          1           0       -0.758668   -2.013744    0.323191
     24          1           0       -0.626372   -0.168280   -1.924513
     25          1           0       -1.776150   -2.869258   -1.678814
     26          1           0       -1.686451   -1.896156   -3.153599
     27          1           0       -2.802283   -1.429132   -1.848859
     28          1           0        1.931764   -0.977819   -1.108016
     29          1           0        3.868187   -0.083721   -2.096114
     30          1           0        5.513654   -0.428267   -1.493311
     31          1           0        4.199773   -1.606975   -1.218465
     32          1           0        3.696267    1.261878    2.134650
     33          1           0        1.455238    1.398952    3.254459
 ---------------------------------------------------------------------

 SCF Done:  E(RB3LYP) =  -1070.83670968     A.U. after   16 cycles

 Excitation energies and oscillator strengths:

 Excited state symmetry could not be determined.
 Excited State   1:      Triplet-?Sym    3.5768 eV  346.64 nm  f=0.0000  <S**2>=2.000
      60 -> 65        -0.21979
      61 -> 65         0.24538
      63 -> 66         0.36122
      64 -> 66         0.47184
 This state for optimization and/or second-order correction.
 Total Energy, E(TD-HF/TD-DFT) =  -1070.70526549
 Copying the excited state density for this state as the 1-particle RhoCI density.

 Excited state symmetry could not be determined.
 Excited State   2:      Triplet-?Sym    4.0299 eV  307.66 nm  f=0.0000  <S**2>=2.000
      63 -> 65         0.36404
      64 -> 65         0.57095
      64 -> 66        -0.10701

 Excited state symmetry could not be determined.
 Excited State   3:      Singlet-?Sym    4.5393 eV  273.14 nm  f=0.0486  <S**2>=0.000
      62 -> 66        -0.12169
      63 -> 66        -0.14000
      64 -> 65        -0.37837
      64 -> 66         0.54612

 Excited state symmetry could not be determined.
 Excited State   4:      Singlet-?Sym    4.5896 eV  270.14 nm  f=0.0088  <S**2>=0.000
      63 -> 66        -0.11928
      64 -> 65         0.57392
      64 -> 66         0.37468

 Alpha  occ. eigenvalues --  -88.97573 -19.18583 -19.09934 -14.33636 -10.25797
 Alpha  occ. eigenvalues --  -10.24699 -10.23792 -10.21581 -10.21552 -10.20780
 Alpha  occ. eigenvalues --  -10.20356 -10.20281 -10.19478 -10.19384 -10.19043
 Alpha  occ. eigenvalues --  -10.16823  -8.02241  -5.98653  -5.98543  -5.97991
 Alpha  occ. eigenvalues --   -1.07196  -0.99175  -0.92433  -0.86707  -0.81428
 Alpha  occ. eigenvalues --   -0.77353  -0.76197  -0.73220  -0.70667  -0.68810
 Alpha  occ. eigenvalues --   -0.65485  -0.63294  -0.60924  -0.58041  -0.56884
 Alpha  occ. eigenvalues --   -0.53399  -0.50858  -0.48684  -0.47603  -0.47505
 Alpha  occ. eigenvalues --   -0.46550  -0.46315  -0.44884  -0.43792  -0.42495
 Alpha  occ. eigenvalues --   -0.41910  -0.41104  -0.40000  -0.38914  -0.38434
 Alpha  occ. eigenvalues --   -0.37947  -0.37921  -0.37100  -0.36259  -0.34841
 Alpha  occ. eigenvalues --   -0.34211  -0.34116  -0.32920  -0.31670  -0.25933
 Alpha  occ. eigenvalues --   -0.25783  -0.23701  -0.23069  -0.21027
 Alpha virt. eigenvalues --   -0.01395  -0.01184   0.03804   0.05307   0.07417
 Alpha virt. eigenvalues --    0.09291   0.09916   0.10219   0.10957   0.11775
 Alpha virt. eigenvalues --    0.13370   0.13869   0.14461   0.15149   0.15222

 Mulliken charges:
               1
     1  C   -0.458167
     2  C   -0.250150
     3  C   -0.335937
     4  C   -0.040089
     5  N   -0.548719
     6  C   -0.306538
     7  C    0.139704
     8  C   -0.245500
     9  C    0.378493
    10  O   -0.504678
    11  C   -0.215428
    12  C   -0.159498
    13  C   -0.168882
    14  C   -0.197433
    15  S    0.765540
    16  O   -0.630694
    17  H    0.142116
    18  H    0.131514
    19  H    0.195513
    20  H    0.127806
    21  H    0.169198
    22  H    0.157971
    23  H    0.160449
    24  H    0.304610
    25  H    0.156406
    26  H    0.156240
    27  H    0.134692
    28  H    0.151113
    29  H    0.154547
    30  H    0.172643
    31  H    0.156206
    32  H    0.145376
    33  H    0.161577
 Sum of Mulliken charges =  -0.00000

 Dipole moment (field-independent basis, Debye):
    X=              1.2520    Y=             -2.6531    Z=             -4.2572  Tot=              5.1701
 Quadrupole moment (field-independent basis, Debye-Ang):
   XX=            -96.8207   YY=           -105.5426   ZZ=           -106.5166
   XY=              3.9792   XZ=              3.6886   YZ=             -4.7634

 Normal termination of Gaussian 16 at Sat Nov  5 11:40:33 2022.
