 Gaussian 16, Revision B.01,
 Gaussian 16:  ES64L-G16RevB.01 20-Dec-2017

 -----------------------------
 #p b3lyp/6-31g(d) opt SCF=XQC
 -----------------------------

 ------------------------------
 Gaussian input prepared by ASE
 ------------------------------
 Symbolic Z-matrix:
 Charge =  0 Multiplicity = 1

 SCF Done:  E(RB3LYP) =  -1219.63977618     A.U. after   16 cycles
 SCF Done:  E(RB3LYP) =  -1219.64376661     A.U. after   12 cycles
 SCF Done:  E(RB3LYP) =  -1219.64403311     A.U. after   11 cycles
 SCF Done:  E(RB3LYP) =  -1219.64407607     A.U. after   11 cycles
 SCF Done:  E(RB3LYP) =  -1219.64408153     A.U. after    9 cycles
 SCF Done:  E(RB3LYP) =  -1219.64408205     A.U. after    9 cycles
 SCF Done:  E(RB3LYP) =  -1219.64408287     A.U. after    8 cycles
 SCF Done:  E(RB3LYP) =  -1219.64408372     A.U. after    9 cycles
 SCF Done:  E(RB3LYP) =  -1219.64409649     A.U. after   12 cycles
 SCF Done:  E(RB3LYP) =  -1219.60679824     A.U. after   16 cycles
 SCF Done:  E(RB3LYP) =  -1219.64346359     A.U. after   13 cycles
 SCF Done:  E(RB3LYP) =  -1219.64117834     A.U. after   14 cycles
 SCF Done:  E(RB3LYP) =  -1219.63956639     A.U. after   13 cycles
 SCF Done:  E(RB3LYP) =  -1219.64483058     A.U. after    9 cycles
 SCF Done:  E(RB3LYP) =  -1219.64554358     A.U. after   12 cycles
 SCF Done:  E(RB3LYP) =  -1219.64557656     A.U. after   11 cycles
 SCF Done:  E(RB3LYP) =  -1219.64558293     A.U. after   11 cycles
 SCF Done:  E(RB3LYP) =  -1219.64558496     A.U. after   10 cycles
 SCF Done:  E(RB3LYP) =  -1219.64558585     A.U. after    8 cycles
 SCF Done:  E(RB3LYP) =  -1219.64558608     A.U. after    7 cycles
 Optimization completed.
    -- Stationary point found.

                         Standard orientation:
 ---------------------------------------------------------------------
 Center     Atomic      Atomic             Coordinates (Angstroms)
 Number     Number       Type             X           Y           Z
 ---------------------------------------------------------------------
      1          8           0        0.189895    3.078514    0.130691
      2          6           0       -0.806055    2.390228    0.111362
      3          8           0       -2.071805    2.938139    0.044634
      4          7           0       -3.053219    1.915009    0.059885
      5          6           0       -2.438295    0.764691    0.111690
      6          6           0       -3.210626   -0.470842    0.122806
      7          6           0       -2.903832   -1.677273    0.713914
      8          6           0       -3.922162   -2.657931    0.546885
      9          6           0       -4.991804   -2.187828   -0.167085
     10         16           0       -4.780711   -0.538013   -0.644737
     11          6           0       -0.993824    0.924787    0.128113
     12          6           0       -0.006490   -0.015496    0.066798
     13          6           0        1.397970    0.258829    0.052978
     14          6           0        2.312376   -0.744967   -0.026027
     15          6           0        3.762575   -0.621206   -0.051287
     16          6           0        4.429299    0.621248    0.002621
     17          6           0        5.817439    0.680695   -0.025020
     18          6           0        6.574567   -0.493388   -0.106950
     19          6           0        5.931427   -1.731369   -0.161373
     20          6           0        4.541029   -1.793007   -0.133756
     21          1           0       -1.998851   -1.845019    1.286385
     22          1           0       -3.861773   -3.664443    0.945850
     23          1           0       -5.895446   -2.716586   -0.440098
     24          1           0       -0.304789   -1.061135    0.005347
     25          1           0        1.697194    1.300311    0.107360
     26          1           0        1.935881   -1.767748   -0.077123
     27          1           0        3.857192    1.541570    0.065544
     28          1           0        6.314634    1.645682    0.017048
     29          1           0        7.659516   -0.440831   -0.128390
     30          1           0        6.512702   -2.646912   -0.225387
     31          1           0        4.041375   -2.757995   -0.176539
 ---------------------------------------------------------------------

 The electronic state is 1-A.
 Alpha  occ. eigenvalues --  -88.91856 -19.21332 -19.14070 -14.38988 -10.31538
 Alpha  occ. eigenvalues --  -10.25106 -10.23955 -10.23760 -10.22960 -10.22686
 Alpha  occ. eigenvalues --  -10.22301 -10.22055 -10.21266 -10.21245 -10.21167
 Alpha  occ. eigenvalues --  -10.21054 -10.21028 -10.20912 -10.20846 -10.20545
 Alpha  occ. eigenvalues --   -7.97926  -5.94336  -5.93957  -5.93630  -1.12762
 Alpha  occ. eigenvalues --   -1.03591  -0.90433  -0.87872  -0.87085  -0.84047
 Alpha  occ. eigenvalues --   -0.80106  -0.76481  -0.75696  -0.74537  -0.74181
 Alpha  occ. eigenvalues --   -0.69177  -0.63870  -0.62795  -0.62100  -0.59016
 Alpha  occ. eigenvalues --   -0.57484  -0.56414  -0.54087  -0.53706  -0.51935
 Alpha  occ. eigenvalues --   -0.49952  -0.48072  -0.47329  -0.47139  -0.45154
 Alpha  occ. eigenvalues --   -0.44464  -0.43682  -0.43206  -0.42151  -0.41044
 Alpha  occ. eigenvalues --   -0.40275  -0.39463  -0.39192  -0.39125  -0.37991
 Alpha  occ. eigenvalues --   -0.36728  -0.36308  -0.35794  -0.35636  -0.35446
 Alpha  occ. eigenvalues --   -0.32639  -0.31556  -0.28164  -0.26996  -0.26586
 Alpha  occ. eigenvalues --   -0.26177  -0.23847  -0.22477
 Alpha virt. eigenvalues --   -0.10790  -0.04477  -0.02178  -0.01601   0.01877
 Alpha virt. eigenvalues --    0.03365   0.04409   0.06048   0.07904   0.08202
 Alpha virt. eigenvalues --    0.08899   0.09934   0.10971   0.12509   0.12883

 Mulliken charges:
               1
     1  O   -0.476433
     2  C    0.643376
     3  O   -0.390971
     4  N   -0.226160
     5  C    0.309840
     6  C   -0.199962
     7  C   -0.118893
     8  C   -0.105694
     9  C   -0.336828
    10  S    0.311284
    11  C   -0.028525
    12  C   -0.187888
    13  C   -0.126734
    14  C   -0.175021
    15  C    0.163989
    16  C   -0.171630
    17  C   -0.131626
    18  C   -0.121003
    19  C   -0.131028
    20  C   -0.184129
    21  H    0.146263
    22  H    0.147254
    23  H    0.179046
    24  H    0.153618
    25  H    0.195923
    26  H    0.138865
    27  H    0.157081
    28  H    0.145242
    29  H    0.142505
    30  H    0.141052
    31  H    0.137186
 Sum of Mulliken charges =  -0.00000

 Dipole moment (field-independent basis, Debye):
    X=              3.6781    Y=             -6.6396    Z=              0.1478  Tot=              7.5918
 Quadrupole moment (field-independent basis, Debye-Ang):
   XX=            -98.9317   YY=           -124.7018   ZZ=           -123.4853
   XY=             11.0883   XZ=              0.4781   YZ=             -1.3126

 Normal termination of Gaussian 16 at Fri Nov  4 19:07:16 2022.
