 Gaussian 16, Revision B.01,
 Gaussian 16:  ES64L-G16RevB.01 20-Dec-2017

 -------------------------------------------------------------------
 #p b3lyp/6-31g(d) 6D 10F nosymm GFInput td=(50-50,nstate=2) SCF=XQC
 -------------------------------------------------------------------

 ------------------------------
 Gaussian input prepared by ASE
 ------------------------------
 Symbolic Z-matrix:
 Charge =  0 Multiplicity = 1

                          Input orientation:
 ---------------------------------------------------------------------
 Center     Atomic      Atomic             Coordinates (Angstroms)
 Number     Number       Type             X           Y           Z
 ---------------------------------------------------------------------
      1          8           0       -0.220562   -3.392801    0.901967
      2          6           0       -1.291958   -2.846654    0.761039
      3          8           0       -2.483163   -3.499102    1.010287
      4          7           0       -3.580122   -2.641085    0.744417
      5          6           0       -3.107364   -1.485411    0.363675
      6          6           0       -4.022247   -0.399099    0.037983
      7          6           0       -3.859497    0.626417   -0.868016
      8          6           0       -4.988897    1.489529   -0.945965
      9          6           0       -5.997894    1.111588   -0.100998
     10         16           0       -5.592771   -0.307856    0.802137
     11          6           0       -1.654055   -1.474206    0.350761
     12          6           0       -0.786938   -0.444591    0.125553
     13          6           0        0.640202   -0.538814    0.173990
     14          6           0        1.427214    0.547771   -0.049461
     15          6           0        2.881648    0.605751   -0.032355
     16          6           0        3.692836   -0.517306    0.235670
     17          6           0        5.077934   -0.404519    0.239286
     18          6           0        5.688367    0.827078   -0.023332
     19          6           0        4.901127    1.948757   -0.290308
     20          6           0        3.513524    1.837805   -0.294435
     21          1           0       -2.978393    0.735281   -1.489835
     22          1           0       -5.047726    2.348098   -1.605728
     23          1           0       -6.959751    1.585727    0.042927
     24          1           0       -1.208794    0.535635   -0.091964
     25          1           0        1.062444   -1.513027    0.397145
     26          1           0        0.930520    1.494215   -0.268499
     27          1           0        3.235556   -1.479860    0.442173
     28          1           0        5.687480   -1.279235    0.447845
     29          1           0        6.771670    0.909367   -0.019003
     30          1           0        5.368076    2.908118   -0.494718
     31          1           0        2.901534    2.712430   -0.502238
 ---------------------------------------------------------------------

 SCF Done:  E(RB3LYP) =  -1219.64558715     A.U. after   16 cycles

 Excitation energies and oscillator strengths:

 Excited state symmetry could not be determined.
 Excited State   1:      Triplet-?Sym    1.5234 eV  813.87 nm  f=0.0000  <S**2>=2.000
      68 -> 74         0.10769
      72 -> 74         0.19235
      73 -> 74         0.66767
      73 <- 74         0.13873
 This state for optimization and/or second-order correction.
 Total Energy, E(TD-HF/TD-DFT) =  -1219.58960365
 Copying the excited state density for this state as the 1-particle RhoCI density.

 Excited state symmetry could not be determined.
 Excited State   2:      Triplet-?Sym    2.4039 eV  515.76 nm  f=0.0000  <S**2>=2.000
      68 -> 74        -0.10085
      72 -> 74         0.60597
      72 -> 75        -0.12231
      73 -> 74        -0.13834
      73 -> 75         0.25300

 Excited state symmetry could not be determined.
 Excited State   3:      Singlet-?Sym    2.8646 eV  432.82 nm  f=0.0396  <S**2>=0.000
      72 -> 74        -0.46647
      73 -> 74         0.52394

 Excited state symmetry could not be determined.
 Excited State   4:      Singlet-?Sym    3.2545 eV  380.96 nm  f=0.2265  <S**2>=0.000
      70 -> 74         0.51665
      71 -> 74         0.29007
      72 -> 74        -0.25489
      73 -> 74        -0.27082

 Alpha  occ. eigenvalues --  -88.91855 -19.21332 -19.14070 -14.38988 -10.31538
 Alpha  occ. eigenvalues --  -10.25106 -10.23955 -10.23760 -10.22960 -10.22686
 Alpha  occ. eigenvalues --  -10.22301 -10.22055 -10.21266 -10.21245 -10.21167
 Alpha  occ. eigenvalues --  -10.21054 -10.21028 -10.20912 -10.20846 -10.20545
 Alpha  occ. eigenvalues --   -7.97926  -5.94335  -5.93957  -5.93630  -1.12762
 Alpha  occ. eigenvalues --   -1.03591  -0.90433  -0.87872  -0.87085  -0.84047
 Alpha  occ. eigenvalues --   -0.80106  -0.76481  -0.75696  -0.74537  -0.74181
 Alpha  occ. eigenvalues --   -0.69177  -0.63870  -0.62795  -0.62100  -0.59016
 Alpha  occ. eigenvalues --   -0.57484  -0.56414  -0.54087  -0.53706  -0.51935
 Alpha  occ. eigenvalues --   -0.49952  -0.48072  -0.47329  -0.47139  -0.45154
 Alpha  occ. eigenvalues --   -0.44464  -0.43682  -0.43206  -0.42151  -0.41044
 Alpha  occ. eigenvalues --   -0.40275  -0.39463  -0.39192  -0.39125  -0.37991
 Alpha  occ. eigenvalues --   -0.36728  -0.36308  -0.35794  -0.35636  -0.35446
 Alpha  occ. eigenvalues --   -0.32639  -0.31556  -0.28164  -0.26996  -0.26586
 Alpha  occ. eigenvalues --   -0.26177  -0.23847  -0.22477
 Alpha virt. eigenvalues --   -0.10790  -0.04477  -0.02178  -0.01601   0.01877
 Alpha virt. eigenvalues --    0.03365   0.04409   0.06048   0.07904   0.08202
 Alpha virt. eigenvalues --    0.08899   0.09934   0.10971   0.12509   0.12883

 Mulliken charges:
               1
     1  O   -0.476433
     2  C    0.643367
     3  O   -0.390970
     4  N   -0.226157
     5  C    0.309818
     6  C   -0.199950
     7  C   -0.118891
     8  C   -0.105697
     9  C   -0.336827
    10  S    0.311288
    11  C   -0.028509
    12  C   -0.187893
    13  C   -0.126734
    14  C   -0.175022
    15  C    0.163993
    16  C   -0.171634
    17  C   -0.131625
    18  C   -0.121002
    19  C   -0.131030
    20  C   -0.184128
    21  H    0.146262
    22  H    0.147254
    23  H    0.179045
    24  H    0.153619
    25  H    0.195924
    26  H    0.138866
    27  H    0.157082
    28  H    0.145242
    29  H    0.142505
    30  H    0.141053
    31  H    0.137186
 Sum of Mulliken charges =  -0.00000

 Dipole moment (field-independent basis, Debye):
    X=              2.8559    Y=              6.7270    Z=             -2.0558  Tot=              7.5917
 Quadrupole moment (field-independent basis, Debye-Ang):
   XX=           -101.1085   YY=           -133.3711   ZZ=           -123.8095
   XY=            -13.9481   XZ=              4.0836   YZ=              1.9393

 Normal termination of Gaussian 16 at Sat Nov  5 11:40:18 2022.
