 Gaussian 16, Revision B.01,
 Gaussian 16:  ES64L-G16RevB.01 20-Dec-2017

 -----------------------------
 #p b3lyp/6-31g(d) opt SCF=XQC
 -----------------------------

 ------------------------------
 Gaussian input prepared by ASE
 ------------------------------
 Symbolic Z-matrix:
 Charge =  0 Multiplicity = 1

 SCF Done:  E(RB3LYP) =  -711.768859352     A.U. after   14 cycles
 SCF Done:  E(RB3LYP) =  -711.771848235     A.U. after   12 cycles
 SCF Done:  E(RB3LYP) =  -711.772010849     A.U. after   12 cycles
 SCF Done:  E(RB3LYP) =  -711.772069775     A.U. after   10 cycles
 SCF Done:  E(RB3LYP) =  -711.772084070     A.U. after   10 cycles
 SCF Done:  E(RB3LYP) =  -711.772090382     A.U. after    9 cycles
 SCF Done:  E(RB3LYP) =  -711.772091987     A.U. after    8 cycles
 Optimization completed.
    -- Stationary point found.

                         Standard orientation:
 ---------------------------------------------------------------------
 Center     Atomic      Atomic             Coordinates (Angstroms)
 Number     Number       Type             X           Y           Z
 ---------------------------------------------------------------------
      1          6           0        1.261356    2.982629    1.338628
      2          6           0        1.275089    2.462528   -0.115272
      3          6           0        2.397197    1.481069   -0.357366
      4          6           0        2.195922    0.153109   -0.263443
      5          6           0        3.311331   -0.842659   -0.525897
      6          6           0        3.025937   -2.190913    0.134668
      7          8           0        1.740298   -2.653768   -0.248910
      8          6           0        0.712903   -1.852508    0.325537
      9          6           0        0.851570   -0.380038   -0.011195
     10          6           0       -0.205815    0.473823   -0.151926
     11          6           0       -1.636838    0.081799   -0.079684
     12          6           0       -2.143987   -0.672238    0.990701
     13          6           0       -3.495321   -1.015857    1.044988
     14          6           0       -4.366809   -0.606566    0.035127
     15          6           0       -3.877254    0.151105   -1.031428
     16          6           0       -2.528052    0.495042   -1.087495
     17          7           0        0.015512    1.807680   -0.498656
     18          1           0        2.210219    3.478805    1.575883
     19          1           0        0.451660    3.708587    1.492817
     20          1           0        1.125028    2.152992    2.040339
     21          1           0        1.395513    3.327469   -0.782097
     22          1           0        3.384976    1.882679   -0.572237
     23          1           0        4.276898   -0.441515   -0.193494
     24          1           0        3.387422   -1.015677   -1.608273
     25          1           0        3.742390   -2.951019   -0.192160
     26          1           0        3.089031   -2.111034    1.234385
     27          1           0        0.734319   -2.005930    1.421773
     28          1           0       -0.231176   -2.262592   -0.042018
     29          1           0       -1.480380   -0.970487    1.796561
     30          1           0       -3.867768   -1.597274    1.884282
     31          1           0       -5.419004   -0.874367    0.078492
     32          1           0       -4.546714    0.469184   -1.826404
     33          1           0       -2.148264    1.067350   -1.929287
     34          1           0       -0.798487    2.397255   -0.372335
 ---------------------------------------------------------------------

 The electronic state is 1-A.
 Alpha  occ. eigenvalues --  -19.13562 -14.34133 -10.22319 -10.22274 -10.22248
 Alpha  occ. eigenvalues --  -10.22232 -10.20347 -10.19438 -10.19423 -10.19375
 Alpha  occ. eigenvalues --  -10.19338 -10.19322 -10.18505 -10.17947 -10.17293
 Alpha  occ. eigenvalues --  -10.17050 -10.16878  -1.02193  -0.93606  -0.85665
 Alpha  occ. eigenvalues --   -0.80469  -0.78975  -0.75584  -0.74626  -0.74051
 Alpha  occ. eigenvalues --   -0.69045  -0.66816  -0.63102  -0.61623  -0.60453
 Alpha  occ. eigenvalues --   -0.57547  -0.57021  -0.53059  -0.50412  -0.49399
 Alpha  occ. eigenvalues --   -0.47509  -0.46071  -0.45810  -0.45283  -0.44041
 Alpha  occ. eigenvalues --   -0.43466  -0.42688  -0.42253  -0.40982  -0.40386
 Alpha  occ. eigenvalues --   -0.39281  -0.38812  -0.37670  -0.36774  -0.36530
 Alpha  occ. eigenvalues --   -0.35869  -0.34758  -0.34318  -0.31786  -0.31255
 Alpha  occ. eigenvalues --   -0.29758  -0.26086  -0.25404  -0.24683  -0.24003
 Alpha  occ. eigenvalues --   -0.17104
 Alpha virt. eigenvalues --   -0.02658  -0.00528   0.01631   0.07625   0.08799
 Alpha virt. eigenvalues --    0.09260   0.12167   0.12390   0.12877   0.13899
 Alpha virt. eigenvalues --    0.14648   0.14856   0.15087   0.15903   0.16106

 Mulliken charges:
               1
     1  C   -0.437665
     2  C    0.015879
     3  C   -0.232837
     4  C    0.168821
     5  C   -0.338229
     6  C   -0.042002
     7  O   -0.467926
     8  C   -0.102482
     9  C    0.029684
    10  C    0.197584
    11  C    0.059924
    12  C   -0.170314
    13  C   -0.134042
    14  C   -0.125532
    15  C   -0.132748
    16  C   -0.173459
    17  N   -0.627046
    18  H    0.142971
    19  H    0.130184
    20  H    0.155588
    21  H    0.132101
    22  H    0.115963
    23  H    0.135746
    24  H    0.163690
    25  H    0.141712
    26  H    0.118033
    27  H    0.119953
    28  H    0.160861
    29  H    0.140062
    30  H    0.133816
    31  H    0.132350
    32  H    0.133333
    33  H    0.145637
    34  H    0.310388
 Sum of Mulliken charges =  -0.00000

 Dipole moment (field-independent basis, Debye):
    X=             -0.8566    Y=              1.9750    Z=              0.9913  Tot=              2.3700
 Quadrupole moment (field-independent basis, Debye-Ang):
   XX=            -88.3508   YY=           -100.9021   ZZ=            -99.9367
   XY=              1.4661   XZ=              1.2034   YZ=             -4.1728

 Normal termination of Gaussian 16 at Fri Nov  4 19:02:52 2022.
