 Gaussian 16, Revision B.01,
 Gaussian 16:  ES64L-G16RevB.01 20-Dec-2017

 -------------------------------------------------------------------
 #p b3lyp/6-31g(d) 6D 10F nosymm GFInput td=(50-50,nstate=2) SCF=XQC
 -------------------------------------------------------------------

 ------------------------------
 Gaussian input prepared by ASE
 ------------------------------
 Symbolic Z-matrix:
 Charge =  0 Multiplicity = 1

                          Input orientation:
 ---------------------------------------------------------------------
 Center     Atomic      Atomic             Coordinates (Angstroms)
 Number     Number       Type             X           Y           Z
 ---------------------------------------------------------------------
      1          6           0       -1.718046    2.839297    0.136735
      2          6           0       -1.681806    1.661901    1.135207
      3          6           0       -2.556643    0.513392    0.691830
      4          6           0       -2.049077   -0.524967    0.001177
      5          6           0       -2.915083   -1.694686   -0.430521
      6          6           0       -2.293485   -2.448609   -1.605595
      7          8           0       -0.955874   -2.807529   -1.295425
      8          6           0       -0.115155   -1.659618   -1.240295
      9          6           0       -0.607173   -0.611121   -0.260827
     10          6           0        0.215669    0.224521    0.440300
     11          6           0        1.700344    0.181662    0.415204
     12          6           0        2.419802    0.175873   -0.790550
     13          6           0        3.814970    0.150788   -0.789411
     14          6           0        4.517773    0.138498    0.415887
     15          6           0        3.814755    0.152388    1.622885
     16          6           0        2.421498    0.177215    1.623771
     17          7           0       -0.325060    1.136387    1.348319
     18          1           0       -2.743284    3.211505    0.021973
     19          1           0       -1.091886    3.672657    0.482901
     20          1           0       -1.359340    2.517891   -0.846784
     21          1           0       -2.031533    2.033570    2.108261
     22          1           0       -3.619823    0.570086    0.914539
     23          1           0       -3.929916   -1.357501   -0.675775
     24          1           0       -3.001686   -2.401950    0.405865
     25          1           0       -2.829553   -3.381784   -1.804842
     26          1           0       -2.319710   -1.835682   -2.523947
     27          1           0       -0.047044   -1.238115   -2.261779
     28          1           0        0.879157   -2.025919   -0.972494
     29          1           0        1.883334    0.215224   -1.733626
     30          1           0        4.352329    0.150112   -1.734092
     31          1           0        5.604209    0.119311    0.415711
     32          1           0        4.352849    0.136317    2.567096
     33          1           0        1.878993    0.167644    2.565038
     34          1           0        0.335496    1.841243    1.653266
 ---------------------------------------------------------------------

 SCF Done:  E(RB3LYP) =  -711.772085609     A.U. after   14 cycles

 Excitation energies and oscillator strengths:

 Excited state symmetry could not be determined.
 Excited State   1:      Triplet-?Sym    2.1238 eV  583.77 nm  f=0.0000  <S**2>=2.000
      61 -> 62         0.65297
      61 -> 64        -0.25682
 This state for optimization and/or second-order correction.
 Total Energy, E(TD-HF/TD-DFT) =  -711.694035634
 Copying the excited state density for this state as the 1-particle RhoCI density.

 Excited state symmetry could not be determined.
 Excited State   2:      Singlet-?Sym    3.4344 eV  361.00 nm  f=0.1333  <S**2>=0.000
      61 -> 62         0.70241

 Excited state symmetry could not be determined.
 Excited State   3:      Triplet-?Sym    3.5937 eV  345.01 nm  f=0.0000  <S**2>=2.000
      57 -> 62        -0.22198
      58 -> 63        -0.30882
      59 -> 62        -0.28842
      59 -> 64        -0.17870
      61 -> 62         0.14869
      61 -> 64         0.43545

 Excited state symmetry could not be determined.
 Excited State   4:      Singlet-?Sym    3.8202 eV  324.55 nm  f=0.0071  <S**2>=0.000
      61 -> 63         0.70394

 Alpha  occ. eigenvalues --  -19.13562 -14.34133 -10.22319 -10.22274 -10.22248
 Alpha  occ. eigenvalues --  -10.22232 -10.20346 -10.19438 -10.19423 -10.19375
 Alpha  occ. eigenvalues --  -10.19338 -10.19322 -10.18505 -10.17947 -10.17293
 Alpha  occ. eigenvalues --  -10.17049 -10.16878  -1.02193  -0.93606  -0.85665
 Alpha  occ. eigenvalues --   -0.80469  -0.78975  -0.75584  -0.74626  -0.74051
 Alpha  occ. eigenvalues --   -0.69045  -0.66816  -0.63102  -0.61623  -0.60453
 Alpha  occ. eigenvalues --   -0.57547  -0.57021  -0.53059  -0.50411  -0.49399
 Alpha  occ. eigenvalues --   -0.47509  -0.46071  -0.45810  -0.45283  -0.44041
 Alpha  occ. eigenvalues --   -0.43466  -0.42688  -0.42253  -0.40982  -0.40386
 Alpha  occ. eigenvalues --   -0.39281  -0.38811  -0.37670  -0.36774  -0.36530
 Alpha  occ. eigenvalues --   -0.35869  -0.34758  -0.34318  -0.31786  -0.31255
 Alpha  occ. eigenvalues --   -0.29758  -0.26086  -0.25404  -0.24683  -0.24003
 Alpha  occ. eigenvalues --   -0.17104
 Alpha virt. eigenvalues --   -0.02657  -0.00528   0.01631   0.07625   0.08799
 Alpha virt. eigenvalues --    0.09260   0.12167   0.12390   0.12877   0.13899
 Alpha virt. eigenvalues --    0.14648   0.14856   0.15087   0.15903   0.16105

 Mulliken charges:
               1
     1  C   -0.437663
     2  C    0.015881
     3  C   -0.232836
     4  C    0.168863
     5  C   -0.338243
     6  C   -0.042027
     7  O   -0.467919
     8  C   -0.102492
     9  C    0.029674
    10  C    0.197593
    11  C    0.059918
    12  C   -0.170311
    13  C   -0.134044
    14  C   -0.125529
    15  C   -0.132752
    16  C   -0.173458
    17  N   -0.627052
    18  H    0.142971
    19  H    0.130184
    20  H    0.155586
    21  H    0.132101
    22  H    0.115963
    23  H    0.135747
    24  H    0.163692
    25  H    0.141716
    26  H    0.118038
    27  H    0.119954
    28  H    0.160861
    29  H    0.140062
    30  H    0.133816
    31  H    0.132349
    32  H    0.133333
    33  H    0.145637
    34  H    0.310389
 Sum of Mulliken charges =  -0.00000

 Dipole moment (field-independent basis, Debye):
    X=              0.4233    Y=              2.3198    Z=              0.2362  Tot=              2.3699
 Quadrupole moment (field-independent basis, Debye-Ang):
   XX=            -88.2989   YY=           -105.1082   ZZ=            -96.2730
   XY=              0.9910   XZ=              1.3746   YZ=              1.7868

 Normal termination of Gaussian 16 at Sat Nov  5 11:43:58 2022.
