 Gaussian 16, Revision B.01,
 Gaussian 16:  ES64L-G16RevB.01 20-Dec-2017

 -----------------------------
 #p b3lyp/6-31g(d) opt SCF=XQC
 -----------------------------

 ------------------------------
 Gaussian input prepared by ASE
 ------------------------------
 Symbolic Z-matrix:
 Charge =  0 Multiplicity = 1

 SCF Done:  E(RB3LYP) =  -1909.90198564     A.U. after   15 cycles
 SCF Done:  E(RB3LYP) =  -1909.91227093     A.U. after   13 cycles
 SCF Done:  E(RB3LYP) =  -1909.91329779     A.U. after   13 cycles
 SCF Done:  E(RB3LYP) =  -1909.91499307     A.U. after   12 cycles
 SCF Done:  E(RB3LYP) =  -1909.91527254     A.U. after   12 cycles
 SCF Done:  E(RB3LYP) =  -1909.91351905     A.U. after   13 cycles
 SCF Done:  E(RB3LYP) =  -1909.91589169     A.U. after   12 cycles
 SCF Done:  E(RB3LYP) =  -1909.91637161     A.U. after   12 cycles
 SCF Done:  E(RB3LYP) =  -1909.91659776     A.U. after   12 cycles
 SCF Done:  E(RB3LYP) =  -1909.91673432     A.U. after   12 cycles
 SCF Done:  E(RB3LYP) =  -1909.91727904     A.U. after   10 cycles
 SCF Done:  E(RB3LYP) =  -1909.91728560     A.U. after   10 cycles
 SCF Done:  E(RB3LYP) =  -1909.91729195     A.U. after   10 cycles
 SCF Done:  E(RB3LYP) =  -1909.91729358     A.U. after   10 cycles
 SCF Done:  E(RB3LYP) =  -1909.91729437     A.U. after   10 cycles
 SCF Done:  E(RB3LYP) =  -1909.91729471     A.U. after    9 cycles
 SCF Done:  E(RB3LYP) =  -1909.91729484     A.U. after    8 cycles
 SCF Done:  E(RB3LYP) =  -1909.91729486     A.U. after    8 cycles
 SCF Done:  E(RB3LYP) =  -1909.91729491     A.U. after    6 cycles
 SCF Done:  E(RB3LYP) =  -1909.91729502     A.U. after    6 cycles
 Optimization completed.
    -- Stationary point found.

                         Standard orientation:
 ---------------------------------------------------------------------
 Center     Atomic      Atomic             Coordinates (Angstroms)
 Number     Number       Type             X           Y           Z
 ---------------------------------------------------------------------
      1          6           0       -4.644509    3.770626   -2.266871
      2          6           0       -3.369070    3.588157   -1.459289
      3          8           0       -3.303454    2.266216   -0.862205
      4          6           0       -3.913960    2.121140    0.330644
      5          8           0       -4.549171    2.983664    0.893338
      6          6           0       -3.779340    0.708992    0.895910
      7          7           0       -2.690644   -0.094928    0.344580
      8          6           0       -1.417274    0.250143    0.762704
      9          8           0       -1.267982    1.166338    1.562104
     10          6           0       -0.221968   -0.455154    0.094101
     11          6           0        0.972674    0.554862    0.071561
     12          6           0        1.361832    1.106927    1.442438
     13          8           0        1.645293    2.265938    1.652819
     14          8           0        1.475387    0.141572    2.388416
     15          6           0        1.813450    0.607801    3.716006
     16          6           0        1.853110   -0.600581    4.632455
     17          6           0        2.252772    0.067105   -0.710478
     18          7           0        1.970020   -0.514091   -2.020261
     19          6           0        3.264864    1.229337   -0.897903
     20          6           0        4.680721    0.761039   -1.165739
     21          6           0        5.649376    0.854418   -0.156725
     22          6           0        6.959546    0.421709   -0.370186
     23          6           0        7.325104   -0.113007   -1.605843
     24          6           0        6.370630   -0.210389   -2.620956
     25          6           0        5.062211    0.222204   -2.403586
     26          6           0        0.086476   -1.861788    0.688637
     27          7           0        0.739021   -2.694721   -0.298355
     28         16           0       -1.460973   -2.674126    1.416231
     29          6           0       -2.518596   -2.522413   -0.014029
     30          6           0       -2.898823   -3.657267   -0.743738
     31          6           0       -3.759519   -3.549452   -1.836642
     32          6           0       -4.229536   -2.294505   -2.227157
     33          6           0       -3.844878   -1.153706   -1.524623
     34          6           0       -3.001184   -1.256039   -0.411280
     35          1           0       -4.631938    4.748585   -2.761551
     36          1           0       -5.522162    3.727647   -1.616081
     37          1           0       -4.733961    2.998962   -3.039162
     38          1           0       -2.479842    3.640299   -2.091813
     39          1           0       -3.292246    4.331515   -0.662848
     40          1           0       -4.721978    0.184504    0.718089
     41          1           0       -3.651133    0.819420    1.975149
     42          1           0       -0.500918   -0.623074   -0.953435
     43          1           0        0.601376    1.437176   -0.464031
     44          1           0        2.777853    1.123287    3.672541
     45          1           0        1.058449    1.336060    4.026320
     46          1           0        2.109139   -0.285455    5.649973
     47          1           0        0.879484   -1.100650    4.664495
     48          1           0        2.605626   -1.323451    4.299491
     49          1           0        2.731539   -0.720450   -0.119283
     50          1           0        1.534531   -1.424191   -1.887587
     51          1           0        1.337967    0.082884   -2.553036
     52          1           0        3.263675    1.877524   -0.018548
     53          1           0        2.904884    1.847241   -1.732992
     54          1           0        5.373746    1.278258    0.806989
     55          1           0        7.693964    0.508208    0.426943
     56          1           0        8.345099   -0.447142   -1.778433
     57          1           0        6.646783   -0.623679   -3.588160
     58          1           0        4.318914    0.129327   -3.188344
     59          1           0        0.735247   -1.754457    1.556103
     60          1           0        1.134436   -3.523171    0.141720
     61          1           0        0.057313   -3.025365   -0.982267
     62          1           0       -2.528424   -4.628668   -0.430246
     63          1           0       -4.054241   -4.440509   -2.383396
     64          1           0       -4.887384   -2.199299   -3.086364
     65          1           0       -4.184250   -0.169909   -1.833920
 ---------------------------------------------------------------------

 The electronic state is 1-A.
 Alpha  occ. eigenvalues --  -88.88440 -19.19894 -19.18275 -19.13927 -19.12989
 Alpha  occ. eigenvalues --  -19.12052 -14.38524 -14.34812 -14.30455 -10.32150
 Alpha  occ. eigenvalues --  -10.30409 -10.30048 -10.26342 -10.25524 -10.24887
 Alpha  occ. eigenvalues --  -10.24227 -10.23889 -10.23660 -10.22274 -10.21689
 Alpha  occ. eigenvalues --  -10.21642 -10.21575 -10.21426 -10.21323 -10.20487
 Alpha  occ. eigenvalues --  -10.18946 -10.18366 -10.17789 -10.17384 -10.17309
 Alpha  occ. eigenvalues --  -10.17239 -10.17154 -10.17136 -10.16672  -7.94550
 Alpha  occ. eigenvalues --   -5.91043  -5.90707  -5.90027  -1.10615  -1.09016
 Alpha  occ. eigenvalues --   -1.05226  -1.01923  -1.00084  -0.96204  -0.92379
 Alpha  occ. eigenvalues --   -0.88337  -0.87366  -0.83502  -0.81450  -0.79504
 Alpha  occ. eigenvalues --   -0.78552  -0.76794  -0.76752  -0.76015  -0.74009
 Alpha  occ. eigenvalues --   -0.73321  -0.72483  -0.70046  -0.67197  -0.66215
 Alpha  occ. eigenvalues --   -0.65163  -0.63638  -0.62786  -0.60909  -0.58852
 Alpha  occ. eigenvalues --   -0.58568  -0.57705  -0.56270  -0.56046  -0.55970
 Alpha  occ. eigenvalues --   -0.54249  -0.52931  -0.51266  -0.50493  -0.50358
 Alpha  occ. eigenvalues --   -0.49250  -0.48810  -0.48660  -0.48094  -0.47568
 Alpha  occ. eigenvalues --   -0.47035  -0.46071  -0.46044  -0.45536  -0.45310
 Alpha  occ. eigenvalues --   -0.44981  -0.44512  -0.43898  -0.43727  -0.43087
 Alpha  occ. eigenvalues --   -0.42425  -0.41672  -0.41412  -0.40959  -0.40529
 Alpha  occ. eigenvalues --   -0.40364  -0.40095  -0.39921  -0.39524  -0.39077
 Alpha  occ. eigenvalues --   -0.38819  -0.38136  -0.37894  -0.37513  -0.37107
 Alpha  occ. eigenvalues --   -0.36542  -0.36478  -0.35814  -0.35039  -0.34787
 Alpha  occ. eigenvalues --   -0.34590  -0.34085  -0.33202  -0.32835  -0.32007
 Alpha  occ. eigenvalues --   -0.31886  -0.30874  -0.30363  -0.28906  -0.28544
 Alpha  occ. eigenvalues --   -0.27753  -0.27047  -0.26184  -0.26028  -0.24364
 Alpha  occ. eigenvalues --   -0.23605  -0.23305  -0.22573  -0.22132
 Alpha virt. eigenvalues --   -0.03914  -0.03238   0.00573   0.00993   0.01513
 Alpha virt. eigenvalues --    0.01764   0.02310   0.03153   0.05527   0.06983
 Alpha virt. eigenvalues --    0.08119   0.08749   0.09733   0.10509   0.10651

 Mulliken charges:
               1
     1  C   -0.464636
     2  C   -0.046814
     3  O   -0.458145
     4  C    0.650299
     5  O   -0.475220
     6  C   -0.253351
     7  N   -0.502193
     8  C    0.606242
     9  O   -0.507913
    10  C   -0.184118
    11  C   -0.196860
    12  C    0.676932
    13  O   -0.493147
    14  O   -0.480740
    15  C   -0.029971
    16  C   -0.468690
    17  C    0.022923
    18  N   -0.728002
    19  C   -0.366921
    20  C    0.166118
    21  C   -0.191226
    22  C   -0.129163
    23  C   -0.131420
    24  C   -0.133474
    25  C   -0.156854
    26  C   -0.155812
    27  N   -0.704349
    28  S    0.085170
    29  C   -0.131948
    30  C   -0.172145
    31  C   -0.111269
    32  C   -0.143112
    33  C   -0.150350
    34  C    0.264891
    35  H    0.156015
    36  H    0.179044
    37  H    0.151854
    38  H    0.156005
    39  H    0.181895
    40  H    0.188854
    41  H    0.219649
    42  H    0.147540
    43  H    0.159576
    44  H    0.157384
    45  H    0.172727
    46  H    0.154566
    47  H    0.164037
    48  H    0.155871
    49  H    0.150957
    50  H    0.329961
    51  H    0.282179
    52  H    0.178210
    53  H    0.133028
    54  H    0.121365
    55  H    0.120798
    56  H    0.120144
    57  H    0.120244
    58  H    0.136780
    59  H    0.221795
    60  H    0.323247
    61  H    0.314821
    62  H    0.154242
    63  H    0.142423
    64  H    0.144616
    65  H    0.155437
 Sum of Mulliken charges =  -0.00000

 Dipole moment (field-independent basis, Debye):
    X=             -3.0934    Y=             -4.6530    Z=             -3.0372  Tot=              6.3596
 Quadrupole moment (field-independent basis, Debye-Ang):
   XX=           -208.8563   YY=           -202.7488   ZZ=           -194.9211
   XY=              2.1232   XZ=             24.5481   YZ=             -6.7415

 Normal termination of Gaussian 16 at Fri Nov  4 20:07:30 2022.
