 Gaussian 16, Revision B.01,
 Gaussian 16:  ES64L-G16RevB.01 20-Dec-2017

 -------------------------------------------------------------------
 #p b3lyp/6-31g(d) 6D 10F nosymm GFInput td=(50-50,nstate=2) SCF=XQC
 -------------------------------------------------------------------

 ------------------------------
 Gaussian input prepared by ASE
 ------------------------------
 Symbolic Z-matrix:
 Charge =  0 Multiplicity = 1

                          Input orientation:
 ---------------------------------------------------------------------
 Center     Atomic      Atomic             Coordinates (Angstroms)
 Number     Number       Type             X           Y           Z
 ---------------------------------------------------------------------
      1          6           0        5.538251   -2.332081    2.267802
      2          6           0        4.063155   -1.999253    2.427630
      3          8           0        3.711932   -0.786527    1.710496
      4          6           0        3.901948    0.372212    2.372216
      5          8           0        4.390963    0.468313    3.474801
      6          6           0        3.488622    1.594316    1.555250
      7          7           0        2.571559    1.337111    0.446940
      8          6           0        1.261515    1.065884    0.801331
      9          8           0        0.937912    1.073792    1.982839
     10          6           0        0.288134    0.630745   -0.310611
     11          6           0       -0.757719   -0.341732    0.328365
     12          6           0       -1.516270    0.238364    1.521517
     13          8           0       -1.762419   -0.378001    2.535135
     14          8           0       -1.995740    1.485399    1.287657
     15          6           0       -2.698848    2.099389    2.393463
     16          6           0       -3.117631    3.490858    1.957488
     17          6           0       -1.758927   -1.016179   -0.686943
     18          7           0       -1.122517   -1.564927   -1.881567
     19          6           0       -2.568487   -2.148114    0.001227
     20          6           0       -3.858863   -2.490358   -0.715354
     21          6           0       -5.086318   -2.079962   -0.176790
     22          6           0       -6.291174   -2.371352   -0.819256
     23          6           0       -6.287814   -3.084997   -2.018048
     24          6           0       -5.072153   -3.501781   -2.565238
     25          6           0       -3.870196   -3.207923   -1.920806
     26          6           0       -0.298419    1.819788   -1.128756
     27          7           0       -0.667697    1.383985   -2.458214
     28         16           0        0.873743    3.306205   -1.150835
     29          6           0        2.336944    2.461807   -1.728124
     30          6           0        2.840321    2.704616   -3.013657
     31          6           0        4.007467    2.079821   -3.454407
     32          6           0        4.670908    1.181402   -2.617150
     33          6           0        4.172368    0.913440   -1.343339
     34          6           0        3.015272    1.555295   -0.884020
     35          1           0        5.756989   -3.286966    2.759349
     36          1           0        6.159763   -1.559609    2.728950
     37          1           0        5.807717   -2.423477    1.210004
     38          1           0        3.425629   -2.766970    1.982990
     39          1           0        3.795855   -1.869231    3.478557
     40          1           0        4.396345    2.053488    1.154659
     41          1           0        3.035247    2.296745    2.258409
     42          1           0        0.869704    0.030979   -1.021526
     43          1           0       -0.170280   -1.156240    0.769603
     44          1           0       -3.558022    1.473802    2.654515
     45          1           0       -2.027131    2.122404    3.256567
     46          1           0       -3.656829    3.987463    2.771642
     47          1           0       -2.244953    4.101482    1.703294
     48          1           0       -3.779440    3.448456    1.085767
     49          1           0       -2.458337   -0.248423   -1.033855
     50          1           0       -0.821843   -0.795162   -2.475362
     51          1           0       -0.311082   -2.130155   -1.632954
     52          1           0       -2.795414   -1.876374    1.034704
     53          1           0       -1.917408   -3.032457    0.054120
     54          1           0       -5.097383   -1.530238    0.762379
     55          1           0       -7.230745   -2.045547   -0.379570
     56          1           0       -7.223589   -3.318264   -2.519779
     57          1           0       -5.059677   -4.060542   -3.498075
     58          1           0       -2.926616   -3.518055   -2.357198
     59          1           0       -1.177586    2.211192   -0.620044
     60          1           0       -1.243704    2.087941   -2.915391
     61          1           0        0.167686    1.272294   -3.033928
     62          1           0        2.317019    3.406463   -3.656042
     63          1           0        4.390825    2.288899   -4.448945
     64          1           0        5.571493    0.678408   -2.957752
     65          1           0        4.665943    0.198136   -0.692635
 ---------------------------------------------------------------------

 SCF Done:  E(RB3LYP) =  -1909.91729678     A.U. after   15 cycles

 Excitation energies and oscillator strengths:

 Excited state symmetry could not be determined.
 Excited State   1:      Triplet-?Sym    3.4736 eV  356.93 nm  f=0.0000  <S**2>=2.000
     117 ->130        -0.10787
     120 ->130        -0.18326
     120 ->131         0.15000
     121 ->131         0.18747
     122 ->131        -0.12524
     125 ->130         0.28198
     125 ->131         0.25742
     126 ->130         0.33710
     127 ->130         0.24779
 This state for optimization and/or second-order correction.
 Total Energy, E(TD-HF/TD-DFT) =  -1909.78964277
 Copying the excited state density for this state as the 1-particle RhoCI density.

 Excited state symmetry could not be determined.
 Excited State   2:      Triplet-?Sym    4.1250 eV  300.57 nm  f=0.0000  <S**2>=2.000
     125 ->130         0.30560
     125 ->131         0.30954
     126 ->130        -0.22690
     126 ->131         0.25369
     127 ->130        -0.23926
     127 ->131         0.17918
     128 ->130        -0.10891
     129 ->130        -0.20218

 Excited state symmetry could not be determined.
 Excited State   3:      Singlet-?Sym    4.3967 eV  282.00 nm  f=0.0266  <S**2>=0.000
     125 ->130        -0.12883
     126 ->130         0.22757
     127 ->130         0.30019
     128 ->130         0.21994
     129 ->130         0.52452

 Excited state symmetry could not be determined.
 Excited State   4:      Singlet-?Sym    4.5554 eV  272.17 nm  f=0.0112  <S**2>=0.000
     126 ->130         0.42574
     126 ->131        -0.10822
     127 ->130         0.25680
     127 ->131        -0.14325
     129 ->130        -0.35812
     129 ->131        -0.23218

 Alpha  occ. eigenvalues --  -88.88440 -19.19894 -19.18275 -19.13927 -19.12989
 Alpha  occ. eigenvalues --  -19.12052 -14.38525 -14.34812 -14.30455 -10.32150
 Alpha  occ. eigenvalues --  -10.30409 -10.30048 -10.26342 -10.25524 -10.24887
 Alpha  occ. eigenvalues --  -10.24227 -10.23889 -10.23660 -10.22274 -10.21689
 Alpha  occ. eigenvalues --  -10.21643 -10.21575 -10.21426 -10.21323 -10.20487
 Alpha  occ. eigenvalues --  -10.18946 -10.18366 -10.17789 -10.17384 -10.17309
 Alpha  occ. eigenvalues --  -10.17239 -10.17154 -10.17136 -10.16672  -7.94549
 Alpha  occ. eigenvalues --   -5.91043  -5.90707  -5.90027  -1.10615  -1.09016
 Alpha  occ. eigenvalues --   -1.05226  -1.01923  -1.00084  -0.96204  -0.92379
 Alpha  occ. eigenvalues --   -0.88337  -0.87366  -0.83502  -0.81450  -0.79503
 Alpha  occ. eigenvalues --   -0.78552  -0.76794  -0.76752  -0.76015  -0.74009
 Alpha  occ. eigenvalues --   -0.73321  -0.72483  -0.70046  -0.67197  -0.66215
 Alpha  occ. eigenvalues --   -0.65163  -0.63638  -0.62786  -0.60909  -0.58852
 Alpha  occ. eigenvalues --   -0.58568  -0.57704  -0.56270  -0.56046  -0.55970
 Alpha  occ. eigenvalues --   -0.54249  -0.52931  -0.51266  -0.50492  -0.50358
 Alpha  occ. eigenvalues --   -0.49250  -0.48810  -0.48660  -0.48094  -0.47568
 Alpha  occ. eigenvalues --   -0.47034  -0.46071  -0.46044  -0.45536  -0.45310
 Alpha  occ. eigenvalues --   -0.44981  -0.44512  -0.43898  -0.43727  -0.43087
 Alpha  occ. eigenvalues --   -0.42425  -0.41672  -0.41412  -0.40959  -0.40529
 Alpha  occ. eigenvalues --   -0.40364  -0.40095  -0.39921  -0.39524  -0.39077
 Alpha  occ. eigenvalues --   -0.38819  -0.38136  -0.37894  -0.37513  -0.37107
 Alpha  occ. eigenvalues --   -0.36542  -0.36478  -0.35813  -0.35039  -0.34787
 Alpha  occ. eigenvalues --   -0.34590  -0.34085  -0.33202  -0.32835  -0.32007
 Alpha  occ. eigenvalues --   -0.31886  -0.30874  -0.30363  -0.28906  -0.28544
 Alpha  occ. eigenvalues --   -0.27753  -0.27047  -0.26184  -0.26028  -0.24364
 Alpha  occ. eigenvalues --   -0.23605  -0.23305  -0.22573  -0.22132
 Alpha virt. eigenvalues --   -0.03913  -0.03238   0.00573   0.00993   0.01513
 Alpha virt. eigenvalues --    0.01764   0.02310   0.03153   0.05527   0.06983
 Alpha virt. eigenvalues --    0.08119   0.08749   0.09732   0.10509   0.10651

 Mulliken charges:
               1
     1  C   -0.464643
     2  C   -0.046806
     3  O   -0.458147
     4  C    0.650314
     5  O   -0.475230
     6  C   -0.253354
     7  N   -0.502203
     8  C    0.606259
     9  O   -0.507915
    10  C   -0.184136
    11  C   -0.196807
    12  C    0.676902
    13  O   -0.493145
    14  O   -0.480734
    15  C   -0.029973
    16  C   -0.468694
    17  C    0.022891
    18  N   -0.727995
    19  C   -0.366925
    20  C    0.166117
    21  C   -0.191230
    22  C   -0.129169
    23  C   -0.131417
    24  C   -0.133474
    25  C   -0.156846
    26  C   -0.155808
    27  N   -0.704350
    28  S    0.085173
    29  C   -0.131946
    30  C   -0.172142
    31  C   -0.111271
    32  C   -0.143114
    33  C   -0.150345
    34  C    0.264886
    35  H    0.156016
    36  H    0.179044
    37  H    0.151857
    38  H    0.156005
    39  H    0.181894
    40  H    0.188856
    41  H    0.219650
    42  H    0.147543
    43  H    0.159570
    44  H    0.157384
    45  H    0.172727
    46  H    0.154567
    47  H    0.164040
    48  H    0.155872
    49  H    0.150962
    50  H    0.329963
    51  H    0.282179
    52  H    0.178212
    53  H    0.133030
    54  H    0.121369
    55  H    0.120798
    56  H    0.120145
    57  H    0.120244
    58  H    0.136780
    59  H    0.221792
    60  H    0.323247
    61  H    0.314821
    62  H    0.154242
    63  H    0.142423
    64  H    0.144616
    65  H    0.155432
 Sum of Mulliken charges =  -0.00000

 Dipole moment (field-independent basis, Debye):
    X=              3.5295    Y=              1.4176    Z=             -5.0968  Tot=              6.3596
 Quadrupole moment (field-independent basis, Debye-Ang):
   XX=           -191.7564   YY=           -202.4418   ZZ=           -210.3765
   XY=            -18.1150   XZ=            -15.8356   YZ=             -6.6882

 Normal termination of Gaussian 16 at Sat Nov  5 11:59:09 2022.
