 Gaussian 16, Revision B.01,
 Gaussian 16:  ES64L-G16RevB.01 20-Dec-2017

 -------------------------------------------------------------------
 #p b3lyp/6-31g(d) 6D 10F nosymm GFInput td=(50-50,nstate=2) SCF=XQC
 -------------------------------------------------------------------

 ------------------------------
 Gaussian input prepared by ASE
 ------------------------------
 Symbolic Z-matrix:
 Charge =  0 Multiplicity = 1

                          Input orientation:
 ---------------------------------------------------------------------
 Center     Atomic      Atomic             Coordinates (Angstroms)
 Number     Number       Type             X           Y           Z
 ---------------------------------------------------------------------
      1          6           0        1.617056   -4.835482   -0.233660
      2          6           0        1.037438   -3.547698   -0.838366
      3          6           0        1.135596   -3.556799   -2.368273
      4          6           0        1.766046   -2.338252   -0.222930
      5          7           0        1.202810   -1.027157   -0.608876
      6          6           0        0.079492   -0.483478    0.177676
      7          6           0       -1.314715   -0.816617   -0.406653
      8          8           0       -1.785876   -2.086283    0.004240
      9          6           0       -2.361194    0.296608   -0.115656
     10          6           0       -2.258756    1.489449   -1.096995
     11          6           0       -2.665941    1.153877   -2.517905
     12          6           0       -1.706755    1.016517   -3.530167
     13          6           0       -2.093067    0.706622   -4.836373
     14          6           0       -3.441237    0.531360   -5.149204
     15          6           0       -4.405365    0.669131   -4.147907
     16          6           0       -4.018509    0.979306   -2.844758
     17          7           0       -2.290188    0.843950    1.251089
     18          6           0       -2.387801    0.145754    2.399476
     19          8           0       -2.385449   -1.088956    2.490981
     20          6           0       -2.533466    1.000070    3.672278
     21          6           0       -3.988134    0.919745    4.153309
     22          7           0       -2.159930    2.399427    3.417207
     23         16           0        2.220391    0.077635   -1.356323
     24          8           0        3.051657   -0.674101   -2.298396
     25          8           0        1.363821    1.188939   -1.798099
     26          6           0        3.326037    0.753128   -0.106230
     27          6           0        4.542845    0.115306    0.139725
     28          6           0        5.409115    0.586744    1.140606
     29          6           0        4.996441    1.695750    1.853708
     30          6           0        3.781641    2.332595    1.594976
     31          6           0        2.916440    1.892793    0.616761
     32          8           0        3.628265    3.397334    2.449456
     33          6           0        4.870153    3.511420    3.154442
     34          8           0        5.645761    2.338254    2.873765
     35          1           0        1.517439   -4.851985    0.858962
     36          1           0        1.096757   -5.715812   -0.627219
     37          1           0        2.682886   -4.946716   -0.475909
     38          1           0       -0.018437   -3.474477   -0.554620
     39          1           0        0.575208   -4.402954   -2.782963
     40          1           0        2.177922   -3.643424   -2.700554
     41          1           0        0.729318   -2.637182   -2.799580
     42          1           0        1.744878   -2.410256    0.874303
     43          1           0        2.814426   -2.364815   -0.533591
     44          1           0        0.138897   -0.883989    1.196914
     45          1           0        0.194494    0.599722    0.243917
     46          1           0       -1.216204   -0.877540   -1.493785
     47          1           0       -2.045481   -1.985981    0.947576
     48          1           0       -3.339450   -0.184042   -0.246551
     49          1           0       -1.235192    1.881221   -1.089743
     50          1           0       -2.911834    2.289495   -0.719885
     51          1           0       -0.654877    1.151542   -3.291308
     52          1           0       -1.335713    0.603512   -5.609047
     53          1           0       -3.740780    0.291187   -6.165980
     54          1           0       -5.458734    0.539045   -4.382666
     55          1           0       -4.776750    1.092881   -2.072012
     56          1           0       -2.350304    1.851413    1.382064
     57          1           0       -1.895713    0.511257    4.423513
     58          1           0       -4.656419    1.410770    3.436944
     59          1           0       -4.099552    1.412993    5.126252
     60          1           0       -4.290348   -0.125077    4.258187
     61          1           0       -1.150064    2.517566    3.476724
     62          1           0       -2.567780    3.007764    4.123897
     63          1           0        4.832929   -0.730489   -0.472743
     64          1           0        6.362851    0.110382    1.338342
     65          1           0        1.993209    2.409044    0.385112
     66          1           0        5.412548    4.399530    2.803582
     67          1           0        4.675242    3.568516    4.228941
 ---------------------------------------------------------------------

 SCF Done:  E(RB3LYP) =  -1948.14100343     A.U. after   15 cycles

 Excitation energies and oscillator strengths:

 Excited state symmetry could not be determined.
 Excited State   1:      Triplet-?Sym    3.4047 eV  364.15 nm  f=0.0000  <S**2>=2.000
     124 ->132        -0.16706
     124 ->133        -0.12741
     129 ->132         0.15218
     129 ->133        -0.12613
     130 ->132        -0.10734
     131 ->132         0.52285
     131 ->133        -0.27159
 This state for optimization and/or second-order correction.
 Total Energy, E(TD-HF/TD-DFT) =  -1948.01588207
 Copying the excited state density for this state as the 1-particle RhoCI density.

 Excited state symmetry could not be determined.
 Excited State   2:      Triplet-?Sym    3.9166 eV  316.56 nm  f=0.0000  <S**2>=2.000
     124 ->133         0.10487
     126 ->133        -0.11256
     128 ->133         0.14398
     129 ->132         0.14555
     129 ->133         0.21148
     130 ->133        -0.12246
     131 ->132         0.34589
     131 ->133         0.47043

 Excited state symmetry could not be determined.
 Excited State   3:      Singlet-?Sym    4.6934 eV  264.17 nm  f=0.1880  <S**2>=0.000
     124 ->132         0.11828
     124 ->133        -0.12566
     131 ->132         0.64404
     131 ->133         0.19138

 Excited state symmetry could not be determined.
 Excited State   4:      Singlet-?Sym    4.9269 eV  251.65 nm  f=0.0439  <S**2>=0.000
     124 ->132         0.10772
     126 ->132        -0.13928
     128 ->132         0.20555
     129 ->132         0.30071
     130 ->132        -0.18577
     131 ->132        -0.21080
     131 ->133         0.48527

 Alpha  occ. eigenvalues --  -89.10707 -19.21285 -19.21155 -19.13892 -19.13620
 Alpha  occ. eigenvalues --  -19.12619 -19.11532 -14.36443 -14.36156 -14.34632
 Alpha  occ. eigenvalues --  -10.32404 -10.29308 -10.27178 -10.27014 -10.24026
 Alpha  occ. eigenvalues --  -10.23015 -10.22913 -10.22632 -10.21949 -10.21849
 Alpha  occ. eigenvalues --  -10.21603 -10.21502 -10.21299 -10.19657 -10.19410
 Alpha  occ. eigenvalues --  -10.18946 -10.18201 -10.18122 -10.18015 -10.17887
 Alpha  occ. eigenvalues --  -10.17479 -10.16935 -10.16293 -10.15008  -8.13158
 Alpha  occ. eigenvalues --   -6.09629  -6.09601  -6.09487  -1.14578  -1.10481
 Alpha  occ. eigenvalues --   -1.05478  -1.04192  -0.99665  -0.99505  -0.93600
 Alpha  occ. eigenvalues --   -0.92520  -0.90633  -0.88287  -0.84656  -0.79290
 Alpha  occ. eigenvalues --   -0.79126  -0.78359  -0.77629  -0.75960  -0.74392
 Alpha  occ. eigenvalues --   -0.73323  -0.71770  -0.70562  -0.68382  -0.66489
 Alpha  occ. eigenvalues --   -0.66254  -0.65467  -0.64336  -0.64227  -0.60773
 Alpha  occ. eigenvalues --   -0.59495  -0.59188  -0.57628  -0.56452  -0.55361
 Alpha  occ. eigenvalues --   -0.54505  -0.54066  -0.53757  -0.52757  -0.51969
 Alpha  occ. eigenvalues --   -0.51090  -0.50403  -0.50162  -0.49679  -0.48172
 Alpha  occ. eigenvalues --   -0.47462  -0.47024  -0.46654  -0.46325  -0.45730
 Alpha  occ. eigenvalues --   -0.44918  -0.44442  -0.44181  -0.44078  -0.43335
 Alpha  occ. eigenvalues --   -0.42486  -0.42096  -0.41712  -0.41624  -0.41229
 Alpha  occ. eigenvalues --   -0.40863  -0.40717  -0.40137  -0.40012  -0.39724
 Alpha  occ. eigenvalues --   -0.39217  -0.38419  -0.38322  -0.37707  -0.37388
 Alpha  occ. eigenvalues --   -0.37258  -0.37018  -0.36603  -0.36316  -0.35363
 Alpha  occ. eigenvalues --   -0.34750  -0.34128  -0.33614  -0.33263  -0.33005
 Alpha  occ. eigenvalues --   -0.32395  -0.32030  -0.31822  -0.30935  -0.30592
 Alpha  occ. eigenvalues --   -0.29662  -0.29379  -0.28193  -0.27136  -0.26368
 Alpha  occ. eigenvalues --   -0.25963  -0.25285  -0.24071  -0.23779  -0.23289
 Alpha  occ. eigenvalues --   -0.22261
 Alpha virt. eigenvalues --   -0.03010  -0.01700   0.00448   0.00825   0.01347
 Alpha virt. eigenvalues --    0.04987   0.05669   0.08230   0.08842   0.09624
 Alpha virt. eigenvalues --    0.09787   0.10289   0.10389   0.10656   0.10833

 Mulliken charges:
               1
     1  C   -0.449401
     2  C   -0.091944
     3  C   -0.441455
     4  C   -0.138071
     5  N   -0.531760
     6  C   -0.160288
     7  C    0.149040
     8  O   -0.659088
     9  C    0.031667
    10  C   -0.408850
    11  C    0.159295
    12  C   -0.202854
    13  C   -0.132920
    14  C   -0.128233
    15  C   -0.128783
    16  C   -0.174096
    17  N   -0.630149
    18  C    0.612157
    19  O   -0.565192
    20  C   -0.040380
    21  C   -0.462963
    22  N   -0.751242
    23  S    1.245306
    24  O   -0.549930
    25  O   -0.573592
    26  C   -0.152044
    27  C   -0.167142
    28  C   -0.175319
    29  C    0.339342
    30  C    0.334288
    31  C   -0.204376
    32  O   -0.530201
    33  C    0.189212
    34  O   -0.523033
    35  H    0.136285
    36  H    0.147203
    37  H    0.133468
    38  H    0.181958
    39  H    0.134881
    40  H    0.139723
    41  H    0.163494
    42  H    0.137192
    43  H    0.162979
    44  H    0.154456
    45  H    0.158281
    46  H    0.170494
    47  H    0.424546
    48  H    0.167571
    49  H    0.179815
    50  H    0.143628
    51  H    0.181002
    52  H    0.134386
    53  H    0.127197
    54  H    0.126535
    55  H    0.117870
    56  H    0.360945
    57  H    0.151518
    58  H    0.160019
    59  H    0.148158
    60  H    0.186605
    61  H    0.313852
    62  H    0.314283
    63  H    0.180287
    64  H    0.159008
    65  H    0.180853
    66  H    0.164603
    67  H    0.169903
 Sum of Mulliken charges =  -0.00000

 Dipole moment (field-independent basis, Debye):
    X=              0.5186    Y=              4.8598    Z=              7.0700  Tot=              8.5948
 Quadrupole moment (field-independent basis, Debye-Ang):
   XX=           -190.7917   YY=           -204.4127   ZZ=           -195.2436
   XY=             -2.9794   XZ=             10.7386   YZ=             18.9192

 Normal termination of Gaussian 16 at Sat Nov  5 11:55:11 2022.
