 Gaussian 16, Revision B.01,
 Gaussian 16:  ES64L-G16RevB.01 20-Dec-2017

 -----------------------------
 #p b3lyp/6-31g(d) opt SCF=XQC
 -----------------------------

 ------------------------------
 Gaussian input prepared by ASE
 ------------------------------
 Symbolic Z-matrix:
 Charge =  0 Multiplicity = 1

 SCF Done:  E(RB3LYP) =  -1948.12213936     A.U. after   15 cycles
 SCF Done:  E(RB3LYP) =  -1948.13440100     A.U. after   14 cycles
 SCF Done:  E(RB3LYP) =  -1948.13663019     A.U. after   14 cycles
 SCF Done:  E(RB3LYP) =  -1948.13352142     A.U. after   14 cycles
 SCF Done:  E(RB3LYP) =  -1948.13463088     A.U. after   13 cycles
 SCF Done:  E(RB3LYP) =  -1948.13837553     A.U. after   11 cycles
 SCF Done:  E(RB3LYP) =  -1948.13835684     A.U. after   12 cycles
 SCF Done:  E(RB3LYP) =  -1948.13947728     A.U. after   12 cycles
 SCF Done:  E(RB3LYP) =  -1948.14002367     A.U. after   11 cycles
 SCF Done:  E(RB3LYP) =  -1948.14013428     A.U. after   12 cycles
 SCF Done:  E(RB3LYP) =  -1948.14098629     A.U. after    9 cycles
 SCF Done:  E(RB3LYP) =  -1948.14099209     A.U. after   10 cycles
 SCF Done:  E(RB3LYP) =  -1948.14099385     A.U. after    9 cycles
 SCF Done:  E(RB3LYP) =  -1948.14099710     A.U. after    9 cycles
 SCF Done:  E(RB3LYP) =  -1948.14100308     A.U. after   10 cycles
 SCF Done:  E(RB3LYP) =  -1948.14100467     A.U. after    8 cycles
 SCF Done:  E(RB3LYP) =  -1948.14100513     A.U. after    8 cycles
 SCF Done:  E(RB3LYP) =  -1948.14100522     A.U. after    7 cycles
 SCF Done:  E(RB3LYP) =  -1948.14100526     A.U. after    6 cycles
 SCF Done:  E(RB3LYP) =  -1948.14100528     A.U. after    6 cycles
 Optimization completed.
    -- Stationary point found.

                         Standard orientation:
 ---------------------------------------------------------------------
 Center     Atomic      Atomic             Coordinates (Angstroms)
 Number     Number       Type             X           Y           Z
 ---------------------------------------------------------------------
      1          6           0        0.215500   -2.895693    4.328443
      2          6           0       -0.339094   -2.548825    2.938435
      3          6           0       -0.891495   -3.792431    2.232297
      4          6           0        0.770960   -1.866888    2.116771
      5          7           0        0.326204   -1.346208    0.806716
      6          6           0       -0.257858    0.007107    0.747533
      7          6           0       -1.802788    0.028303    0.842292
      8          8           0       -2.264601    0.007314    2.179889
      9          6           0       -2.429741    1.207867    0.045660
     10          6           0       -2.548217    0.914292   -1.469651
     11          6           0       -3.561127   -0.160443   -1.810754
     12          6           0       -3.149876   -1.439981   -2.207283
     13          6           0       -4.091970   -2.423212   -2.518991
     14          6           0       -5.456042   -2.141660   -2.440378
     15          6           0       -5.876215   -0.868305   -2.049045
     16          6           0       -4.934863    0.112415   -1.739029
     17          7           0       -1.704272    2.482647    0.191425
     18          6           0       -1.428987    3.119940    1.346360
     19          8           0       -1.595319    2.652970    2.480891
     20          6           0       -0.884884    4.551718    1.188050
     21          6           0       -1.996849    5.542665    1.556097
     22          7           0       -0.423529    4.794567   -0.187074
     23         16           0        1.108012   -1.904175   -0.568844
     24          8           0        1.331489   -3.339123   -0.382846
     25          8           0        0.344518   -1.383038   -1.713119
     26          6           0        2.730370   -1.127058   -0.643154
     27          6           0        3.813131   -1.756107   -0.026824
     28          6           0        5.083516   -1.155646   -0.023972
     29          6           0        5.198142    0.068825   -0.653449
     30          6           0        4.111679    0.686563   -1.274939
     31          6           0        2.857003    0.117111   -1.295325
     32          8           0        4.509509    1.886416   -1.812913
     33          6           0        5.932090    1.932232   -1.650217
     34          8           0        6.311381    0.855666   -0.781995
     35          1           0        0.579799   -2.004366    4.854599
     36          1           0       -0.560810   -3.354024    4.951224
     37          1           0        1.047765   -3.609658    4.260321
     38          1           0       -1.151508   -1.823420    3.058914
     39          1           0       -1.706713   -4.234492    2.817090
     40          1           0       -0.113684   -4.555553    2.101867
     41          1           0       -1.280503   -3.547735    1.239533
     42          1           0        1.197965   -1.031165    2.690170
     43          1           0        1.573253   -2.589672    1.942923
     44          1           0        0.153586    0.602877    1.571278
     45          1           0        0.053778    0.478992   -0.185818
     46          1           0       -2.178741   -0.891941    0.387229
     47          1           0       -2.085963    0.904282    2.541657
     48          1           0       -3.438579    1.333419    0.459939
     49          1           0       -1.565391    0.633170   -1.864928
     50          1           0       -2.840257    1.849075   -1.969340
     51          1           0       -2.088057   -1.664484   -2.269518
     52          1           0       -3.755262   -3.410401   -2.824487
     53          1           0       -6.188164   -2.907089   -2.684010
     54          1           0       -6.936827   -0.637782   -1.989203
     55          1           0       -5.270582    1.104612   -1.442713
     56          1           0       -1.534705    3.050402   -0.636011
     57          1           0       -0.083500    4.641178    1.936249
     58          1           0       -2.810580    5.495064    0.823659
     59          1           0       -1.607736    6.567605    1.576447
     60          1           0       -2.397858    5.304879    2.544345
     61          1           0        0.523085    4.441310   -0.315369
     62          1           0       -0.391055    5.793942   -0.376874
     63          1           0        3.675057   -2.732579    0.422701
     64          1           0        5.938197   -1.634564    0.440561
     65          1           0        2.022089    0.573256   -1.812416
     66          1           0        6.418733    1.802233   -2.626083
     67          1           0        6.216027    2.884007   -1.192720
 ---------------------------------------------------------------------

 The electronic state is 1-A.
 Alpha  occ. eigenvalues --  -89.10706 -19.21285 -19.21155 -19.13891 -19.13620
 Alpha  occ. eigenvalues --  -19.12619 -19.11532 -14.36443 -14.36155 -14.34632
 Alpha  occ. eigenvalues --  -10.32404 -10.29308 -10.27178 -10.27014 -10.24026
 Alpha  occ. eigenvalues --  -10.23015 -10.22913 -10.22632 -10.21949 -10.21849
 Alpha  occ. eigenvalues --  -10.21603 -10.21502 -10.21299 -10.19657 -10.19410
 Alpha  occ. eigenvalues --  -10.18946 -10.18201 -10.18122 -10.18015 -10.17888
 Alpha  occ. eigenvalues --  -10.17479 -10.16935 -10.16293 -10.15008  -8.13158
 Alpha  occ. eigenvalues --   -6.09629  -6.09600  -6.09486  -1.14578  -1.10481
 Alpha  occ. eigenvalues --   -1.05478  -1.04192  -0.99665  -0.99505  -0.93600
 Alpha  occ. eigenvalues --   -0.92520  -0.90633  -0.88287  -0.84656  -0.79290
 Alpha  occ. eigenvalues --   -0.79126  -0.78359  -0.77629  -0.75960  -0.74392
 Alpha  occ. eigenvalues --   -0.73323  -0.71770  -0.70562  -0.68382  -0.66489
 Alpha  occ. eigenvalues --   -0.66254  -0.65467  -0.64336  -0.64227  -0.60773
 Alpha  occ. eigenvalues --   -0.59495  -0.59188  -0.57628  -0.56452  -0.55361
 Alpha  occ. eigenvalues --   -0.54505  -0.54066  -0.53757  -0.52757  -0.51969
 Alpha  occ. eigenvalues --   -0.51090  -0.50403  -0.50162  -0.49679  -0.48172
 Alpha  occ. eigenvalues --   -0.47462  -0.47024  -0.46654  -0.46325  -0.45730
 Alpha  occ. eigenvalues --   -0.44918  -0.44442  -0.44181  -0.44078  -0.43335
 Alpha  occ. eigenvalues --   -0.42486  -0.42096  -0.41712  -0.41624  -0.41229
 Alpha  occ. eigenvalues --   -0.40863  -0.40717  -0.40137  -0.40012  -0.39724
 Alpha  occ. eigenvalues --   -0.39217  -0.38419  -0.38322  -0.37707  -0.37388
 Alpha  occ. eigenvalues --   -0.37258  -0.37018  -0.36603  -0.36316  -0.35363
 Alpha  occ. eigenvalues --   -0.34750  -0.34128  -0.33614  -0.33263  -0.33005
 Alpha  occ. eigenvalues --   -0.32395  -0.32030  -0.31822  -0.30935  -0.30592
 Alpha  occ. eigenvalues --   -0.29661  -0.29379  -0.28193  -0.27136  -0.26367
 Alpha  occ. eigenvalues --   -0.25963  -0.25285  -0.24071  -0.23779  -0.23289
 Alpha  occ. eigenvalues --   -0.22261
 Alpha virt. eigenvalues --   -0.03010  -0.01700   0.00448   0.00825   0.01348
 Alpha virt. eigenvalues --    0.04987   0.05669   0.08230   0.08842   0.09624
 Alpha virt. eigenvalues --    0.09788   0.10289   0.10389   0.10656   0.10834

 Mulliken charges:
               1
     1  C   -0.449400
     2  C   -0.091943
     3  C   -0.441469
     4  C   -0.138069
     5  N   -0.531781
     6  C   -0.160300
     7  C    0.149016
     8  O   -0.659079
     9  C    0.031691
    10  C   -0.408862
    11  C    0.159299
    12  C   -0.202852
    13  C   -0.132920
    14  C   -0.128239
    15  C   -0.128779
    16  C   -0.174097
    17  N   -0.630137
    18  C    0.612128
    19  O   -0.565184
    20  C   -0.040371
    21  C   -0.462967
    22  N   -0.751243
    23  S    1.245420
    24  O   -0.549959
    25  O   -0.573615
    26  C   -0.152080
    27  C   -0.167136
    28  C   -0.175315
    29  C    0.339315
    30  C    0.334317
    31  C   -0.204361
    32  O   -0.530212
    33  C    0.189206
    34  O   -0.523030
    35  H    0.136286
    36  H    0.147202
    37  H    0.133467
    38  H    0.181956
    39  H    0.134884
    40  H    0.139728
    41  H    0.163498
    42  H    0.137190
    43  H    0.162975
    44  H    0.154460
    45  H    0.158283
    46  H    0.170493
    47  H    0.424545
    48  H    0.167568
    49  H    0.179824
    50  H    0.143627
    51  H    0.180998
    52  H    0.134387
    53  H    0.127198
    54  H    0.126536
    55  H    0.117870
    56  H    0.360943
    57  H    0.151518
    58  H    0.160021
    59  H    0.148160
    60  H    0.186605
    61  H    0.313853
    62  H    0.314282
    63  H    0.180285
    64  H    0.159008
    65  H    0.180853
    66  H    0.164604
    67  H    0.169905
 Sum of Mulliken charges =  -0.00000

 Dipole moment (field-independent basis, Debye):
    X=              4.2273    Y=              7.4096    Z=             -1.0481  Tot=              8.5948
 Quadrupole moment (field-independent basis, Debye-Ang):
   XX=           -184.9129   YY=           -187.8678   ZZ=           -219.2042
   XY=              6.1222   XZ=              3.5936   YZ=             -7.7247

 Normal termination of Gaussian 16 at Fri Nov  4 21:04:23 2022.
