 Gaussian 16, Revision B.01,
 Gaussian 16:  ES64L-G16RevB.01 20-Dec-2017

 -----------------------------
 #p b3lyp/6-31g(d) opt SCF=XQC
 -----------------------------

 ------------------------------
 Gaussian input prepared by ASE
 ------------------------------
 Symbolic Z-matrix:
 Charge =  0 Multiplicity = 1

 SCF Done:  E(RB3LYP) =  -1979.56435696     A.U. after   15 cycles
 SCF Done:  E(RB3LYP) =  -1979.57730789     A.U. after   14 cycles
 SCF Done:  E(RB3LYP) =  -1979.57966931     A.U. after   13 cycles
 SCF Done:  E(RB3LYP) =  -1979.58131942     A.U. after   13 cycles
 SCF Done:  E(RB3LYP) =  -1979.58204629     A.U. after   12 cycles
 SCF Done:  E(RB3LYP) =  -1979.58258549     A.U. after   12 cycles
 SCF Done:  E(RB3LYP) =  -1979.58264574     A.U. after   12 cycles
 SCF Done:  E(RB3LYP) =  -1979.58276834     A.U. after   11 cycles
 SCF Done:  E(RB3LYP) =  -1979.58277226     A.U. after   10 cycles
 SCF Done:  E(RB3LYP) =  -1979.58278043     A.U. after   10 cycles
 SCF Done:  E(RB3LYP) =  -1979.58278260     A.U. after    9 cycles
 SCF Done:  E(RB3LYP) =  -1979.58278409     A.U. after    9 cycles
 SCF Done:  E(RB3LYP) =  -1979.58278439     A.U. after    7 cycles
 SCF Done:  E(RB3LYP) =  -1979.58278451     A.U. after    7 cycles
 SCF Done:  E(RB3LYP) =  -1979.58278462     A.U. after    7 cycles
 SCF Done:  E(RB3LYP) =  -1979.58278466     A.U. after    6 cycles
 Optimization completed.
    -- Stationary point found.

                         Standard orientation:
 ---------------------------------------------------------------------
 Center     Atomic      Atomic             Coordinates (Angstroms)
 Number     Number       Type             X           Y           Z
 ---------------------------------------------------------------------
      1          6           0        4.748079    2.442165    0.915941
      2          6           0        3.955257    1.198878    0.585814
      3          6           0        2.625774    1.165654    0.904355
      4          7           0        1.910092    0.021996    0.749462
      5          7           0        0.589390   -0.143892    1.031769
      6          6           0        0.372510   -1.443192    0.775813
      7          6           0       -0.990083   -2.075814    0.977300
      8          6           0       -1.060093   -2.924904    2.262006
      9          6           0       -0.950564   -2.078842    3.545249
     10          6           0       -1.663069   -0.714574    3.387565
     11          6           0       -2.712975   -0.735915    2.272936
     12          7           0       -2.095594   -1.096438    0.984041
     13          6           0       -2.525704   -0.644339   -0.224524
     14          8           0       -2.001311   -0.998567   -1.283392
     15          6           0       -3.733627    0.325316   -0.271204
     16          7           0       -4.305530    0.316679   -1.624892
     17         16           0       -5.577581   -0.723144   -1.981745
     18          6           0       -4.936366   -2.416847   -1.947267
     19          8           0       -5.950823   -0.436184   -3.366328
     20          8           0       -6.533823   -0.597835   -0.875914
     21          6           0       -3.389644    1.767244    0.111643
     22          6           0       -4.448782    2.675188    0.259135
     23          6           0       -4.199427    4.005537    0.585291
     24          6           0       -2.885211    4.447954    0.765100
     25          6           0       -1.829740    3.550149    0.617437
     26          6           0       -2.075990    2.212526    0.291002
     27          6           0        1.530886   -2.120618    0.346216
     28          6           0        2.533229   -1.153128    0.328992
     29          7           0        3.834380   -1.165833   -0.015293
     30          6           0        4.532009   -0.037388    0.067635
     31          7           0        5.855630   -0.121596   -0.297945
     32          6           0        6.415371   -1.441080   -0.643436
     33          6           0        7.832718   -1.107485   -1.108254
     34          6           0        7.644610    0.228437   -1.836076
     35          7           0        8.889686    0.987603   -1.958378
     36          6           0        6.630214    0.959370   -0.933807
     37          1           0        4.134925    3.127431    1.509698
     38          1           0        5.086956    2.992651    0.032368
     39          1           0        5.636114    2.196709    1.509020
     40          1           0        2.082990    2.007830    1.318591
     41          1           0       -1.159092   -2.728828    0.115195
     42          1           0       -0.269814   -3.681940    2.227706
     43          1           0       -2.014285   -3.467226    2.249691
     44          1           0        0.103310   -1.910092    3.790767
     45          1           0       -1.378896   -2.646656    4.379632
     46          1           0       -0.932120    0.059351    3.136984
     47          1           0       -2.152130   -0.416832    4.322008
     48          1           0       -3.518851   -1.444814    2.517292
     49          1           0       -3.159678    0.255054    2.184042
     50          1           0       -4.524517   -0.026490    0.398350
     51          1           0       -3.573583    0.250013   -2.333395
     52          1           0       -4.618376   -2.664380   -0.933121
     53          1           0       -5.756660   -3.069129   -2.255653
     54          1           0       -4.097270   -2.494275   -2.639950
     55          1           0       -5.467181    2.330726    0.099022
     56          1           0       -5.029204    4.698424    0.696975
     57          1           0       -2.689061    5.486711    1.017934
     58          1           0       -0.805164    3.886840    0.754341
     59          1           0       -1.240188    1.524820    0.196058
     60          1           0        1.632615   -3.155441    0.056131
     61          1           0        5.824831   -1.916261   -1.437744
     62          1           0        6.378505   -2.106109    0.224047
     63          1           0        8.503570   -0.953490   -0.254801
     64          1           0        8.257227   -1.889721   -1.746199
     65          1           0        7.157591    0.024195   -2.806662
     66          1           0        9.562806    0.445451   -2.499022
     67          1           0        8.726423    1.837981   -2.497290
     68          1           0        7.184531    1.556386   -0.199916
     69          1           0        5.979973    1.626717   -1.509620
 ---------------------------------------------------------------------

 The electronic state is 1-A.
 Alpha  occ. eigenvalues --  -89.09802 -19.12790 -19.12606 -19.11750 -14.42508
 Alpha  occ. eigenvalues --  -14.36849 -14.36335 -14.35309 -14.34501 -14.33057
 Alpha  occ. eigenvalues --  -14.32579 -10.28654 -10.27432 -10.25285 -10.25096
 Alpha  occ. eigenvalues --  -10.23999 -10.23401 -10.23209 -10.22998 -10.22738
 Alpha  occ. eigenvalues --  -10.22073 -10.21825 -10.21612 -10.21306 -10.20354
 Alpha  occ. eigenvalues --  -10.19732 -10.19542 -10.19528 -10.18848 -10.18714
 Alpha  occ. eigenvalues --  -10.18713 -10.18642 -10.18578 -10.18404 -10.18340
 Alpha  occ. eigenvalues --  -10.17143  -8.12337  -6.08828  -6.08747  -6.08652
 Alpha  occ. eigenvalues --   -1.09555  -1.06182  -1.03799  -0.98601  -0.98192
 Alpha  occ. eigenvalues --   -0.94240  -0.92531  -0.91727  -0.89467  -0.86750
 Alpha  occ. eigenvalues --   -0.84882  -0.81453  -0.80408  -0.78442  -0.77363
 Alpha  occ. eigenvalues --   -0.76556  -0.76111  -0.75003  -0.73931  -0.73556
 Alpha  occ. eigenvalues --   -0.70881  -0.69855  -0.67515  -0.66671  -0.64759
 Alpha  occ. eigenvalues --   -0.62962  -0.60910  -0.60508  -0.60095  -0.59270
 Alpha  occ. eigenvalues --   -0.58768  -0.58671  -0.57054  -0.54899  -0.53857
 Alpha  occ. eigenvalues --   -0.53228  -0.52820  -0.51767  -0.51721  -0.50717
 Alpha  occ. eigenvalues --   -0.49362  -0.48860  -0.47569  -0.47377  -0.46946
 Alpha  occ. eigenvalues --   -0.46760  -0.46424  -0.45562  -0.45175  -0.44817
 Alpha  occ. eigenvalues --   -0.44452  -0.44137  -0.43828  -0.43384  -0.43046
 Alpha  occ. eigenvalues --   -0.42855  -0.42708  -0.42390  -0.42320  -0.41843
 Alpha  occ. eigenvalues --   -0.41631  -0.41431  -0.41216  -0.41040  -0.40401
 Alpha  occ. eigenvalues --   -0.39442  -0.39165  -0.38623  -0.37651  -0.37016
 Alpha  occ. eigenvalues --   -0.36818  -0.36464  -0.35693  -0.35349  -0.34538
 Alpha  occ. eigenvalues --   -0.34501  -0.33931  -0.33637  -0.33214  -0.32646
 Alpha  occ. eigenvalues --   -0.32260  -0.31324  -0.30746  -0.30111  -0.28846
 Alpha  occ. eigenvalues --   -0.28623  -0.27509  -0.27363  -0.26265  -0.25518
 Alpha  occ. eigenvalues --   -0.25400  -0.24691  -0.24282  -0.24010  -0.22406
 Alpha  occ. eigenvalues --   -0.20180
 Alpha virt. eigenvalues --   -0.03449  -0.00544  -0.00133   0.00349   0.01826
 Alpha virt. eigenvalues --    0.05474   0.06232   0.07455   0.08001   0.08399
 Alpha virt. eigenvalues --    0.08750   0.09030   0.09998   0.10802   0.10844

 Mulliken charges:
               1
     1  C   -0.531892
     2  C    0.092840
     3  C    0.052591
     4  N   -0.329673
     5  N   -0.399521
     6  C    0.365954
     7  C   -0.056742
     8  C   -0.286163
     9  C   -0.269253
    10  C   -0.287603
    11  C   -0.151806
    12  N   -0.423442
    13  C    0.600558
    14  O   -0.548386
    15  C   -0.192839
    16  N   -0.642974
    17  S    1.183138
    18  C   -0.625187
    19  O   -0.519879
    20  O   -0.555109
    21  C    0.137735
    22  C   -0.156459
    23  C   -0.136119
    24  C   -0.122586
    25  C   -0.142748
    26  C   -0.188689
    27  C   -0.324978
    28  C    0.587940
    29  N   -0.618647
    30  C    0.471126
    31  N   -0.507215
    32  C   -0.097288
    33  C   -0.303781
    34  C   -0.002126
    35  N   -0.722849
    36  C   -0.115621
    37  H    0.160513
    38  H    0.164611
    39  H    0.175024
    40  H    0.174400
    41  H    0.172120
    42  H    0.153728
    43  H    0.143717
    44  H    0.152379
    45  H    0.138697
    46  H    0.181349
    47  H    0.141463
    48  H    0.147542
    49  H    0.175619
    50  H    0.192320
    51  H    0.358595
    52  H    0.189152
    53  H    0.209678
    54  H    0.213795
    55  H    0.158314
    56  H    0.133268
    57  H    0.127235
    58  H    0.121219
    59  H    0.183243
    60  H    0.133165
    61  H    0.160520
    62  H    0.162513
    63  H    0.161480
    64  H    0.144748
    65  H    0.124578
    66  H    0.303043
    67  H    0.299348
    68  H    0.162121
    69  H    0.148197
 Sum of Mulliken charges =  -0.00000

 Dipole moment (field-independent basis, Debye):
    X=              9.4865    Y=             -0.1677    Z=              2.9685  Tot=              9.9415
 Quadrupole moment (field-independent basis, Debye-Ang):
   XX=           -228.4508   YY=           -197.8225   ZZ=           -218.6296
   XY=             13.3612   XZ=            -39.6655   YZ=              1.0656

 Normal termination of Gaussian 16 at Fri Nov  4 19:42:30 2022.
