 Gaussian 16, Revision B.01,
 Gaussian 16:  ES64L-G16RevB.01 20-Dec-2017

 -------------------------------------------------------------------
 #p b3lyp/6-31g(d) 6D 10F nosymm GFInput td=(50-50,nstate=2) SCF=XQC
 -------------------------------------------------------------------

 ------------------------------
 Gaussian input prepared by ASE
 ------------------------------
 Symbolic Z-matrix:
 Charge =  0 Multiplicity = 1

                          Input orientation:
 ---------------------------------------------------------------------
 Center     Atomic      Atomic             Coordinates (Angstroms)
 Number     Number       Type             X           Y           Z
 ---------------------------------------------------------------------
      1          6           0        3.889997   -2.559114   -1.458329
      2          6           0        3.233574   -1.372897   -0.791014
      3          6           0        1.915338   -1.120329   -1.052855
      4          7           0        1.325137    0.008795   -0.582868
      5          7           0        0.029706    0.378087   -0.775102
      6          6           0       -0.048040    1.578530   -0.180439
      7          6           0       -1.335578    2.378291   -0.170778
      8          6           0       -1.314205    3.539526   -1.184386
      9          6           0       -1.294431    3.056471   -2.647533
     10          6           0       -2.147959    1.779685   -2.834792
     11          6           0       -3.190317    1.613032   -1.725346
     12          7           0       -2.538892    1.554409   -0.404515
     13          6           0       -3.015325    0.845316    0.653888
     14          8           0       -2.456893    0.851053    1.753792
     15          6           0       -4.319469    0.027134    0.477046
     16          7           0       -4.888023   -0.263999    1.800530
     17         16           0       -6.042598    0.769230    2.453283
     18          6           0       -5.225025    2.336633    2.847998
     19          8           0       -6.445042    0.166089    3.723316
     20          8           0       -7.006082    1.039748    1.380212
     21          6           0       -4.130419   -1.289551   -0.281013
     22          6           0       -5.279949   -2.012461   -0.632970
     23          6           0       -5.173168   -3.227439   -1.304395
     24          6           0       -3.913295   -3.738979   -1.630392
     25          6           0       -2.768491   -3.025459   -1.280837
     26          6           0       -2.871410   -1.803899   -0.607315
     27          6           0        1.175503    1.995584    0.380189
     28          6           0        2.069359    0.960436    0.114645
     29          7           0        3.364289    0.748006    0.414176
     30          6           0        3.938113   -0.383715    0.018090
     31          7           0        5.262971   -0.535520    0.356352
     32          6           0        5.959540    0.580889    1.021284
     33          6           0        7.333139   -0.007418    1.342741
     34          6           0        7.003713   -1.461666    1.698324
     35          7           0        8.161001   -2.349761    1.582241
     36          6           0        5.917930   -1.819762    0.663822
     37          1           0        3.207855   -2.996214   -2.194345
     38          1           0        4.167936   -3.355495   -0.760402
     39          1           0        4.799440   -2.257990   -1.990152
     40          1           0        1.286387   -1.762602   -1.658967
     41          1           0       -1.434757    2.793747    0.837079
     42          1           0       -0.447980    4.175268   -0.973891
     43          1           0       -2.205377    4.154226   -1.003545
     44          1           0       -0.264308    2.851450   -2.957724
     45          1           0       -1.659507    3.865634   -3.290999
     46          1           0       -1.503531    0.896266   -2.816891
     47          1           0       -2.665331    1.791573   -3.800815
     48          1           0       -3.916160    2.440142   -1.752289
     49          1           0       -3.739841    0.685123   -1.888048
     50          1           0       -5.068101    0.622773   -0.054312
     51          1           0       -4.153558   -0.462620    2.481175
     52          1           0       -4.881930    2.809641    1.926353
     53          1           0       -5.971550    2.964708    3.339606
     54          1           0       -4.382865    2.141519    3.513269
     55          1           0       -6.256075   -1.619998   -0.359887
     56          1           0       -6.071805   -3.777143   -1.571552
     57          1           0       -3.828480   -4.688285   -2.152923
     58          1           0       -1.785409   -3.417244   -1.529664
     59          1           0       -1.967323   -1.255353   -0.357829
     60          1           0        1.386440    2.900694    0.929406
     61          1           0        5.422361    0.887016    1.928580
     62          1           0        5.994063    1.451853    0.360695
     63          1           0        7.984339    0.001843    0.460702
     64          1           0        7.837983    0.530336    2.152079
     65          1           0        6.540575   -1.472598    2.701481
     66          1           0        8.887595   -2.041997    2.227732
     67          1           0        7.907983   -3.290996    1.882711
     68          1           0        6.406110   -2.254982   -0.216267
     69          1           0        5.200119   -2.545273    1.061445
 ---------------------------------------------------------------------

 SCF Done:  E(RB3LYP) =  -1979.58278382     A.U. after   15 cycles

 Excitation energies and oscillator strengths:

 Excited state symmetry could not be determined.
 Excited State   1:      Triplet-?Sym    3.0370 eV  408.25 nm  f=0.0000  <S**2>=2.000
     135 ->137        -0.11612
     136 ->137         0.67124
     136 ->139         0.10381
 This state for optimization and/or second-order correction.
 Total Energy, E(TD-HF/TD-DFT) =  -1979.47117697
 Copying the excited state density for this state as the 1-particle RhoCI density.

 Excited state symmetry could not be determined.
 Excited State   2:      Triplet-?Sym    3.4498 eV  359.39 nm  f=0.0000  <S**2>=2.000
     122 ->137        -0.12132
     135 ->137         0.66528
     136 ->137         0.13989

 Excited state symmetry could not be determined.
 Excited State   3:      Singlet-?Sym    3.8947 eV  318.34 nm  f=0.0498  <S**2>=0.000
     136 ->137         0.69311

 Excited state symmetry could not be determined.
 Excited State   4:      Singlet-?Sym    4.4270 eV  280.06 nm  f=0.0342  <S**2>=0.000
     135 ->137         0.60801
     136 ->139        -0.34791

 Alpha  occ. eigenvalues --  -89.09803 -19.12790 -19.12606 -19.11750 -14.42508
 Alpha  occ. eigenvalues --  -14.36849 -14.36335 -14.35309 -14.34501 -14.33057
 Alpha  occ. eigenvalues --  -14.32579 -10.28654 -10.27432 -10.25285 -10.25096
 Alpha  occ. eigenvalues --  -10.23999 -10.23401 -10.23209 -10.22998 -10.22738
 Alpha  occ. eigenvalues --  -10.22073 -10.21825 -10.21612 -10.21306 -10.20354
 Alpha  occ. eigenvalues --  -10.19732 -10.19542 -10.19527 -10.18848 -10.18714
 Alpha  occ. eigenvalues --  -10.18713 -10.18642 -10.18578 -10.18404 -10.18340
 Alpha  occ. eigenvalues --  -10.17143  -8.12337  -6.08828  -6.08747  -6.08652
 Alpha  occ. eigenvalues --   -1.09555  -1.06182  -1.03799  -0.98601  -0.98192
 Alpha  occ. eigenvalues --   -0.94240  -0.92531  -0.91728  -0.89466  -0.86750
 Alpha  occ. eigenvalues --   -0.84882  -0.81454  -0.80408  -0.78442  -0.77363
 Alpha  occ. eigenvalues --   -0.76556  -0.76111  -0.75003  -0.73931  -0.73556
 Alpha  occ. eigenvalues --   -0.70881  -0.69855  -0.67515  -0.66671  -0.64759
 Alpha  occ. eigenvalues --   -0.62962  -0.60910  -0.60508  -0.60095  -0.59270
 Alpha  occ. eigenvalues --   -0.58768  -0.58671  -0.57054  -0.54898  -0.53857
 Alpha  occ. eigenvalues --   -0.53228  -0.52820  -0.51767  -0.51721  -0.50717
 Alpha  occ. eigenvalues --   -0.49361  -0.48860  -0.47569  -0.47377  -0.46946
 Alpha  occ. eigenvalues --   -0.46760  -0.46424  -0.45562  -0.45175  -0.44817
 Alpha  occ. eigenvalues --   -0.44452  -0.44137  -0.43828  -0.43384  -0.43046
 Alpha  occ. eigenvalues --   -0.42855  -0.42708  -0.42390  -0.42320  -0.41843
 Alpha  occ. eigenvalues --   -0.41631  -0.41431  -0.41216  -0.41040  -0.40401
 Alpha  occ. eigenvalues --   -0.39442  -0.39165  -0.38623  -0.37651  -0.37016
 Alpha  occ. eigenvalues --   -0.36818  -0.36464  -0.35693  -0.35349  -0.34538
 Alpha  occ. eigenvalues --   -0.34501  -0.33931  -0.33637  -0.33214  -0.32646
 Alpha  occ. eigenvalues --   -0.32261  -0.31324  -0.30746  -0.30111  -0.28846
 Alpha  occ. eigenvalues --   -0.28623  -0.27509  -0.27363  -0.26265  -0.25518
 Alpha  occ. eigenvalues --   -0.25400  -0.24691  -0.24282  -0.24010  -0.22406
 Alpha  occ. eigenvalues --   -0.20180
 Alpha virt. eigenvalues --   -0.03449  -0.00545  -0.00133   0.00349   0.01826
 Alpha virt. eigenvalues --    0.05474   0.06232   0.07455   0.08001   0.08399
 Alpha virt. eigenvalues --    0.08750   0.09030   0.09998   0.10802   0.10844

 Mulliken charges:
               1
     1  C   -0.531884
     2  C    0.092848
     3  C    0.052567
     4  N   -0.329653
     5  N   -0.399519
     6  C    0.365944
     7  C   -0.056768
     8  C   -0.286124
     9  C   -0.269268
    10  C   -0.287613
    11  C   -0.151802
    12  N   -0.423438
    13  C    0.600548
    14  O   -0.548372
    15  C   -0.192835
    16  N   -0.642983
    17  S    1.183153
    18  C   -0.625191
    19  O   -0.519876
    20  O   -0.555119
    21  C    0.137734
    22  C   -0.156457
    23  C   -0.136124
    24  C   -0.122590
    25  C   -0.142735
    26  C   -0.188692
    27  C   -0.324984
    28  C    0.587938
    29  N   -0.618639
    30  C    0.471109
    31  N   -0.507211
    32  C   -0.097296
    33  C   -0.303773
    34  C   -0.002140
    35  N   -0.722847
    36  C   -0.115607
    37  H    0.160512
    38  H    0.164610
    39  H    0.175023
    40  H    0.174404
    41  H    0.172122
    42  H    0.153725
    43  H    0.143707
    44  H    0.152381
    45  H    0.138698
    46  H    0.181350
    47  H    0.141464
    48  H    0.147541
    49  H    0.175620
    50  H    0.192324
    51  H    0.358597
    52  H    0.189156
    53  H    0.209677
    54  H    0.213794
    55  H    0.158314
    56  H    0.133268
    57  H    0.127235
    58  H    0.121218
    59  H    0.183243
    60  H    0.133165
    61  H    0.160520
    62  H    0.162514
    63  H    0.161478
    64  H    0.144748
    65  H    0.124581
    66  H    0.303042
    67  H    0.299347
    68  H    0.162119
    69  H    0.148196
 Sum of Mulliken charges =  -0.00000

 Dipole moment (field-independent basis, Debye):
    X=              9.4523    Y=             -0.0275    Z=             -3.0799  Tot=              9.9414
 Quadrupole moment (field-independent basis, Debye-Ang):
   XX=           -241.7935   YY=           -195.3598   ZZ=           -219.7905
   XY=            -19.6564   XZ=             39.1762   YZ=              3.1190

 Normal termination of Gaussian 16 at Sat Nov  5 12:12:29 2022.
