 Gaussian 16, Revision B.01,
 Gaussian 16:  ES64L-G16RevB.01 20-Dec-2017

 -------------------------------------------------------------------
 #p b3lyp/6-31g(d) 6D 10F nosymm GFInput td=(50-50,nstate=2) SCF=XQC
 -------------------------------------------------------------------

 ------------------------------
 Gaussian input prepared by ASE
 ------------------------------
 Symbolic Z-matrix:
 Charge =  0 Multiplicity = 1

                          Input orientation:
 ---------------------------------------------------------------------
 Center     Atomic      Atomic             Coordinates (Angstroms)
 Number     Number       Type             X           Y           Z
 ---------------------------------------------------------------------
      1          6           0        7.909876    0.070754    0.373433
      2          6           0        6.686525    0.948371    0.574633
      3          8           0        6.748932    2.035881    1.140067
      4          7           0        5.521271    0.457681    0.051790
      5          6           0        4.259897    1.137009    0.238843
      6          6           0        3.763713    1.936657   -0.993845
      7         16           0        4.997170    3.110892   -1.689289
      8          6           0        3.202277    0.096760    0.597413
      9          8           0        3.324965   -1.094594    0.414506
     10          8           0        2.107200    0.681286    1.129714
     11          6           0        0.971789   -0.165677    1.317452
     12          6           0        0.165195   -0.250650    0.007630
     13          8           0        0.700879    0.098226   -1.024921
     14          6           0       -1.311175   -0.694743    0.134106
     15          6           0       -2.104787    0.610064    0.528545
     16          6           0       -2.039504    1.808243   -0.473751
     17          6           0       -1.006547    2.861248   -0.043298
     18          7           0       -3.339869    2.454418   -0.724991
     19          6           0       -4.237092    1.672522   -1.562106
     20          6           0       -4.027642    2.975022    0.447022
     21          6           0       -1.948130   -1.292482   -1.147087
     22          6           0       -3.203658   -1.912435   -1.004201
     23          6           0       -3.875960   -2.457654   -2.094612
     24          6           0       -3.305934   -2.403876   -3.368339
     25          6           0       -2.062588   -1.798118   -3.526501
     26          6           0       -1.388987   -1.243917   -2.432204
     27          6           0       -1.376282   -1.767654    1.249042
     28          6           0       -2.049587   -1.595644    2.464425
     29          6           0       -2.059720   -2.609139    3.429111
     30          6           0       -1.391258   -3.808930    3.199171
     31          6           0       -0.715680   -3.995431    1.989684
     32          6           0       -0.714932   -2.989203    1.027823
     33          1           0        8.485494    0.051919    1.302313
     34          1           0        8.542409    0.520969   -0.399353
     35          1           0        7.668656   -0.953536    0.072842
     36          1           0        5.473572   -0.493177   -0.289422
     37          1           0        4.384235    1.832747    1.074475
     38          1           0        2.850156    2.468123   -0.718803
     39          1           0        3.515008    1.254884   -1.812609
     40          1           0        5.513850    3.514851   -0.509412
     41          1           0        1.291720   -1.165568    1.619186
     42          1           0        0.385467    0.277488    2.124366
     43          1           0       -1.770720    0.951189    1.515820
     44          1           0       -3.147655    0.299446    0.650046
     45          1           0       -1.721481    1.422391   -1.448272
     46          1           0       -1.006386    3.690289   -0.756996
     47          1           0       -1.224204    3.267525    0.951471
     48          1           0        0.001157    2.437301   -0.011017
     49          1           0       -5.084068    2.300280   -1.863693
     50          1           0       -4.650588    0.771066   -1.070081
     51          1           0       -3.713910    1.346165   -2.466339
     52          1           0       -3.364720    3.620568    1.029878
     53          1           0       -4.428108    2.193539    1.123253
     54          1           0       -4.877472    3.584758    0.119247
     55          1           0       -3.657176   -1.984983   -0.019808
     56          1           0       -4.843218   -2.930648   -1.946104
     57          1           0       -3.824770   -2.831246   -4.222200
     58          1           0       -1.601192   -1.748368   -4.509454
     59          1           0       -0.429186   -0.772857   -2.585877
     60          1           0       -2.581601   -0.674610    2.675306
     61          1           0       -2.594172   -2.451856    4.362236
     62          1           0       -1.397427   -4.593698    3.950486
     63          1           0       -0.192670   -4.927397    1.793307
     64          1           0       -0.201355   -3.152440    0.083226
 ---------------------------------------------------------------------

 SCF Done:  E(RB3LYP) =  -1780.51259491     A.U. after   15 cycles

 Excitation energies and oscillator strengths:

 Excited state symmetry could not be determined.
 Excited State   1:      Triplet-?Sym    3.6371 eV  340.89 nm  f=0.0000  <S**2>=2.000
     114 ->123        -0.16807
     114 ->124         0.19232
     114 ->125         0.11787
     115 ->124         0.16202
     115 ->125        -0.20701
     116 ->123        -0.36928
     120 ->123         0.33849
     120 ->124         0.21356
     122 ->123         0.11765
 This state for optimization and/or second-order correction.
 Total Energy, E(TD-HF/TD-DFT) =  -1780.37893297
 Copying the excited state density for this state as the 1-particle RhoCI density.

 Excited state symmetry could not be determined.
 Excited State   2:      Triplet-?Sym    3.7079 eV  334.38 nm  f=0.0000  <S**2>=2.000
     114 ->123        -0.12540
     116 ->123        -0.13595
     116 ->127        -0.18145
     116 ->128        -0.11522
     118 ->125         0.15019
     118 ->127        -0.21019
     118 ->128         0.31205
     120 ->124        -0.16512
     120 ->125        -0.16241
     120 ->126        -0.15487
     120 ->127        -0.33828
     122 ->123         0.12756

 Excited state symmetry could not be determined.
 Excited State   3:      Singlet-?Sym    3.8271 eV  323.96 nm  f=0.0004  <S**2>=0.000
     122 ->123         0.70336

 Excited state symmetry could not be determined.
 Excited State   4:      Singlet-?Sym    4.2215 eV  293.70 nm  f=0.0049  <S**2>=0.000
     114 ->123        -0.29388
     116 ->123        -0.39495
     118 ->123        -0.12931
     120 ->123         0.45216

 Alpha  occ. eigenvalues --  -88.86213 -19.21269 -19.16667 -19.15625 -19.10899
 Alpha  occ. eigenvalues --  -14.36051 -14.32163 -10.33343 -10.30045 -10.28817
 Alpha  occ. eigenvalues --  -10.26397 -10.24874 -10.23705 -10.22161 -10.21769
 Alpha  occ. eigenvalues --  -10.21534 -10.20688 -10.20493 -10.20439 -10.20383
 Alpha  occ. eigenvalues --  -10.20313 -10.20289 -10.20220 -10.20187 -10.19661
 Alpha  occ. eigenvalues --  -10.19299 -10.19207 -10.19182 -10.19065 -10.19000
 Alpha  occ. eigenvalues --  -10.18612 -10.17323  -7.92573  -5.89076  -5.88711
 Alpha  occ. eigenvalues --   -5.88000  -1.12465  -1.06726  -1.03628  -1.02839
 Alpha  occ. eigenvalues --   -0.92718  -0.91747  -0.87993  -0.85592  -0.82435
 Alpha  occ. eigenvalues --   -0.80688  -0.77134  -0.76650  -0.75828  -0.74809
 Alpha  occ. eigenvalues --   -0.74475  -0.74272  -0.72041  -0.70437  -0.70157
 Alpha  occ. eigenvalues --   -0.66963  -0.64260  -0.62885  -0.61780  -0.61555
 Alpha  occ. eigenvalues --   -0.60920  -0.60153  -0.59021  -0.58008  -0.56155
 Alpha  occ. eigenvalues --   -0.54772  -0.53776  -0.52923  -0.51802  -0.50188
 Alpha  occ. eigenvalues --   -0.49482  -0.48773  -0.48358  -0.47601  -0.47083
 Alpha  occ. eigenvalues --   -0.46825  -0.46640  -0.45894  -0.45787  -0.45097
 Alpha  occ. eigenvalues --   -0.44753  -0.44521  -0.43738  -0.43379  -0.43257
 Alpha  occ. eigenvalues --   -0.42730  -0.42465  -0.42052  -0.41646  -0.40920
 Alpha  occ. eigenvalues --   -0.40247  -0.39722  -0.39606  -0.39113  -0.38879
 Alpha  occ. eigenvalues --   -0.38509  -0.38363  -0.37513  -0.37389  -0.36779
 Alpha  occ. eigenvalues --   -0.36639  -0.36311  -0.36000  -0.35697  -0.35182
 Alpha  occ. eigenvalues --   -0.34623  -0.34254  -0.34075  -0.33969  -0.33185
 Alpha  occ. eigenvalues --   -0.33090  -0.32338  -0.29201  -0.27488  -0.26512
 Alpha  occ. eigenvalues --   -0.25950  -0.25526  -0.25127  -0.24876  -0.23993
 Alpha  occ. eigenvalues --   -0.22751  -0.20575
 Alpha virt. eigenvalues --   -0.04118  -0.02071  -0.01677  -0.01141  -0.00791
 Alpha virt. eigenvalues --    0.00170   0.02555   0.05220   0.07086   0.08174
 Alpha virt. eigenvalues --    0.08709   0.08713   0.09617   0.09718   0.09976

 Mulliken charges:
               1
     1  C   -0.535320
     2  C    0.602762
     3  O   -0.518124
     4  N   -0.578089
     5  C   -0.061776
     6  C   -0.412021
     7  S   -0.090515
     8  C    0.644575
     9  O   -0.481737
    10  O   -0.453254
    11  C   -0.153801
    12  C    0.466319
    13  O   -0.453063
    14  C   -0.142292
    15  C   -0.314221
    16  C    0.046807
    17  C   -0.475029
    18  N   -0.369305
    19  C   -0.302286
    20  C   -0.305225
    21  C    0.141220
    22  C   -0.172996
    23  C   -0.134756
    24  C   -0.125918
    25  C   -0.134358
    26  C   -0.199339
    27  C    0.103484
    28  C   -0.193779
    29  C   -0.131837
    30  C   -0.125148
    31  C   -0.131430
    32  C   -0.169628
    33  H    0.185118
    34  H    0.191534
    35  H    0.149115
    36  H    0.341219
    37  H    0.202682
    38  H    0.200818
    39  H    0.191458
    40  H    0.127384
    41  H    0.215955
    42  H    0.188615
    43  H    0.141386
    44  H    0.165250
    45  H    0.154978
    46  H    0.163834
    47  H    0.137055
    48  H    0.158600
    49  H    0.144587
    50  H    0.119453
    51  H    0.159414
    52  H    0.151499
    53  H    0.112121
    54  H    0.151248
    55  H    0.134801
    56  H    0.130885
    57  H    0.130813
    58  H    0.133020
    59  H    0.176383
    60  H    0.136022
    61  H    0.136246
    62  H    0.137021
    63  H    0.140852
    64  H    0.150711
 Sum of Mulliken charges =  -0.00000

 Dipole moment (field-independent basis, Debye):
    X=             -4.2330    Y=             -4.0675    Z=              2.2400  Tot=              6.2834
 Quadrupole moment (field-independent basis, Debye-Ang):
   XX=           -202.7839   YY=           -203.1227   ZZ=           -191.1051
   XY=            -17.1137   XZ=             -4.4330   YZ=              1.9317

 Normal termination of Gaussian 16 at Sat Nov  5 12:12:51 2022.
