 Gaussian 16, Revision B.01,
 Gaussian 16:  ES64L-G16RevB.01 20-Dec-2017

 -----------------------------
 #p b3lyp/6-31g(d) opt SCF=XQC
 -----------------------------

 ------------------------------
 Gaussian input prepared by ASE
 ------------------------------
 Symbolic Z-matrix:
 Charge =  0 Multiplicity = 1

 SCF Done:  E(RB3LYP) =  -1780.50122938     A.U. after   15 cycles
 SCF Done:  E(RB3LYP) =  -1780.51049280     A.U. after   13 cycles
 SCF Done:  E(RB3LYP) =  -1780.51143979     A.U. after   12 cycles
 SCF Done:  E(RB3LYP) =  -1780.51145169     A.U. after   13 cycles
 SCF Done:  E(RB3LYP) =  -1780.51212953     A.U. after   11 cycles
 SCF Done:  E(RB3LYP) =  -1780.51176992     A.U. after   12 cycles
 SCF Done:  E(RB3LYP) =  -1780.51211139     A.U. after   12 cycles
 SCF Done:  E(RB3LYP) =  -1780.51221304     A.U. after   11 cycles
 SCF Done:  E(RB3LYP) =  -1780.51231588     A.U. after   11 cycles
 SCF Done:  E(RB3LYP) =  -1780.51231758     A.U. after   10 cycles
 SCF Done:  E(RB3LYP) =  -1780.51258953     A.U. after   10 cycles
 SCF Done:  E(RB3LYP) =  -1780.51259045     A.U. after   10 cycles
 SCF Done:  E(RB3LYP) =  -1780.51260147     A.U. after   10 cycles
 SCF Done:  E(RB3LYP) =  -1780.51260316     A.U. after    9 cycles
 SCF Done:  E(RB3LYP) =  -1780.51260360     A.U. after    8 cycles
 SCF Done:  E(RB3LYP) =  -1780.51260379     A.U. after    8 cycles
 SCF Done:  E(RB3LYP) =  -1780.51260380     A.U. after    7 cycles
 SCF Done:  E(RB3LYP) =  -1780.51260380     A.U. after    7 cycles
 SCF Done:  E(RB3LYP) =  -1780.51260378     A.U. after    7 cycles
 SCF Done:  E(RB3LYP) =  -1780.51260376     A.U. after    6 cycles
 Optimization completed.
    -- Stationary point found.

                         Standard orientation:
 ---------------------------------------------------------------------
 Center     Atomic      Atomic             Coordinates (Angstroms)
 Number     Number       Type             X           Y           Z
 ---------------------------------------------------------------------
      1          6           0        7.219069    1.582753    0.812257
      2          6           0        6.259878    0.723254    0.006964
      3          8           0        6.612342    0.123015   -1.003863
      4          7           0        4.988959    0.638445    0.506493
      5          6           0        3.943379   -0.070474   -0.194747
      6          6           0        3.609728   -1.471442    0.380683
      7         16           0        5.065293   -2.575921    0.593621
      8          6           0        2.677248    0.780880   -0.157890
      9          8           0        2.494106    1.701594    0.607993
     10          8           0        1.783486    0.361956   -1.079792
     11          6           0        0.482752    0.948744   -1.005485
     12          6           0       -0.373174    0.185454    0.023216
     13          8           0        0.189018   -0.539541    0.818925
     14          6           0       -1.906979    0.339900   -0.105132
     15          6           0       -2.336605   -0.693204   -1.216905
     16          6           0       -2.018712   -2.199518   -0.944038
     17          6           0       -0.740743   -2.656296   -1.664634
     18          7           0       -3.128320   -3.115941   -1.261138
     19          6           0       -4.224678   -3.070400   -0.305599
     20          6           0       -3.617159   -3.071716   -2.631086
     21          6           0       -2.724193    0.050912    1.180600
     22          6           0       -4.086973    0.402429    1.161251
     23          6           0       -4.917555    0.162073    2.252402
     24          6           0       -4.404985   -0.435863    3.405635
     25          6           0       -3.058136   -0.785813    3.443066
     26          6           0       -2.223915   -0.550672    2.344364
     27          6           0       -2.189101    1.800419   -0.536122
     28          6           0       -2.748276    2.160299   -1.768150
     29          6           0       -2.968697    3.503740   -2.091374
     30          6           0       -2.627493    4.510991   -1.192354
     31          6           0       -2.069454    4.166678    0.042186
     32          6           0       -1.859799    2.828969    0.365070
     33          1           0        7.810014    2.190623    0.122483
     34          1           0        7.910784    0.926738    1.351856
     35          1           0        6.720046    2.233863    1.536648
     36          1           0        4.693753    1.244142    1.260692
     37          1           0        4.270147   -0.192214   -1.232145
     38          1           0        2.867970   -1.945244   -0.265845
     39          1           0        3.166705   -1.376258    1.376531
     40          1           0        5.714005   -2.201058   -0.529278
     41          1           0        0.557873    1.999311   -0.715920
     42          1           0        0.057927    0.887126   -2.008982
     43          1           0       -1.888158   -0.400839   -2.174034
     44          1           0       -3.417956   -0.569963   -1.336539
     45          1           0       -1.846387   -2.323810    0.130469
     46          1           0       -0.565195   -3.717602   -1.465925
     47          1           0       -0.810019   -2.519384   -2.750201
     48          1           0        0.131410   -2.094470   -1.318306
     49          1           0       -4.901982   -3.911290   -0.496828
     50          1           0       -4.827423   -2.142654   -0.346532
     51          1           0       -3.836135   -3.168663    0.712853
     52          1           0       -2.791814   -3.180391   -3.340249
     53          1           0       -4.170042   -2.145728   -2.886509
     54          1           0       -4.302759   -3.911742   -2.791506
     55          1           0       -4.503330    0.887880    0.283210
     56          1           0       -5.964713    0.448999    2.202412
     57          1           0       -5.048113   -0.622270    4.261528
     58          1           0       -2.639725   -1.250025    4.332447
     59          1           0       -1.184667   -0.840091    2.398506
     60          1           0       -3.027047    1.401331   -2.490692
     61          1           0       -3.408735    3.755700   -3.052614
     62          1           0       -2.796366    5.553818   -1.446064
     63          1           0       -1.801503    4.940572    0.756297
     64          1           0       -1.441915    2.572034    1.335652
 ---------------------------------------------------------------------

 The electronic state is 1-A.
 Alpha  occ. eigenvalues --  -88.86212 -19.21270 -19.16668 -19.15625 -19.10899
 Alpha  occ. eigenvalues --  -14.36051 -14.32163 -10.33343 -10.30045 -10.28817
 Alpha  occ. eigenvalues --  -10.26397 -10.24874 -10.23705 -10.22161 -10.21769
 Alpha  occ. eigenvalues --  -10.21534 -10.20688 -10.20493 -10.20439 -10.20383
 Alpha  occ. eigenvalues --  -10.20313 -10.20290 -10.20220 -10.20187 -10.19661
 Alpha  occ. eigenvalues --  -10.19299 -10.19206 -10.19182 -10.19065 -10.19000
 Alpha  occ. eigenvalues --  -10.18612 -10.17323  -7.92573  -5.89076  -5.88710
 Alpha  occ. eigenvalues --   -5.88000  -1.12465  -1.06726  -1.03628  -1.02839
 Alpha  occ. eigenvalues --   -0.92718  -0.91747  -0.87993  -0.85592  -0.82435
 Alpha  occ. eigenvalues --   -0.80688  -0.77134  -0.76650  -0.75828  -0.74809
 Alpha  occ. eigenvalues --   -0.74475  -0.74272  -0.72041  -0.70437  -0.70157
 Alpha  occ. eigenvalues --   -0.66963  -0.64260  -0.62885  -0.61780  -0.61555
 Alpha  occ. eigenvalues --   -0.60920  -0.60153  -0.59021  -0.58008  -0.56155
 Alpha  occ. eigenvalues --   -0.54772  -0.53776  -0.52923  -0.51802  -0.50188
 Alpha  occ. eigenvalues --   -0.49483  -0.48773  -0.48358  -0.47601  -0.47083
 Alpha  occ. eigenvalues --   -0.46825  -0.46640  -0.45894  -0.45787  -0.45097
 Alpha  occ. eigenvalues --   -0.44753  -0.44521  -0.43738  -0.43379  -0.43257
 Alpha  occ. eigenvalues --   -0.42730  -0.42465  -0.42052  -0.41646  -0.40920
 Alpha  occ. eigenvalues --   -0.40247  -0.39722  -0.39606  -0.39113  -0.38879
 Alpha  occ. eigenvalues --   -0.38509  -0.38363  -0.37513  -0.37389  -0.36779
 Alpha  occ. eigenvalues --   -0.36639  -0.36311  -0.36000  -0.35697  -0.35182
 Alpha  occ. eigenvalues --   -0.34623  -0.34254  -0.34076  -0.33968  -0.33184
 Alpha  occ. eigenvalues --   -0.33090  -0.32338  -0.29201  -0.27488  -0.26512
 Alpha  occ. eigenvalues --   -0.25950  -0.25526  -0.25127  -0.24876  -0.23993
 Alpha  occ. eigenvalues --   -0.22751  -0.20575
 Alpha virt. eigenvalues --   -0.04118  -0.02072  -0.01677  -0.01141  -0.00791
 Alpha virt. eigenvalues --    0.00170   0.02555   0.05220   0.07086   0.08174
 Alpha virt. eigenvalues --    0.08709   0.08713   0.09617   0.09718   0.09976

 Mulliken charges:
               1
     1  C   -0.535319
     2  C    0.602764
     3  O   -0.518125
     4  N   -0.578085
     5  C   -0.061788
     6  C   -0.412010
     7  S   -0.090509
     8  C    0.644572
     9  O   -0.481742
    10  O   -0.453253
    11  C   -0.153783
    12  C    0.466285
    13  O   -0.453067
    14  C   -0.142235
    15  C   -0.314282
    16  C    0.046831
    17  C   -0.475018
    18  N   -0.369304
    19  C   -0.302292
    20  C   -0.305241
    21  C    0.141232
    22  C   -0.172997
    23  C   -0.134757
    24  C   -0.125921
    25  C   -0.134346
    26  C   -0.199349
    27  C    0.103478
    28  C   -0.193800
    29  C   -0.131829
    30  C   -0.125155
    31  C   -0.131425
    32  C   -0.169618
    33  H    0.185117
    34  H    0.191533
    35  H    0.149115
    36  H    0.341219
    37  H    0.202685
    38  H    0.200814
    39  H    0.191459
    40  H    0.127380
    41  H    0.215952
    42  H    0.188611
    43  H    0.141395
    44  H    0.165256
    45  H    0.154974
    46  H    0.163833
    47  H    0.137054
    48  H    0.158602
    49  H    0.144588
    50  H    0.119458
    51  H    0.159415
    52  H    0.151502
    53  H    0.112124
    54  H    0.151251
    55  H    0.134800
    56  H    0.130884
    57  H    0.130812
    58  H    0.133019
    59  H    0.176382
    60  H    0.136028
    61  H    0.136245
    62  H    0.137021
    63  H    0.140853
    64  H    0.150709
 Sum of Mulliken charges =  -0.00000

 Dipole moment (field-independent basis, Debye):
    X=             -5.0107    Y=              3.7457    Z=             -0.5869  Tot=              6.2835
 Quadrupole moment (field-independent basis, Debye-Ang):
   XX=           -206.5618   YY=           -197.4262   ZZ=           -188.5961
   XY=              9.7613   XZ=             11.2151   YZ=             -0.5819

 Normal termination of Gaussian 16 at Fri Nov  4 20:13:45 2022.
