 Gaussian 16, Revision B.01,
 Gaussian 16:  ES64L-G16RevB.01 20-Dec-2017

 -----------------------------
 #p b3lyp/6-31g(d) opt SCF=XQC
 -----------------------------

 ------------------------------
 Gaussian input prepared by ASE
 ------------------------------
 Symbolic Z-matrix:
 Charge =  0 Multiplicity = 1

 SCF Done:  E(RB3LYP) =  -694.324762846     A.U. after   13 cycles
 SCF Done:  E(RB3LYP) =  -694.328623838     A.U. after   12 cycles
 SCF Done:  E(RB3LYP) =  -694.328950564     A.U. after   11 cycles
 SCF Done:  E(RB3LYP) =  -694.329056527     A.U. after   10 cycles
 SCF Done:  E(RB3LYP) =  -694.329137711     A.U. after   11 cycles
 SCF Done:  E(RB3LYP) =  -694.329234560     A.U. after   11 cycles
 SCF Done:  E(RB3LYP) =  -694.329365525     A.U. after   11 cycles
 SCF Done:  E(RB3LYP) =  -694.329486231     A.U. after   10 cycles
 SCF Done:  E(RB3LYP) =  -694.329558250     A.U. after   11 cycles
 SCF Done:  E(RB3LYP) =  -694.329579012     A.U. after   10 cycles
 SCF Done:  E(RB3LYP) =  -694.329750594     A.U. after    9 cycles
 SCF Done:  E(RB3LYP) =  -694.329754645     A.U. after   10 cycles
 SCF Done:  E(RB3LYP) =  -694.329753276     A.U. after    9 cycles
 SCF Done:  E(RB3LYP) =  -694.329756693     A.U. after   10 cycles
 SCF Done:  E(RB3LYP) =  -694.329758120     A.U. after    9 cycles
 SCF Done:  E(RB3LYP) =  -694.329758621     A.U. after    8 cycles
 SCF Done:  E(RB3LYP) =  -694.329731953     A.U. after   11 cycles
 SCF Done:  E(RB3LYP) =  -694.329761476     A.U. after   11 cycles
 SCF Done:  E(RB3LYP) =  -694.329761872     A.U. after    7 cycles
 SCF Done:  E(RB3LYP) =  -694.329762065     A.U. after    9 cycles
 Optimization completed.
    -- Stationary point found.

                         Standard orientation:
 ---------------------------------------------------------------------
 Center     Atomic      Atomic             Coordinates (Angstroms)
 Number     Number       Type             X           Y           Z
 ---------------------------------------------------------------------
      1          6           0       -1.183110    2.107188   -1.331512
      2          6           0       -1.140636    1.234535   -0.063695
      3          6           0       -2.374591    0.338204   -0.017570
      4          6           0       -2.450027   -0.818458   -0.805868
      5          6           0       -3.601581   -1.605182   -0.806256
      6          6           0       -4.699824   -1.246040   -0.020663
      7          6           0       -4.634284   -0.097411    0.768569
      8          6           0       -3.477587    0.685303    0.770002
      9          7           0        0.084073    0.434783   -0.000701
     10          6           0        0.227642   -0.315406    1.259376
     11          6           0        1.718228   -0.716770    1.318334
     12          6           0        2.411891    0.103997    0.179235
     13          6           0        2.771717   -0.787092   -1.028633
     14          6           0        4.143296   -1.357177   -0.639364
     15          6           0        4.818433   -0.170229    0.078349
     16          7           0        3.710765    0.708833    0.510356
     17          6           0        1.343994    1.164457   -0.141179
     18          1           0       -2.148180    2.619470   -1.395306
     19          1           0       -1.064899    1.487909   -2.227447
     20          1           0       -0.397223    2.869198   -1.327348
     21          1           0       -1.190449    1.916951    0.811266
     22          1           0       -1.588431   -1.100585   -1.404344
     23          1           0       -3.642443   -2.501481   -1.420387
     24          1           0       -5.597020   -1.859569   -0.020862
     25          1           0       -5.480308    0.187852    1.388809
     26          1           0       -3.430008    1.576690    1.392465
     27          1           0       -0.029211    0.322428    2.127623
     28          1           0       -0.455347   -1.169264    1.275545
     29          1           0        1.861533   -1.794484    1.184501
     30          1           0        2.148812   -0.457578    2.292447
     31          1           0        2.863419   -0.165052   -1.927821
     32          1           0        2.013147   -1.549390   -1.224574
     33          1           0        4.019950   -2.200473    0.051463
     34          1           0        4.719721   -1.718472   -1.497146
     35          1           0        5.480517    0.376148   -0.608504
     36          1           0        5.439186   -0.502678    0.921188
     37          1           0        3.774324    0.957819    1.492246
     38          1           0        1.469530    1.575048   -1.145891
     39          1           0        1.428140    2.004690    0.579739
 ---------------------------------------------------------------------

 The electronic state is 1-A.
 Alpha  occ. eigenvalues --  -14.31654 -14.30620 -10.21392 -10.21129 -10.20108
 Alpha  occ. eigenvalues --  -10.19833 -10.19333 -10.18604 -10.18388 -10.18325
 Alpha  occ. eigenvalues --  -10.18251 -10.18183 -10.17899 -10.17837 -10.17647
 Alpha  occ. eigenvalues --  -10.17432 -10.17216  -0.93111  -0.90022  -0.84568
 Alpha  occ. eigenvalues --   -0.78739  -0.75544  -0.73928  -0.73518  -0.72438
 Alpha  occ. eigenvalues --   -0.70575  -0.65490  -0.61584  -0.59855  -0.58774
 Alpha  occ. eigenvalues --   -0.58013  -0.55355  -0.54388  -0.51137  -0.49786
 Alpha  occ. eigenvalues --   -0.47520  -0.46965  -0.45935  -0.44728  -0.43576
 Alpha  occ. eigenvalues --   -0.42801  -0.41965  -0.41180  -0.40754  -0.39536
 Alpha  occ. eigenvalues --   -0.38990  -0.38104  -0.37186  -0.36460  -0.35853
 Alpha  occ. eigenvalues --   -0.35383  -0.35110  -0.34101  -0.33576  -0.33367
 Alpha  occ. eigenvalues --   -0.32916  -0.32174  -0.31223  -0.30628  -0.24253
 Alpha  occ. eigenvalues --   -0.23604  -0.20876  -0.20576
 Alpha virt. eigenvalues --    0.00513   0.00656   0.06992   0.09676   0.09980
 Alpha virt. eigenvalues --    0.10937   0.11578   0.12696   0.13087   0.13810
 Alpha virt. eigenvalues --    0.15083   0.15309   0.15590   0.16045   0.16291

 Mulliken charges:
               1
     1  C   -0.457703
     2  C    0.003507
     3  C    0.144395
     4  C   -0.170008
     5  C   -0.131704
     6  C   -0.129913
     7  C   -0.129633
     8  C   -0.188320
     9  N   -0.421829
    10  C   -0.116227
    11  C   -0.322827
    12  C    0.238088
    13  C   -0.281337
    14  C   -0.294570
    15  C   -0.111889
    16  N   -0.602289
    17  C   -0.119389
    18  H    0.151171
    19  H    0.154761
    20  H    0.150289
    21  H    0.100579
    22  H    0.138867
    23  H    0.126170
    24  H    0.125574
    25  H    0.126052
    26  H    0.121498
    27  H    0.110693
    28  H    0.152314
    29  H    0.142965
    30  H    0.127142
    31  H    0.139227
    32  H    0.147115
    33  H    0.137674
    34  H    0.139343
    35  H    0.137301
    36  H    0.125330
    37  H    0.289630
    38  H    0.144761
    39  H    0.103191
 Sum of Mulliken charges =  -0.00000

 Dipole moment (field-independent basis, Debye):
    X=              0.4521    Y=             -0.5499    Z=              0.8569  Tot=              1.1140
 Quadrupole moment (field-independent basis, Debye-Ang):
   XX=           -100.0446   YY=           -102.1164   ZZ=           -101.1534
   XY=             -2.6371   XZ=              0.8648   YZ=              2.5332

 1\1\GINC-NODE59\FOpt\RB3LYP\6-31G(d)\C15H22N2\WYKGROUP\04-Nov-2022\0\\
 #p b3lyp/6-31g(d) opt SCF=XQC\\Gaussian input prepared by ASE\\0,1\C,-
 1.3401113872,-2.487158197,-0.2154486994\C,-1.2864045827,-1.0419911218,
 -0.7439318376\C,-2.5568381853,-0.3008459362,-0.337874266\C,-2.71611370
 78,0.186794344,0.9666596964\C,-3.9011993716,0.8127520868,1.3523535559\
 C,-4.9496761208,0.9582374543,0.4403183356\C,-4.8006043824,0.4775567412
 ,-0.8609323322\C,-3.6105249765,-0.1444539578,-1.2448657118\N,-0.097625
 5275,-0.3359339018,-0.2625034604\C,0.0622268256,1.0062081255,-0.849266

 Normal termination of Gaussian 16 at Fri Nov  4 19:31:32 2022.
