 Gaussian 16, Revision B.01,
 Gaussian 16:  ES64L-G16RevB.01 20-Dec-2017

 -------------------------------------------------------------------
 #p b3lyp/6-31g(d) 6D 10F nosymm GFInput td=(50-50,nstate=2) SCF=XQC
 -------------------------------------------------------------------

 ------------------------------
 Gaussian input prepared by ASE
 ------------------------------
 Symbolic Z-matrix:
 Charge =  0 Multiplicity = 1

                          Input orientation:
 ---------------------------------------------------------------------
 Center     Atomic      Atomic             Coordinates (Angstroms)
 Number     Number       Type             X           Y           Z
 ---------------------------------------------------------------------
      1          6           0       -1.340111   -2.487158   -0.215449
      2          6           0       -1.286405   -1.041991   -0.743932
      3          6           0       -2.556838   -0.300846   -0.337874
      4          6           0       -2.716114    0.186794    0.966660
      5          6           0       -3.901199    0.812752    1.352354
      6          6           0       -4.949676    0.958237    0.440318
      7          6           0       -4.800604    0.477557   -0.860932
      8          6           0       -3.610525   -0.144454   -1.244866
      9          7           0       -0.097626   -0.335934   -0.262503
     10          6           0        0.062227    1.006208   -0.849267
     11          6           0        1.534273    1.388455   -0.578377
     12          6           0        2.218167    0.070166   -0.081610
     13          6           0        2.488562    0.104709    1.437651
     14          6           0        3.847421    0.813818    1.529417
     15          6           0        4.603841    0.268978    0.300293
     16          7           0        3.555325   -0.214258   -0.623505
     17          6           0        1.187398   -0.995202   -0.494105
     18          1           0       -2.282775   -2.955462   -0.515347
     19          1           0       -1.286076   -2.497614    0.878695
     20          1           0       -0.520991   -3.095819   -0.611514
     21          1           0       -1.270149   -1.094235   -1.853317
     22          1           0       -1.892863    0.083265    1.667842
     23          1           0       -4.007193    1.188974    2.366948
     24          1           0       -5.873020    1.446464    0.741068
     25          1           0       -5.607298    0.591313   -1.580748
     26          1           0       -3.497716   -0.511762   -2.263028
     27          1           0       -0.130467    0.983609   -1.939687
     28          1           0       -0.657528    1.703001   -0.410813
     29          1           0        1.623150    2.192730    0.159971
     30          1           0        2.014858    1.745551   -1.496529
     31          1           0        2.572215   -0.921124    1.817848
     32          1           0        1.689007    0.603205    1.991847
     33          1           0        3.713810    1.899439    1.444684
     34          1           0        4.372043    0.621176    2.470826
     35          1           0        5.261919   -0.564562    0.584539
     36          1           0        5.242193    1.035755   -0.158830
     37          1           0        3.669405    0.150586   -1.563728
     38          1           0        1.291018   -1.908943    0.095920
     39          1           0        1.338338   -1.263381   -1.560919
 ---------------------------------------------------------------------

 SCF Done:  E(RB3LYP) =  -694.329768567     A.U. after   13 cycles

 Excitation energies and oscillator strengths:

 Excited state symmetry could not be determined.
 Excited State   1:      Triplet-?Sym    3.7508 eV  330.55 nm  f=0.0000  <S**2>=2.000
      60 -> 64         0.23554
      60 -> 65        -0.40789
      61 -> 64         0.46415
      61 -> 65         0.23730
 This state for optimization and/or second-order correction.
 Total Energy, E(TD-HF/TD-DFT) =  -694.191929612
 Copying the excited state density for this state as the 1-particle RhoCI density.

 Excited state symmetry could not be determined.
 Excited State   2:      Triplet-?Sym    4.6884 eV  264.45 nm  f=0.0000  <S**2>=2.000
      60 -> 64        -0.34468
      60 -> 65        -0.16132
      61 -> 64        -0.23123
      61 -> 65         0.51857
      62 -> 65        -0.15648

 Excited state symmetry could not be determined.
 Excited State   3:      Singlet-?Sym    5.0108 eV  247.43 nm  f=0.0013  <S**2>=0.000
      62 -> 64         0.66488
      62 -> 65         0.19324
      63 -> 64        -0.12706

 Excited state symmetry could not be determined.
 Excited State   4:      Singlet-?Sym    5.0933 eV  243.42 nm  f=0.0014  <S**2>=0.000
      62 -> 64        -0.19279
      62 -> 65         0.66162
      63 -> 65        -0.13254

 Alpha  occ. eigenvalues --  -14.31654 -14.30620 -10.21392 -10.21129 -10.20108
 Alpha  occ. eigenvalues --  -10.19833 -10.19333 -10.18604 -10.18389 -10.18325
 Alpha  occ. eigenvalues --  -10.18251 -10.18183 -10.17899 -10.17837 -10.17647
 Alpha  occ. eigenvalues --  -10.17432 -10.17216  -0.93111  -0.90022  -0.84568
 Alpha  occ. eigenvalues --   -0.78739  -0.75544  -0.73928  -0.73518  -0.72438
 Alpha  occ. eigenvalues --   -0.70575  -0.65490  -0.61584  -0.59855  -0.58774
 Alpha  occ. eigenvalues --   -0.58013  -0.55355  -0.54388  -0.51137  -0.49786
 Alpha  occ. eigenvalues --   -0.47520  -0.46965  -0.45935  -0.44728  -0.43576
 Alpha  occ. eigenvalues --   -0.42801  -0.41965  -0.41180  -0.40754  -0.39536
 Alpha  occ. eigenvalues --   -0.38990  -0.38104  -0.37186  -0.36460  -0.35853
 Alpha  occ. eigenvalues --   -0.35383  -0.35110  -0.34101  -0.33577  -0.33367
 Alpha  occ. eigenvalues --   -0.32916  -0.32174  -0.31223  -0.30628  -0.24253
 Alpha  occ. eigenvalues --   -0.23604  -0.20876  -0.20577
 Alpha virt. eigenvalues --    0.00513   0.00656   0.06992   0.09676   0.09980
 Alpha virt. eigenvalues --    0.10937   0.11578   0.12696   0.13087   0.13810
 Alpha virt. eigenvalues --    0.15083   0.15309   0.15590   0.16045   0.16291

 Mulliken charges:
               1
     1  C   -0.457706
     2  C    0.003505
     3  C    0.144408
     4  C   -0.170021
     5  C   -0.131701
     6  C   -0.129913
     7  C   -0.129638
     8  C   -0.188316
     9  N   -0.421809
    10  C   -0.116247
    11  C   -0.322805
    12  C    0.238017
    13  C   -0.281317
    14  C   -0.294555
    15  C   -0.111888
    16  N   -0.602274
    17  C   -0.119387
    18  H    0.151172
    19  H    0.154763
    20  H    0.150288
    21  H    0.100579
    22  H    0.138868
    23  H    0.126170
    24  H    0.125575
    25  H    0.126054
    26  H    0.121498
    27  H    0.110696
    28  H    0.152318
    29  H    0.142966
    30  H    0.127142
    31  H    0.139228
    32  H    0.147110
    33  H    0.137668
    34  H    0.139340
    35  H    0.137299
    36  H    0.125329
    37  H    0.289631
    38  H    0.144762
    39  H    0.103194
 Sum of Mulliken charges =  -0.00000

 Dipole moment (field-independent basis, Debye):
    X=              0.4607    Y=              0.9501    Z=             -0.3553  Tot=              1.1140
 Quadrupole moment (field-independent basis, Debye-Ang):
   XX=           -100.3961   YY=           -104.0754   ZZ=            -98.9814
   XY=              2.4972   XZ=              0.8091   YZ=              0.5352

 Normal termination of Gaussian 16 at Sat Nov  5 11:49:16 2022.
