 Gaussian 16, Revision B.01,
 Gaussian 16:  ES64L-G16RevB.01 20-Dec-2017

 -----------------------------
 #p b3lyp/6-31g(d) opt SCF=XQC
 -----------------------------

 ------------------------------
 Gaussian input prepared by ASE
 ------------------------------
 Symbolic Z-matrix:
 Charge =  0 Multiplicity = 1

 SCF Done:  E(RB3LYP) =  -1550.86396253     A.U. after   14 cycles
 SCF Done:  E(RB3LYP) =  -1550.87144940     A.U. after   14 cycles
 SCF Done:  E(RB3LYP) =  -1550.87135195     A.U. after   14 cycles
 SCF Done:  E(RB3LYP) =  -1550.87611441     A.U. after   12 cycles
 SCF Done:  E(RB3LYP) =  -1550.87673199     A.U. after   12 cycles
 SCF Done:  E(RB3LYP) =  -1550.87709012     A.U. after   12 cycles
 SCF Done:  E(RB3LYP) =  -1550.87734579     A.U. after   12 cycles
 SCF Done:  E(RB3LYP) =  -1550.87759271     A.U. after   11 cycles
 SCF Done:  E(RB3LYP) =  -1550.87774890     A.U. after   11 cycles
 SCF Done:  E(RB3LYP) =  -1550.87781673     A.U. after   11 cycles
 SCF Done:  E(RB3LYP) =  -1550.87791335     A.U. after    9 cycles
 SCF Done:  E(RB3LYP) =  -1550.87791388     A.U. after    9 cycles
 SCF Done:  E(RB3LYP) =  -1550.87791417     A.U. after    9 cycles
 SCF Done:  E(RB3LYP) =  -1550.87791436     A.U. after    7 cycles
 SCF Done:  E(RB3LYP) =  -1550.87791441     A.U. after    6 cycles
 SCF Done:  E(RB3LYP) =  -1550.87791444     A.U. after    6 cycles
 SCF Done:  E(RB3LYP) =  -1550.87791445     A.U. after    7 cycles
 SCF Done:  E(RB3LYP) =  -1550.87791447     A.U. after    6 cycles
 SCF Done:  E(RB3LYP) =  -1550.87791449     A.U. after    6 cycles
 SCF Done:  E(RB3LYP) =  -1550.87791451     A.U. after    6 cycles
 Optimization completed.
    -- Stationary point found.

                         Standard orientation:
 ---------------------------------------------------------------------
 Center     Atomic      Atomic             Coordinates (Angstroms)
 Number     Number       Type             X           Y           Z
 ---------------------------------------------------------------------
      1          6           0        6.302740    2.050144   -0.481580
      2          6           0        6.441001    0.553427   -0.674134
      3          6           0        7.721569    0.015345   -0.838606
      4          6           0        7.906929   -1.351122   -1.039221
      5          6           0        6.801084   -2.191927   -1.082304
      6          6           0        5.499928   -1.693040   -0.920188
      7          6           0        4.352664   -2.683961   -0.975641
      8          6           0        5.314149   -0.306658   -0.707598
      9          6           0        3.915862    0.263545   -0.538520
     10          6           0        3.203798   -0.072443    0.808687
     11          7           0        1.823391    0.377799    0.792213
     12          6           0        0.851631   -0.254061    0.095629
     13          8           0        1.058448   -1.240961   -0.614456
     14          6           0       -0.549156    0.373969    0.185235
     15          6           0       -0.651465    1.535656   -0.849394
     16          6           0       -1.974876    2.265664   -0.812647
     17          6           0       -2.152093    3.377392    0.021791
     18          6           0       -3.375864    4.043789    0.077615
     19          6           0       -4.446632    3.605982   -0.704149
     20          6           0       -4.282957    2.500701   -1.540732
     21          6           0       -3.055472    1.838793   -1.595252
     22          7           0       -1.519574   -0.670458   -0.065797
     23          6           0       -2.560726   -0.902284    0.784441
     24          8           0       -2.882472   -0.185465    1.718381
     25          8           0       -3.197493   -2.049531    0.423657
     26          6           0       -4.379028   -2.391196    1.190242
     27          6           0       -5.643531   -1.903921    0.523746
     28          6           0       -6.006689   -0.550339    0.587650
     29          6           0       -7.172141   -0.104688   -0.034805
     30          6           0       -7.991654   -1.003495   -0.722924
     31          6           0       -7.638372   -2.351707   -0.789264
     32          6           0       -6.468436   -2.796035   -0.170338
     33          6           0        3.859339    0.608896    2.022795
     34          7           0        5.049390    0.085332    2.419411
     35          8           0        3.315344    1.545469    2.599967
     36          1           0        5.755160    2.519953   -1.308354
     37          1           0        5.770992    2.307492    0.441753
     38          1           0        7.288672    2.522309   -0.435668
     39          1           0        8.581718    0.680026   -0.815159
     40          1           0        8.907829   -1.754252   -1.169073
     41          1           0        6.937270   -3.257680   -1.251818
     42          1           0        3.383579   -2.230679   -1.194535
     43          1           0        4.244947   -3.217118   -0.020736
     44          1           0        4.549016   -3.446858   -1.736894
     45          1           0        3.920867    1.350606   -0.646651
     46          1           0        3.258570   -0.124830   -1.321913
     47          1           0        3.219200   -1.157903    0.953328
     48          1           0        1.618934    1.135479    1.437349
     49          1           0       -0.738628    0.768850    1.187858
     50          1           0       -0.476583    1.108634   -1.844340
     51          1           0        0.168709    2.237537   -0.653348
     52          1           0       -1.321875    3.726265    0.632910
     53          1           0       -3.492171    4.905815    0.729366
     54          1           0       -5.400311    4.125904   -0.664481
     55          1           0       -5.110185    2.151439   -2.152870
     56          1           0       -2.934454    0.979218   -2.249064
     57          1           0       -1.203485   -1.430157   -0.657956
     58          1           0       -4.269378   -1.972226    2.192717
     59          1           0       -4.365375   -3.482413    1.245970
     60          1           0       -5.366375    0.146283    1.120566
     61          1           0       -7.443670    0.946228    0.022243
     62          1           0       -8.902338   -0.654360   -1.202915
     63          1           0       -8.270970   -3.056974   -1.322037
     64          1           0       -6.193668   -3.847335   -0.225237
     65          1           0        5.571669   -0.531805    1.811753
     66          1           0        5.559662    0.589200    3.132860
 ---------------------------------------------------------------------

 The electronic state is 1-A.
 Alpha  occ. eigenvalues --  -19.17444 -19.13451 -19.12520 -19.11019 -14.37242
 Alpha  occ. eigenvalues --  -14.36733 -14.35003 -10.32260 -10.30763 -10.29446
 Alpha  occ. eigenvalues --  -10.24837 -10.23606 -10.23444 -10.20615 -10.20540
 Alpha  occ. eigenvalues --  -10.20403 -10.20152 -10.19510 -10.19489 -10.19195
 Alpha  occ. eigenvalues --  -10.19152 -10.19113 -10.18981 -10.18854 -10.18522
 Alpha  occ. eigenvalues --  -10.18497 -10.18435 -10.18282 -10.18251 -10.18238
 Alpha  occ. eigenvalues --  -10.18173 -10.18143 -10.18118 -10.17957 -10.17871
 Alpha  occ. eigenvalues --   -1.08872  -1.05455  -1.04153  -0.99761  -0.93355
 Alpha  occ. eigenvalues --   -0.92279  -0.92214  -0.86778  -0.84813  -0.84625
 Alpha  occ. eigenvalues --   -0.80125  -0.78722  -0.78544  -0.76322  -0.75417
 Alpha  occ. eigenvalues --   -0.73668  -0.73492  -0.72806  -0.70619  -0.68692
 Alpha  occ. eigenvalues --   -0.68323  -0.66746  -0.64960  -0.61319  -0.59882
 Alpha  occ. eigenvalues --   -0.59726  -0.59507  -0.58851  -0.58103  -0.57662
 Alpha  occ. eigenvalues --   -0.57447  -0.57233  -0.56155  -0.54061  -0.51016
 Alpha  occ. eigenvalues --   -0.50709  -0.50578  -0.50282  -0.49657  -0.47906
 Alpha  occ. eigenvalues --   -0.47278  -0.46767  -0.46396  -0.45970  -0.45793
 Alpha  occ. eigenvalues --   -0.45158  -0.44434  -0.44233  -0.44038  -0.43180
 Alpha  occ. eigenvalues --   -0.42790  -0.42570  -0.41936  -0.41788  -0.41405
 Alpha  occ. eigenvalues --   -0.41205  -0.41075  -0.40943  -0.40627  -0.40335
 Alpha  occ. eigenvalues --   -0.40156  -0.39696  -0.39028  -0.38623  -0.38453
 Alpha  occ. eigenvalues --   -0.37474  -0.37070  -0.36106  -0.36018  -0.34856
 Alpha  occ. eigenvalues --   -0.34706  -0.34553  -0.34254  -0.33887  -0.33561
 Alpha  occ. eigenvalues --   -0.33315  -0.33141  -0.32965  -0.28975  -0.28388
 Alpha  occ. eigenvalues --   -0.27622  -0.27067  -0.26730  -0.26133  -0.25148
 Alpha  occ. eigenvalues --   -0.24437  -0.24409  -0.24336  -0.24101  -0.23821
 Alpha  occ. eigenvalues --   -0.23160
 Alpha virt. eigenvalues --   -0.01410  -0.00698  -0.00258   0.00067   0.00565
 Alpha virt. eigenvalues --    0.00890   0.00903   0.02419   0.06122   0.06972
 Alpha virt. eigenvalues --    0.08647   0.09212   0.09770   0.10055   0.10527

 Mulliken charges:
               1
     1  C   -0.545827
     2  C    0.131915
     3  C   -0.192964
     4  C   -0.121820
     5  C   -0.181416
     6  C    0.116506
     7  C   -0.558565
     8  C    0.014138
     9  C   -0.362555
    10  C   -0.035987
    11  N   -0.623974
    12  C    0.624175
    13  O   -0.542421
    14  C   -0.059864
    15  C   -0.356896
    16  C    0.184418
    17  C   -0.173783
    18  C   -0.125342
    19  C   -0.131618
    20  C   -0.128559
    21  C   -0.171694
    22  N   -0.617328
    23  C    0.808279
    24  O   -0.525187
    25  O   -0.489057
    26  C   -0.139324
    27  C    0.154086
    28  C   -0.183380
    29  C   -0.133900
    30  C   -0.127657
    31  C   -0.128848
    32  C   -0.179355
    33  C    0.589578
    34  N   -0.747626
    35  O   -0.518826
    36  H    0.168881
    37  H    0.167136
    38  H    0.157659
    39  H    0.124100
    40  H    0.131357
    41  H    0.125657
    42  H    0.202867
    43  H    0.160599
    44  H    0.160407
    45  H    0.155521
    46  H    0.192943
    47  H    0.185013
    48  H    0.357801
    49  H    0.184098
    50  H    0.156304
    51  H    0.146653
    52  H    0.119389
    53  H    0.127666
    54  H    0.125201
    55  H    0.131496
    56  H    0.128980
    57  H    0.351740
    58  H    0.182555
    59  H    0.149953
    60  H    0.172768
    61  H    0.130232
    62  H    0.127294
    63  H    0.127768
    64  H    0.124806
    65  H    0.357916
    66  H    0.345913
 Sum of Mulliken charges =  -0.00000

 Dipole moment (field-independent basis, Debye):
    X=              4.2790    Y=             -0.5087    Z=             -0.7426  Tot=              4.3727
 Quadrupole moment (field-independent basis, Debye-Ang):
   XX=           -164.0904   YY=           -195.3669   ZZ=           -210.0678
   XY=             -0.9338   XZ=             11.4730   YZ=             -2.3657

 Normal termination of Gaussian 16 at Fri Nov  4 19:52:47 2022.
