 Gaussian 16, Revision B.01,
 Gaussian 16:  ES64L-G16RevB.01 20-Dec-2017

 -------------------------------------------------------------------
 #p b3lyp/6-31g(d) 6D 10F nosymm GFInput td=(50-50,nstate=2) SCF=XQC
 -------------------------------------------------------------------

 ------------------------------
 Gaussian input prepared by ASE
 ------------------------------
 Symbolic Z-matrix:
 Charge =  0 Multiplicity = 1

                          Input orientation:
 ---------------------------------------------------------------------
 Center     Atomic      Atomic             Coordinates (Angstroms)
 Number     Number       Type             X           Y           Z
 ---------------------------------------------------------------------
      1          6           0       -6.283212    1.517636   -0.348676
      2          6           0       -6.322889    0.091863    0.163138
      3          6           0       -7.568224   -0.504933    0.385428
      4          6           0       -7.664841   -1.806294    0.874264
      5          6           0       -6.505055   -2.520531    1.150783
      6          6           0       -5.236496   -1.959591    0.940349
      7          6           0       -4.025228   -2.813622    1.263885
      8          6           0       -5.140182   -0.641417    0.435470
      9          6           0       -3.779744   -0.004351    0.206815
     10          6           0       -2.962954   -0.562053   -1.000128
     11          7           0       -1.622990   -0.003023   -1.022309
     12          6           0       -0.652437   -0.384028   -0.161114
     13          8           0       -0.829795   -1.207795    0.739396
     14          6           0        0.701327    0.326692   -0.324988
     15          6           0        0.653882    1.689159    0.431236
     16          6           0        1.919873    2.503910    0.292931
     17          6           0        2.066297    3.419647   -0.757600
     18          6           0        3.238958    4.159916   -0.904866
     19          6           0        4.288546    3.994511    0.000881
     20          6           0        4.154994    3.086661    1.052679
     21          6           0        2.978389    2.350159    1.197520
     22          7           0        1.728392   -0.552111    0.193084
     23          6           0        2.834356   -0.872920   -0.538058
     24          8           0        3.159786   -0.350487   -1.591981
     25          8           0        3.530068   -1.856386    0.094864
     26          6           0        4.778653   -2.253961   -0.524313
     27          6           0        5.960314   -1.528101    0.073540
     28          6           0        6.226396   -0.194539   -0.271375
     29          6           0        7.315243    0.472870    0.288366
     30          6           0        8.154369   -0.182559    1.193486
     31          6           0        7.897572   -1.509530    1.540027
     32          6           0        6.803947   -2.175271    0.983233
     33          6           0       -3.590360   -0.218001   -2.362482
     34          7           0       -4.711947   -0.914404   -2.686074
     35          8           0       -3.081912    0.614303   -3.107449
     36          1           0       -5.823798    2.200137    0.377445
     37          1           0       -5.715681    1.613379   -1.281558
     38          1           0       -7.296406    1.882943   -0.541281
     39          1           0       -8.471737    0.063185    0.177795
     40          1           0       -8.639563   -2.255513    1.045426
     41          1           0       -6.572873   -3.531968    1.545126
     42          1           0       -3.107432   -2.242858    1.420042
     43          1           0       -3.819794   -3.529653    0.455925
     44          1           0       -4.211776   -3.407564    2.165276
     45          1           0       -3.871206    1.075875    0.072035
     46          1           0       -3.145450   -0.156544    1.084928
     47          1           0       -2.889664   -1.650363   -0.902180
     48          1           0       -1.435176    0.611666   -1.809053
     49          1           0        0.922972    0.509884   -1.380638
     50          1           0        0.449593    1.474288    1.487146
     51          1           0       -0.201893    2.259507    0.048993
     52          1           0        1.252117    3.555979   -1.466801
     53          1           0        3.331779    4.867150   -1.724988
     54          1           0        5.202113    4.572815   -0.110279
     55          1           0        4.966164    2.949918    1.762826
     56          1           0        2.880571    1.645354    2.018901
     57          1           0        1.432887   -1.189736    0.923712
     58          1           0        4.700782   -2.072784   -1.598383
     59          1           0        4.848607   -3.328476   -0.338385
     60          1           0        5.570879    0.313104   -0.972717
     61          1           0        7.511911    1.505745    0.012871
     62          1           0        9.005523    0.338448    1.624437
     63          1           0        8.546052   -2.026269    2.242795
     64          1           0        6.604216   -3.209261    1.256576
     65          1           0       -5.224112   -1.427584   -1.980940
     66          1           0       -5.212704   -0.622226   -3.515015
 ---------------------------------------------------------------------

 SCF Done:  E(RB3LYP) =  -1550.87791721     A.U. after   14 cycles

 Excitation energies and oscillator strengths:

 Excited state symmetry could not be determined.
 Excited State   1:      Triplet-?Sym    3.6406 eV  340.56 nm  f=0.0000  <S**2>=2.000
     118 ->127         0.12285
     121 ->127        -0.15400
     121 ->128         0.45317
     122 ->127         0.10300
     122 ->128         0.13570
     123 ->127         0.42649
 This state for optimization and/or second-order correction.
 Total Energy, E(TD-HF/TD-DFT) =  -1550.74412582
 Copying the excited state density for this state as the 1-particle RhoCI density.

 Excited state symmetry could not be determined.
 Excited State   2:      Triplet-?Sym    4.5060 eV  275.16 nm  f=0.0000  <S**2>=2.000
     121 ->127         0.51974
     121 ->128        -0.18762
     122 ->127         0.19086
     123 ->127         0.21110
     123 ->128         0.28100

 Excited state symmetry could not be determined.
 Excited State   3:      Singlet-?Sym    5.2028 eV  238.30 nm  f=0.0018  <S**2>=0.000
     121 ->127         0.48184
     121 ->128         0.12462
     122 ->127         0.15224
     122 ->128        -0.10535
     123 ->127         0.11837
     123 ->128        -0.42010

 Excited state symmetry could not be determined.
 Excited State   4:      Singlet-?Sym    5.3764 eV  230.61 nm  f=0.0001  <S**2>=0.000
     122 ->130         0.12945
     124 ->129        -0.10620
     124 ->130         0.21673
     125 ->129        -0.17437
     125 ->130         0.28919
     125 ->132        -0.11769
     126 ->129        -0.11294
     126 ->131         0.24224
     126 ->132        -0.22386
     126 ->133         0.32512

 Alpha  occ. eigenvalues --  -19.17444 -19.13451 -19.12520 -19.11019 -14.37242
 Alpha  occ. eigenvalues --  -14.36733 -14.35003 -10.32260 -10.30763 -10.29446
 Alpha  occ. eigenvalues --  -10.24837 -10.23606 -10.23444 -10.20615 -10.20540
 Alpha  occ. eigenvalues --  -10.20403 -10.20152 -10.19509 -10.19489 -10.19195
 Alpha  occ. eigenvalues --  -10.19152 -10.19113 -10.18981 -10.18854 -10.18522
 Alpha  occ. eigenvalues --  -10.18497 -10.18435 -10.18282 -10.18251 -10.18238
 Alpha  occ. eigenvalues --  -10.18173 -10.18143 -10.18118 -10.17957 -10.17871
 Alpha  occ. eigenvalues --   -1.08872  -1.05455  -1.04153  -0.99761  -0.93355
 Alpha  occ. eigenvalues --   -0.92279  -0.92214  -0.86778  -0.84813  -0.84625
 Alpha  occ. eigenvalues --   -0.80125  -0.78722  -0.78544  -0.76322  -0.75417
 Alpha  occ. eigenvalues --   -0.73668  -0.73492  -0.72806  -0.70619  -0.68692
 Alpha  occ. eigenvalues --   -0.68323  -0.66746  -0.64960  -0.61319  -0.59882
 Alpha  occ. eigenvalues --   -0.59726  -0.59507  -0.58851  -0.58103  -0.57662
 Alpha  occ. eigenvalues --   -0.57447  -0.57233  -0.56155  -0.54061  -0.51016
 Alpha  occ. eigenvalues --   -0.50709  -0.50578  -0.50282  -0.49657  -0.47906
 Alpha  occ. eigenvalues --   -0.47278  -0.46767  -0.46396  -0.45970  -0.45793
 Alpha  occ. eigenvalues --   -0.45158  -0.44434  -0.44233  -0.44038  -0.43180
 Alpha  occ. eigenvalues --   -0.42790  -0.42570  -0.41936  -0.41788  -0.41405
 Alpha  occ. eigenvalues --   -0.41205  -0.41075  -0.40943  -0.40627  -0.40335
 Alpha  occ. eigenvalues --   -0.40156  -0.39696  -0.39028  -0.38623  -0.38453
 Alpha  occ. eigenvalues --   -0.37474  -0.37070  -0.36106  -0.36018  -0.34856
 Alpha  occ. eigenvalues --   -0.34706  -0.34553  -0.34254  -0.33887  -0.33561
 Alpha  occ. eigenvalues --   -0.33315  -0.33141  -0.32965  -0.28975  -0.28388
 Alpha  occ. eigenvalues --   -0.27622  -0.27067  -0.26730  -0.26133  -0.25148
 Alpha  occ. eigenvalues --   -0.24437  -0.24409  -0.24336  -0.24101  -0.23821
 Alpha  occ. eigenvalues --   -0.23160
 Alpha virt. eigenvalues --   -0.01410  -0.00698  -0.00258   0.00067   0.00565
 Alpha virt. eigenvalues --    0.00890   0.00903   0.02419   0.06122   0.06972
 Alpha virt. eigenvalues --    0.08647   0.09211   0.09770   0.10055   0.10526

 Mulliken charges:
               1
     1  C   -0.545824
     2  C    0.131900
     3  C   -0.192959
     4  C   -0.121823
     5  C   -0.181413
     6  C    0.116508
     7  C   -0.558565
     8  C    0.014133
     9  C   -0.362524
    10  C   -0.036014
    11  N   -0.623963
    12  C    0.624163
    13  O   -0.542420
    14  C   -0.059847
    15  C   -0.356888
    16  C    0.184396
    17  C   -0.173779
    18  C   -0.125337
    19  C   -0.131628
    20  C   -0.128547
    21  C   -0.171688
    22  N   -0.617344
    23  C    0.808284
    24  O   -0.525193
    25  O   -0.489052
    26  C   -0.139324
    27  C    0.154087
    28  C   -0.183393
    29  C   -0.133895
    30  C   -0.127659
    31  C   -0.128848
    32  C   -0.179351
    33  C    0.589600
    34  N   -0.747636
    35  O   -0.518827
    36  H    0.168883
    37  H    0.167137
    38  H    0.157660
    39  H    0.124100
    40  H    0.131357
    41  H    0.125657
    42  H    0.202866
    43  H    0.160600
    44  H    0.160408
    45  H    0.155515
    46  H    0.192939
    47  H    0.185015
    48  H    0.357803
    49  H    0.184097
    50  H    0.156303
    51  H    0.146648
    52  H    0.119393
    53  H    0.127666
    54  H    0.125201
    55  H    0.131494
    56  H    0.128978
    57  H    0.351742
    58  H    0.182554
    59  H    0.149953
    60  H    0.172771
    61  H    0.130235
    62  H    0.127295
    63  H    0.127768
    64  H    0.124805
    65  H    0.357916
    66  H    0.345913
 Sum of Mulliken charges =  -0.00000

 Dipole moment (field-independent basis, Debye):
    X=             -4.2679    Y=             -0.6985    Z=              0.6463  Tot=              4.3727
 Quadrupole moment (field-independent basis, Debye-Ang):
   XX=           -167.4195   YY=           -194.1939   ZZ=           -209.4186
   XY=              6.0452   XZ=             13.4941   YZ=              0.2633

 Normal termination of Gaussian 16 at Sat Nov  5 12:04:37 2022.
