 Gaussian 16, Revision B.01,
 Gaussian 16:  ES64L-G16RevB.01 20-Dec-2017

 -------------------------------------------------------------------
 #p b3lyp/6-31g(d) 6D 10F nosymm GFInput td=(50-50,nstate=2) SCF=XQC
 -------------------------------------------------------------------

 ------------------------------
 Gaussian input prepared by ASE
 ------------------------------
 Symbolic Z-matrix:
 Charge =  0 Multiplicity = 1

                          Input orientation:
 ---------------------------------------------------------------------
 Center     Atomic      Atomic             Coordinates (Angstroms)
 Number     Number       Type             X           Y           Z
 ---------------------------------------------------------------------
      1          6           0        2.957687   -0.986822   -2.597041
      2          6           0        2.972330   -0.891137   -1.070655
      3          8           0        4.330846   -0.969415   -0.670666
      4          6           0        4.677264   -0.681222    0.617199
      5          6           0        3.779489   -0.299221    1.622722
      6          6           0        4.257458   -0.007684    2.898100
      7          6           0        5.626829   -0.092798    3.186126
      8          6           0        6.110686    0.211965    4.498771
      9          7           0        6.505210    0.462188    5.564705
     10          6           0        6.520163   -0.481987    2.169155
     11          6           0        6.049014   -0.772360    0.899742
     12          6           0        2.162616   -2.045459   -0.465775
     13          8           0        2.608186   -3.109413   -0.119857
     14          8           0        0.845963   -1.714765   -0.414830
     15          6           0       -0.048449   -2.748961    0.055573
     16          6           0       -1.498780   -2.265405    0.078218
     17          8           0       -2.359094   -3.049552    0.453514
     18          7           0       -1.693753   -0.979033   -0.330633
     19          6           0       -2.900874   -0.246018   -0.421610
     20          6           0       -4.149608   -0.784593   -0.073576
     21          6           0       -5.296408    0.005711   -0.184765
     22          6           0       -5.205898    1.320827   -0.632956
     23          6           0       -3.955909    1.852740   -0.979226
     24          6           0       -2.806477    1.079355   -0.878836
     25          6           0       -4.102564    3.282815   -1.457234
     26          6           0       -5.508731    3.680428   -0.939465
     27          6           0       -6.297429    2.348855   -0.846996
     28          1           0        3.539141   -0.163674   -3.021099
     29          1           0        3.402778   -1.933545   -2.916384
     30          1           0        1.932079   -0.928744   -2.973043
     31          1           0        2.532068    0.062110   -0.752222
     32          1           0        2.714364   -0.231142    1.433844
     33          1           0        3.563096    0.286522    3.678459
     34          1           0        7.581102   -0.552915    2.385669
     35          1           0        6.722951   -1.074102    0.105004
     36          1           0        0.240197   -3.056730    1.064107
     37          1           0        0.023854   -3.625361   -0.594201
     38          1           0       -0.856028   -0.484041   -0.607781
     39          1           0       -4.207101   -1.803852    0.281806
     40          1           0       -6.258469   -0.420107    0.090533
     41          1           0       -1.834599    1.493891   -1.144103
     42          1           0       -4.064521    3.322301   -2.556086
     43          1           0       -3.311682    3.947396   -1.090590
     44          1           0       -6.000329    4.424703   -1.573460
     45          1           0       -5.413750    4.113638    0.063293
     46          1           0       -7.048326    2.357139   -0.048679
     47          1           0       -6.836592    2.147469   -1.784771
 ---------------------------------------------------------------------

 SCF Done:  E(RB3LYP) =  -1222.69427923     A.U. after   15 cycles

 Excitation energies and oscillator strengths:

 Excited state symmetry could not be determined.
 Excited State   1:      Triplet-?Sym    3.3685 eV  368.07 nm  f=0.0000  <S**2>=2.000
      92 -> 98        -0.20737
      92 -> 99         0.12865
      95 -> 97         0.64443
 This state for optimization and/or second-order correction.
 Total Energy, E(TD-HF/TD-DFT) =  -1222.57048975
 Copying the excited state density for this state as the 1-particle RhoCI density.

 Excited state symmetry could not be determined.
 Excited State   2:      Triplet-?Sym    3.4488 eV  359.50 nm  f=0.0000  <S**2>=2.000
      94 ->101         0.31049
      96 -> 99         0.42770
      96 ->100         0.39238
      96 ->101         0.10812
      96 ->102        -0.15271

 Excited state symmetry could not be determined.
 Excited State   3:      Singlet-?Sym    4.4939 eV  275.89 nm  f=0.0001  <S**2>=0.000
      96 -> 97         0.70564

 Excited state symmetry could not be determined.
 Excited State   4:      Singlet-?Sym    4.6859 eV  264.59 nm  f=0.0222  <S**2>=0.000
      96 -> 98         0.68691
      96 -> 99         0.12333

 Alpha  occ. eigenvalues --  -19.23162 -19.20950 -19.17053 -19.13183 -14.38906
 Alpha  occ. eigenvalues --  -14.33101 -10.34649 -10.31050 -10.29040 -10.28034
 Alpha  occ. eigenvalues --  -10.27347 -10.24190 -10.23661 -10.22533 -10.22510
 Alpha  occ. eigenvalues --  -10.22282 -10.21808 -10.21490 -10.21197 -10.19774
 Alpha  occ. eigenvalues --  -10.19604 -10.19474 -10.19174 -10.19158 -10.19093
 Alpha  occ. eigenvalues --  -10.18969 -10.18671  -1.13824  -1.09851  -1.05613
 Alpha  occ. eigenvalues --   -1.04549  -0.95432  -0.90373  -0.87938  -0.87088
 Alpha  occ. eigenvalues --   -0.82888  -0.81268  -0.78118  -0.77745  -0.76492
 Alpha  occ. eigenvalues --   -0.75658  -0.71893  -0.70025  -0.68723  -0.65534
 Alpha  occ. eigenvalues --   -0.64202  -0.62631  -0.62524  -0.60087  -0.58455
 Alpha  occ. eigenvalues --   -0.57293  -0.56635  -0.55458  -0.55065  -0.53549
 Alpha  occ. eigenvalues --   -0.52218  -0.50671  -0.50298  -0.48876  -0.47688
 Alpha  occ. eigenvalues --   -0.47555  -0.47099  -0.46037  -0.45763  -0.44901
 Alpha  occ. eigenvalues --   -0.43643  -0.43595  -0.42894  -0.42733  -0.42231
 Alpha  occ. eigenvalues --   -0.41595  -0.41231  -0.41006  -0.40890  -0.40586
 Alpha  occ. eigenvalues --   -0.39771  -0.38501  -0.37531  -0.37281  -0.36584
 Alpha  occ. eigenvalues --   -0.35588  -0.35516  -0.35441  -0.34732  -0.34580
 Alpha  occ. eigenvalues --   -0.33477  -0.33328  -0.32764  -0.32683  -0.30387
 Alpha  occ. eigenvalues --   -0.30061  -0.27988  -0.26792  -0.24929  -0.24461
 Alpha  occ. eigenvalues --   -0.21978
 Alpha virt. eigenvalues --   -0.04328  -0.03279  -0.02147  -0.01730  -0.00683
 Alpha virt. eigenvalues --    0.03853   0.03890   0.05625   0.07191   0.08221
 Alpha virt. eigenvalues --    0.08609   0.09282   0.09375   0.10782   0.11082

 Mulliken charges:
               1
     1  C   -0.467038
     2  C    0.054498
     3  O   -0.515351
     4  C    0.401739
     5  C   -0.193990
     6  C   -0.144898
     7  C    0.127140
     8  C    0.230998
     9  N   -0.480171
    10  C   -0.137078
    11  C   -0.180372
    12  C    0.626332
    13  O   -0.445480
    14  O   -0.501262
    15  C   -0.122770
    16  C    0.576255
    17  O   -0.498850
    18  N   -0.723536
    19  C    0.360768
    20  C   -0.167424
    21  C   -0.215962
    22  C    0.141435
    23  C    0.132920
    24  C   -0.274889
    25  C   -0.348899
    26  C   -0.281731
    27  C   -0.348162
    28  H    0.179405
    29  H    0.185416
    30  H    0.164819
    31  H    0.160042
    32  H    0.145840
    33  H    0.162851
    34  H    0.163089
    35  H    0.157309
    36  H    0.204996
    37  H    0.202401
    38  H    0.348300
    39  H    0.184665
    40  H    0.131537
    41  H    0.114345
    42  H    0.152911
    43  H    0.146721
    44  H    0.139205
    45  H    0.149549
    46  H    0.149917
    47  H    0.152461
 Sum of Mulliken charges =  -0.00000

 Dipole moment (field-independent basis, Debye):
    X=             -2.1572    Y=              3.0088    Z=             -6.2869  Tot=              7.2959
 Quadrupole moment (field-independent basis, Debye-Ang):
   XX=           -171.5377   YY=           -164.5202   ZZ=           -181.8745
   XY=            -11.1392   XZ=            -31.7808   YZ=             -2.2477

 Normal termination of Gaussian 16 at Sat Nov  5 11:50:00 2022.
