 Gaussian 16, Revision B.01,
 Gaussian 16:  ES64L-G16RevB.01 20-Dec-2017

 -----------------------------
 #p b3lyp/6-31g(d) opt SCF=XQC
 -----------------------------

 ------------------------------
 Gaussian input prepared by ASE
 ------------------------------
 Symbolic Z-matrix:
 Charge =  0 Multiplicity = 1

 SCF Done:  E(RB3LYP) =  -1222.67921893     A.U. after   15 cycles
 SCF Done:  E(RB3LYP) =  -1222.68365260     A.U. after   14 cycles
 SCF Done:  E(RB3LYP) =  -1222.67666236     A.U. after   15 cycles
 SCF Done:  E(RB3LYP) =  -1222.68870806     A.U. after   13 cycles
 SCF Done:  E(RB3LYP) =  -1222.69056113     A.U. after   13 cycles
 SCF Done:  E(RB3LYP) =  -1222.69158575     A.U. after   13 cycles
 SCF Done:  E(RB3LYP) =  -1222.69233392     A.U. after   13 cycles
 SCF Done:  E(RB3LYP) =  -1222.69296954     A.U. after   13 cycles
 SCF Done:  E(RB3LYP) =  -1222.69323779     A.U. after   13 cycles
 SCF Done:  E(RB3LYP) =  -1222.69328630     A.U. after   11 cycles
 SCF Done:  E(RB3LYP) =  -1222.69424138     A.U. after   12 cycles
 SCF Done:  E(RB3LYP) =  -1222.69428039     A.U. after   13 cycles
 SCF Done:  E(RB3LYP) =  -1222.69425186     A.U. after   13 cycles
 SCF Done:  E(RB3LYP) =  -1222.69428321     A.U. after   12 cycles
 SCF Done:  E(RB3LYP) =  -1222.69427624     A.U. after   11 cycles
 SCF Done:  E(RB3LYP) =  -1222.69428375     A.U. after   12 cycles
 SCF Done:  E(RB3LYP) =  -1222.69428255     A.U. after   10 cycles
 SCF Done:  E(RB3LYP) =  -1222.69428396     A.U. after   11 cycles
 SCF Done:  E(RB3LYP) =  -1222.69428407     A.U. after    9 cycles
 SCF Done:  E(RB3LYP) =  -1222.69428410     A.U. after    7 cycles
 Optimization completed.
    -- Stationary point found.

                         Standard orientation:
 ---------------------------------------------------------------------
 Center     Atomic      Atomic             Coordinates (Angstroms)
 Number     Number       Type             X           Y           Z
 ---------------------------------------------------------------------
      1          6           0       -1.765795   -2.116539    2.739924
      2          6           0       -2.160651   -1.204971    1.577015
      3          8           0       -3.567417   -1.039110    1.649009
      4          6           0       -4.179842   -0.092626    0.880399
      5          6           0       -3.521798    0.766236   -0.009733
      6          6           0       -4.255107    1.710051   -0.724931
      7          6           0       -5.644188    1.809322   -0.563756
      8          6           0       -6.390412    2.784582   -1.299998
      9          7           0       -6.997412    3.578857   -1.895946
     10          6           0       -6.296333    0.938152    0.330399
     11          6           0       -5.570838   -0.001370    1.043605
     12          6           0       -1.759371   -1.851864    0.244919
     13          8           0       -2.464534   -2.551318   -0.436036
     14          8           0       -0.464321   -1.560058   -0.043566
     15          6           0        0.074086   -2.180285   -1.233629
     16          6           0        1.530923   -1.777035   -1.463440
     17          8           0        2.107025   -2.238997   -2.438414
     18          7           0        2.055090   -0.922786   -0.538544
     19          6           0        3.356051   -0.369739   -0.472459
     20          6           0        4.351998   -0.644508   -1.422785
     21          6           0        5.611392   -0.053812   -1.292018
     22          6           0        5.880304    0.806002   -0.230414
     23          6           0        4.881502    1.076158    0.715481
     24          6           0        3.625490    0.493797    0.602849
     25          6           0        5.403879    2.013757    1.784661
     26          6           0        6.674107    2.614986    1.130037
     27          6           0        7.157109    1.540624    0.122001
     28          1           0       -2.057686   -1.651234    3.685321
     29          1           0       -2.275723   -3.079938    2.649336
     30          1           0       -0.684628   -2.282922    2.744060
     31          1           0       -1.653885   -0.236547    1.673212
     32          1           0       -2.450176    0.709738   -0.162157
     33          1           0       -3.747078    2.374725   -1.416143
     34          1           0       -7.371713    1.007267    0.458002
     35          1           0       -6.057109   -0.680399    1.735926
     36          1           0       -0.518432   -1.886309   -2.104078
     37          1           0        0.016596   -3.268398   -1.142980
     38          1           0        1.422516   -0.650114    0.202477
     39          1           0        4.129489   -1.306399   -2.247940
     40          1           0        6.374862   -0.270731   -2.035478
     41          1           0        2.848054    0.706815    1.335632
     42          1           0        5.661662    1.448893    2.692933
     43          1           0        4.678408    2.778754    2.084762
     44          1           0        7.440280    2.889001    1.861788
     45          1           0        6.400727    3.525305    0.583413
     46          1           0        7.662362    1.974709   -0.748351
     47          1           0        7.876657    0.855635    0.594988
 ---------------------------------------------------------------------

 The electronic state is 1-A.
 Alpha  occ. eigenvalues --  -19.23162 -19.20950 -19.17053 -19.13183 -14.38906
 Alpha  occ. eigenvalues --  -14.33102 -10.34649 -10.31050 -10.29040 -10.28034
 Alpha  occ. eigenvalues --  -10.27347 -10.24190 -10.23661 -10.22533 -10.22510
 Alpha  occ. eigenvalues --  -10.22282 -10.21808 -10.21490 -10.21198 -10.19774
 Alpha  occ. eigenvalues --  -10.19604 -10.19474 -10.19174 -10.19158 -10.19093
 Alpha  occ. eigenvalues --  -10.18969 -10.18671  -1.13824  -1.09851  -1.05613
 Alpha  occ. eigenvalues --   -1.04549  -0.95432  -0.90373  -0.87938  -0.87088
 Alpha  occ. eigenvalues --   -0.82888  -0.81268  -0.78118  -0.77745  -0.76492
 Alpha  occ. eigenvalues --   -0.75658  -0.71893  -0.70025  -0.68723  -0.65534
 Alpha  occ. eigenvalues --   -0.64202  -0.62631  -0.62524  -0.60087  -0.58455
 Alpha  occ. eigenvalues --   -0.57293  -0.56635  -0.55458  -0.55065  -0.53549
 Alpha  occ. eigenvalues --   -0.52218  -0.50671  -0.50298  -0.48876  -0.47688
 Alpha  occ. eigenvalues --   -0.47555  -0.47099  -0.46037  -0.45763  -0.44901
 Alpha  occ. eigenvalues --   -0.43643  -0.43595  -0.42894  -0.42733  -0.42231
 Alpha  occ. eigenvalues --   -0.41595  -0.41231  -0.41006  -0.40890  -0.40586
 Alpha  occ. eigenvalues --   -0.39771  -0.38501  -0.37531  -0.37281  -0.36584
 Alpha  occ. eigenvalues --   -0.35588  -0.35516  -0.35441  -0.34732  -0.34580
 Alpha  occ. eigenvalues --   -0.33477  -0.33328  -0.32764  -0.32683  -0.30387
 Alpha  occ. eigenvalues --   -0.30061  -0.27988  -0.26792  -0.24929  -0.24461
 Alpha  occ. eigenvalues --   -0.21978
 Alpha virt. eigenvalues --   -0.04328  -0.03279  -0.02147  -0.01730  -0.00683
 Alpha virt. eigenvalues --    0.03853   0.03890   0.05625   0.07191   0.08221
 Alpha virt. eigenvalues --    0.08609   0.09282   0.09375   0.10783   0.11082

 Mulliken charges:
               1
     1  C   -0.467037
     2  C    0.054495
     3  O   -0.515344
     4  C    0.401709
     5  C   -0.193969
     6  C   -0.144899
     7  C    0.127138
     8  C    0.231000
     9  N   -0.480173
    10  C   -0.137073
    11  C   -0.180365
    12  C    0.626324
    13  O   -0.445475
    14  O   -0.501256
    15  C   -0.122776
    16  C    0.576252
    17  O   -0.498855
    18  N   -0.723531
    19  C    0.360784
    20  C   -0.167431
    21  C   -0.215968
    22  C    0.141424
    23  C    0.132925
    24  C   -0.274896
    25  C   -0.348885
    26  C   -0.281745
    27  C   -0.348150
    28  H    0.179404
    29  H    0.185415
    30  H    0.164819
    31  H    0.160044
    32  H    0.145835
    33  H    0.162852
    34  H    0.163088
    35  H    0.157307
    36  H    0.204998
    37  H    0.202402
    38  H    0.348300
    39  H    0.184665
    40  H    0.131537
    41  H    0.114346
    42  H    0.152911
    43  H    0.146719
    44  H    0.139206
    45  H    0.149550
    46  H    0.149917
    47  H    0.152461
 Sum of Mulliken charges =  -0.00000

 Dipole moment (field-independent basis, Debye):
    X=              4.2300    Y=             -0.9218    Z=              5.8726  Tot=              7.2959
 Quadrupole moment (field-independent basis, Debye-Ang):
   XX=           -179.1404   YY=           -172.4334   ZZ=           -159.1694
   XY=             28.0425   XZ=            -13.2992   YZ=              0.4675

 Normal termination of Gaussian 16 at Fri Nov  4 20:15:43 2022.
