 Gaussian 16, Revision B.01,
 Gaussian 16:  ES64L-G16RevB.01 20-Dec-2017

 -----------------------------
 #p b3lyp/6-31g(d) opt SCF=XQC
 -----------------------------

 ------------------------------
 Gaussian input prepared by ASE
 ------------------------------
 Symbolic Z-matrix:
 Charge =  0 Multiplicity = 1

 SCF Done:  E(RB3LYP) =  -860.658619004     A.U. after   15 cycles
 SCF Done:  E(RB3LYP) =  -860.662458218     A.U. after   12 cycles
 SCF Done:  E(RB3LYP) =  -860.662519737     A.U. after   12 cycles
 SCF Done:  E(RB3LYP) =  -860.662931159     A.U. after   12 cycles
 SCF Done:  E(RB3LYP) =  -860.662981873     A.U. after   11 cycles
 SCF Done:  E(RB3LYP) =  -860.662992967     A.U. after   10 cycles
 SCF Done:  E(RB3LYP) =  -860.662996853     A.U. after    9 cycles
 SCF Done:  E(RB3LYP) =  -860.663000080     A.U. after    9 cycles
 SCF Done:  E(RB3LYP) =  -860.663002028     A.U. after    9 cycles
 SCF Done:  E(RB3LYP) =  -860.663002949     A.U. after    9 cycles
 SCF Done:  E(RB3LYP) =  -860.663590760     A.U. after   10 cycles
 SCF Done:  E(RB3LYP) =  -860.663590972     A.U. after    9 cycles
 SCF Done:  E(RB3LYP) =  -860.663605750     A.U. after   10 cycles
 SCF Done:  E(RB3LYP) =  -860.663613535     A.U. after   11 cycles
 SCF Done:  E(RB3LYP) =  -860.663615038     A.U. after    8 cycles
 SCF Done:  E(RB3LYP) =  -860.663615752     A.U. after    8 cycles
 SCF Done:  E(RB3LYP) =  -860.663615984     A.U. after    7 cycles
 SCF Done:  E(RB3LYP) =  -860.663616243     A.U. after    7 cycles
 SCF Done:  E(RB3LYP) =  -860.663616385     A.U. after    7 cycles
 SCF Done:  E(RB3LYP) =  -860.663616453     A.U. after    7 cycles
 Optimization completed.
    -- Stationary point found.

                         Standard orientation:
 ---------------------------------------------------------------------
 Center     Atomic      Atomic             Coordinates (Angstroms)
 Number     Number       Type             X           Y           Z
 ---------------------------------------------------------------------
      1          6           0        2.431424   -2.492585    1.697870
      2          6           0        2.862361   -2.235655    0.240334
      3          6           0        3.298289   -0.806690   -0.028034
      4          6           0        4.663357   -0.506923   -0.070673
      5          6           0        5.129114    0.789793   -0.282525
      6          6           0        4.206608    1.818445   -0.461773
      7          6           0        2.837923    1.558999   -0.430881
      8          6           0        2.375110    0.251844   -0.212118
      9          7           0        0.997095   -0.065851   -0.191120
     10          6           0       -0.099291    0.767410   -0.228523
     11          8           0        0.004149    2.001900   -0.210466
     12          6           0       -1.420971    0.083187   -0.265321
     13          6           0       -1.575888   -1.232393   -0.724594
     14          7           0       -2.710456   -1.925442   -0.761869
     15          6           0       -3.819391   -1.292579   -0.317819
     16          6           0       -5.089893   -2.103623   -0.340595
     17          6           0       -3.812009    0.025123    0.119211
     18          6           0       -2.610395    0.770968    0.140181
     19          7           0       -2.579300    2.065516    0.540565
     20          6           0       -3.746267    2.828419    0.925857
     21          1           0        2.137261   -3.538816    1.838386
     22          1           0        3.256361   -2.273768    2.384012
     23          1           0        1.585879   -1.861471    1.994068
     24          1           0        2.054922   -2.538614   -0.443634
     25          1           0        3.698651   -2.901402   -0.000920
     26          1           0        5.374817   -1.318600    0.065589
     27          1           0        6.196460    0.990001   -0.309945
     28          1           0        4.546481    2.836756   -0.630865
     29          1           0        2.120376    2.354926   -0.564992
     30          1           0        0.787637   -1.043073   -0.062341
     31          1           0       -0.712029   -1.760418   -1.130296
     32          1           0       -5.949401   -1.531252    0.020391
     33          1           0       -5.298920   -2.450062   -1.359044
     34          1           0       -4.977168   -2.998857    0.281765
     35          1           0       -4.739658    0.487529    0.436613
     36          1           0       -1.693140    2.536536    0.383377
     37          1           0       -4.243661    2.392375    1.802019
     38          1           0       -4.484982    2.902274    0.114565
     39          1           0       -3.424938    3.838716    1.188373
 ---------------------------------------------------------------------

 The electronic state is 1-A.
 Alpha  occ. eigenvalues --  -19.12543 -14.37671 -14.35234 -14.31237 -10.30173
 Alpha  occ. eigenvalues --  -10.24858 -10.23357 -10.22778 -10.22575 -10.22559
 Alpha  occ. eigenvalues --  -10.19941 -10.19928 -10.19627 -10.18614 -10.18563
 Alpha  occ. eigenvalues --  -10.18472 -10.18389 -10.18169 -10.17978 -10.17820
 Alpha  occ. eigenvalues --   -1.04254  -0.94998  -0.94386  -0.92583  -0.84768
 Alpha  occ. eigenvalues --   -0.79513  -0.78839  -0.77976  -0.74297  -0.72510
 Alpha  occ. eigenvalues --   -0.70444  -0.70324  -0.64447  -0.63814  -0.62196
 Alpha  occ. eigenvalues --   -0.60388  -0.58638  -0.57101  -0.54327  -0.52025
 Alpha  occ. eigenvalues --   -0.51681  -0.48918  -0.47833  -0.46678  -0.45657
 Alpha  occ. eigenvalues --   -0.45142  -0.44924  -0.44037  -0.43277  -0.42666
 Alpha  occ. eigenvalues --   -0.42285  -0.42146  -0.41288  -0.41037  -0.40091
 Alpha  occ. eigenvalues --   -0.39517  -0.38202  -0.37932  -0.37253  -0.36199
 Alpha  occ. eigenvalues --   -0.35800  -0.35281  -0.34392  -0.33301  -0.32132
 Alpha  occ. eigenvalues --   -0.30424  -0.26892  -0.25378  -0.24503  -0.24131
 Alpha  occ. eigenvalues --   -0.22151  -0.20857
 Alpha virt. eigenvalues --   -0.04080  -0.00148   0.00337   0.01026   0.06059
 Alpha virt. eigenvalues --    0.06745   0.09409   0.09956   0.11236   0.11956
 Alpha virt. eigenvalues --    0.13055   0.13952   0.14297   0.14724   0.14923

 Mulliken charges:
               1
     1  C   -0.439732
     2  C   -0.374274
     3  C    0.136098
     4  C   -0.201685
     5  C   -0.119748
     6  C   -0.148404
     7  C   -0.157450
     8  C    0.292010
     9  N   -0.749475
    10  C    0.606050
    11  O   -0.559402
    12  C   -0.004744
    13  C   -0.034800
    14  N   -0.490800
    15  C    0.310459
    16  C   -0.506005
    17  C   -0.247147
    18  C    0.376644
    19  N   -0.665815
    20  C   -0.301561
    21  H    0.150597
    22  H    0.158254
    23  H    0.151574
    24  H    0.140972
    25  H    0.155347
    26  H    0.122228
    27  H    0.125627
    28  H    0.130005
    29  H    0.182515
    30  H    0.345776
    31  H    0.130789
    32  H    0.146903
    33  H    0.173247
    34  H    0.171295
    35  H    0.127750
    36  H    0.376462
    37  H    0.162757
    38  H    0.160515
    39  H    0.167166
 Sum of Mulliken charges =  -0.00000

 Dipole moment (field-independent basis, Debye):
    X=             -0.8622    Y=              0.2169    Z=              1.4157  Tot=              1.6717
 Quadrupole moment (field-independent basis, Debye-Ang):
   XX=           -100.9034   YY=           -113.7384   ZZ=           -121.3882
   XY=            -11.0313   XZ=             -3.5283   YZ=             -0.3578

 Normal termination of Gaussian 16 at Fri Nov  4 19:30:32 2022.
