 Gaussian 16, Revision B.01,
 Gaussian 16:  ES64L-G16RevB.01 20-Dec-2017

 -------------------------------------------------------------------
 #p b3lyp/6-31g(d) 6D 10F nosymm GFInput td=(50-50,nstate=2) SCF=XQC
 -------------------------------------------------------------------

 ------------------------------
 Gaussian input prepared by ASE
 ------------------------------
 Symbolic Z-matrix:
 Charge =  0 Multiplicity = 1

                          Input orientation:
 ---------------------------------------------------------------------
 Center     Atomic      Atomic             Coordinates (Angstroms)
 Number     Number       Type             X           Y           Z
 ---------------------------------------------------------------------
      1          6           0       -2.634804   -1.812190   -1.991067
      2          6           0       -2.792564   -2.210175   -0.510238
      3          6           0       -3.234836   -1.069444    0.388163
      4          6           0       -4.579298   -0.977118    0.760974
      5          6           0       -5.055473    0.062251    1.558629
      6          6           0       -4.163992    1.036909    2.001994
      7          6           0       -2.815606    0.977014    1.655824
      8          6           0       -2.343149   -0.069451    0.848108
      9          7           0       -0.981058   -0.185148    0.485317
     10          6           0        0.063009    0.689056    0.693825
     11          8           0       -0.098612    1.806689    1.203498
     12          6           0        1.397670    0.210241    0.240207
     13          6           0        1.697261   -1.150593    0.085097
     14          7           0        2.848911   -1.660017   -0.342854
     15          6           0        3.823102   -0.774962   -0.651176
     16          6           0        5.110738   -1.369670   -1.161863
     17          6           0        3.672329    0.596604   -0.498000
     18          6           0        2.455594    1.139535   -0.023258
     19          7           0        2.289585    2.472619    0.156906
     20          6           0        3.325867    3.459510   -0.053924
     21          1           0       -2.324890   -2.672657   -2.594744
     22          1           0       -3.584163   -1.438797   -2.389173
     23          1           0       -1.890783   -1.019091   -2.126751
     24          1           0       -1.856911   -2.661327   -0.146139
     25          1           0       -3.536347   -3.011798   -0.439602
     26          1           0       -5.265611   -1.746281    0.413232
     27          1           0       -6.106260    0.105709    1.830698
     28          1           0       -4.512028    1.855137    2.626843
     29          1           0       -2.123007    1.733436    1.994188
     30          1           0       -0.755161   -0.997656   -0.066245
     31          1           0        0.951328   -1.895702    0.364473
     32          1           0        5.858856   -0.602544   -1.382116
     33          1           0        5.524999   -2.065105   -0.423141
     34          1           0        4.923191   -1.949714   -2.072828
     35          1           0        4.500603    1.254520   -0.735077
     36          1           0        1.428682    2.732427    0.629337
     37          1           0        3.667401    3.471146   -1.097195
     38          1           0        4.200970    3.292187    0.590707
     39          1           0        2.914454    4.444450    0.177371
 ---------------------------------------------------------------------

 SCF Done:  E(RB3LYP) =  -860.663616395     A.U. after   15 cycles

 Excitation energies and oscillator strengths:

 Excited state symmetry could not be determined.
 Excited State   1:      Triplet-?Sym    3.2427 eV  382.34 nm  f=0.0000  <S**2>=2.000
      70 -> 75        -0.16674
      71 -> 76         0.18287
      72 -> 73         0.62605
 This state for optimization and/or second-order correction.
 Total Energy, E(TD-HF/TD-DFT) =  -860.544447974
 Copying the excited state density for this state as the 1-particle RhoCI density.

 Excited state symmetry could not be determined.
 Excited State   2:      Triplet-?Sym    3.4647 eV  357.85 nm  f=0.0000  <S**2>=2.000
      68 -> 73        -0.13953
      70 -> 75         0.18633
      71 -> 73         0.56349
      72 -> 73         0.16320
      72 -> 76         0.25766

 Excited state symmetry could not be determined.
 Excited State   3:      Singlet-?Sym    3.9509 eV  313.81 nm  f=0.3228  <S**2>=0.000
      71 -> 73         0.15351
      72 -> 73         0.68083

 Excited state symmetry could not be determined.
 Excited State   4:      Singlet-?Sym    4.3849 eV  282.75 nm  f=0.0063  <S**2>=0.000
      69 -> 73         0.63418
      70 -> 73        -0.12857
      71 -> 73         0.23766

 Alpha  occ. eigenvalues --  -19.12543 -14.37671 -14.35234 -14.31237 -10.30173
 Alpha  occ. eigenvalues --  -10.24858 -10.23357 -10.22778 -10.22575 -10.22559
 Alpha  occ. eigenvalues --  -10.19941 -10.19928 -10.19627 -10.18614 -10.18563
 Alpha  occ. eigenvalues --  -10.18472 -10.18389 -10.18169 -10.17978 -10.17820
 Alpha  occ. eigenvalues --   -1.04254  -0.94998  -0.94386  -0.92583  -0.84768
 Alpha  occ. eigenvalues --   -0.79513  -0.78839  -0.77976  -0.74297  -0.72510
 Alpha  occ. eigenvalues --   -0.70444  -0.70324  -0.64447  -0.63814  -0.62196
 Alpha  occ. eigenvalues --   -0.60388  -0.58638  -0.57101  -0.54327  -0.52025
 Alpha  occ. eigenvalues --   -0.51681  -0.48918  -0.47833  -0.46678  -0.45657
 Alpha  occ. eigenvalues --   -0.45142  -0.44924  -0.44037  -0.43277  -0.42666
 Alpha  occ. eigenvalues --   -0.42285  -0.42146  -0.41288  -0.41037  -0.40091
 Alpha  occ. eigenvalues --   -0.39517  -0.38202  -0.37932  -0.37253  -0.36199
 Alpha  occ. eigenvalues --   -0.35800  -0.35281  -0.34392  -0.33301  -0.32132
 Alpha  occ. eigenvalues --   -0.30424  -0.26892  -0.25378  -0.24503  -0.24131
 Alpha  occ. eigenvalues --   -0.22151  -0.20857
 Alpha virt. eigenvalues --   -0.04080  -0.00148   0.00337   0.01026   0.06059
 Alpha virt. eigenvalues --    0.06745   0.09409   0.09956   0.11236   0.11956
 Alpha virt. eigenvalues --    0.13055   0.13951   0.14297   0.14724   0.14923

 Mulliken charges:
               1
     1  C   -0.439728
     2  C   -0.374286
     3  C    0.136094
     4  C   -0.201678
     5  C   -0.119751
     6  C   -0.148407
     7  C   -0.157431
     8  C    0.291995
     9  N   -0.749465
    10  C    0.606053
    11  O   -0.559405
    12  C   -0.004751
    13  C   -0.034793
    14  N   -0.490801
    15  C    0.310463
    16  C   -0.506006
    17  C   -0.247150
    18  C    0.376650
    19  N   -0.665819
    20  C   -0.301560
    21  H    0.150597
    22  H    0.158254
    23  H    0.151573
    24  H    0.140976
    25  H    0.155348
    26  H    0.122228
    27  H    0.125627
    28  H    0.130005
    29  H    0.182510
    30  H    0.345780
    31  H    0.130787
    32  H    0.146902
    33  H    0.173248
    34  H    0.171295
    35  H    0.127748
    36  H    0.376462
    37  H    0.162757
    38  H    0.160514
    39  H    0.167165
 Sum of Mulliken charges =  -0.00000

 Dipole moment (field-independent basis, Debye):
    X=              0.5669    Y=              0.8639    Z=             -1.3142  Tot=              1.6717
 Quadrupole moment (field-independent basis, Debye-Ang):
   XX=           -104.0314   YY=           -112.1668   ZZ=           -120.2504
   XY=             13.2324   XZ=             -1.5266   YZ=              1.1989

 Normal termination of Gaussian 16 at Sat Nov  5 11:47:45 2022.
