 Gaussian 16, Revision B.01,
 Gaussian 16:  ES64L-G16RevB.01 20-Dec-2017

 -------------------------------------------------------------------
 #p b3lyp/6-31g(d) 6D 10F nosymm GFInput td=(50-50,nstate=2) SCF=XQC
 -------------------------------------------------------------------

 ------------------------------
 Gaussian input prepared by ASE
 ------------------------------
 Symbolic Z-matrix:
 Charge =  0 Multiplicity = 1

                          Input orientation:
 ---------------------------------------------------------------------
 Center     Atomic      Atomic             Coordinates (Angstroms)
 Number     Number       Type             X           Y           Z
 ---------------------------------------------------------------------
      1          6           0       -2.753278   -1.444497   -0.953624
      2          6           0       -3.189544   -0.268904   -0.114567
      3          6           0       -4.432408   -0.261662    0.524202
      4          6           0       -4.819299    0.843837    1.282127
      5          7           0       -4.060303    1.932691    1.443097
      6          6           0       -2.871247    1.924571    0.830850
      7          6           0       -2.379315    0.873182    0.050513
      8          6           0       -1.004846    0.985235   -0.568282
      9          7           0       -0.039382    0.172905    0.171561
     10          6           0        1.298974    0.104413   -0.160534
     11          6           0        1.782960    0.624037   -1.379854
     12          6           0        3.123580    0.511954   -1.719333
     13          6           0        3.997447   -0.116560   -0.835683
     14          7           0        5.406421   -0.236699   -1.180722
     15          8           0        5.778551    0.226911   -2.262852
     16          8           0        6.154639   -0.796111   -0.373227
     17          6           0        3.540879   -0.633837    0.380473
     18          6           0        2.203984   -0.535741    0.735940
     19          6           0        1.708446   -1.105512    2.042173
     20          1           0       -2.685048   -1.168416   -2.014084
     21          1           0       -1.763744   -1.803837   -0.652787
     22          1           0       -3.464286   -2.271422   -0.872248
     23          1           0       -5.099529   -1.114574    0.430904
     24          1           0       -5.786162    0.853648    1.782855
     25          1           0       -2.262459    2.819478    0.964516
     26          1           0       -1.027802    0.635184   -1.607426
     27          1           0       -0.696982    2.042404   -0.594965
     28          1           0       -0.256123    0.064786    1.153012
     29          1           0        1.107263    1.122538   -2.065149
     30          1           0        3.502118    0.908945   -2.653178
     31          1           0        4.251661   -1.116564    1.041078
     32          1           0        2.520311   -1.596828    2.584577
     33          1           0        0.913800   -1.847372    1.885247
     34          1           0        1.300725   -0.328183    2.705388
 ---------------------------------------------------------------------

 SCF Done:  E(RB3LYP) =  -857.141502029     A.U. after   15 cycles

 Excitation energies and oscillator strengths:

 Excited state symmetry could not be determined.
 Excited State   1:      Triplet-?Sym    2.7919 eV  444.08 nm  f=0.0000  <S**2>=2.000
      68 -> 69         0.68203
      68 -> 73         0.13088
 This state for optimization and/or second-order correction.
 Total Energy, E(TD-HF/TD-DFT) =  -857.038901274
 Copying the excited state density for this state as the 1-particle RhoCI density.

 Excited state symmetry could not be determined.
 Excited State   2:      Triplet-?Sym    2.9122 eV  425.74 nm  f=0.0000  <S**2>=2.000
      61 -> 69        -0.66657
      61 -> 73         0.18788
      67 -> 69        -0.18614
      61 <- 69        -0.15095

 Excited state symmetry could not be determined.
 Excited State   3:      Singlet-?Sym    3.8078 eV  325.60 nm  f=0.0027  <S**2>=0.000
      65 -> 69         0.69074
      65 -> 73        -0.11325

 Excited state symmetry could not be determined.
 Excited State   4:      Singlet-?Sym    3.9089 eV  317.18 nm  f=0.4311  <S**2>=0.000
      68 -> 69         0.69695

 Alpha  occ. eigenvalues --  -19.16186 -19.16171 -14.55446 -14.37601 -14.34051
 Alpha  occ. eigenvalues --  -10.25509 -10.25035 -10.23615 -10.23501 -10.23346
 Alpha  occ. eigenvalues --  -10.23236 -10.22011 -10.21497 -10.21108 -10.21002
 Alpha  occ. eigenvalues --  -10.20893 -10.20540 -10.20494 -10.20461  -1.20415
 Alpha  occ. eigenvalues --   -1.03045  -0.96627  -0.95171  -0.87690  -0.84113
 Alpha  occ. eigenvalues --   -0.80736  -0.78763  -0.77605  -0.73365  -0.71330
 Alpha  occ. eigenvalues --   -0.71000  -0.67461  -0.63745  -0.62270  -0.60360
 Alpha  occ. eigenvalues --   -0.58288  -0.55112  -0.53504  -0.52023  -0.51607
 Alpha  occ. eigenvalues --   -0.51385  -0.51011  -0.48799  -0.47493  -0.46058
 Alpha  occ. eigenvalues --   -0.45358  -0.44790  -0.44175  -0.43469  -0.43165
 Alpha  occ. eigenvalues --   -0.42638  -0.41937  -0.41405  -0.40082  -0.39798
 Alpha  occ. eigenvalues --   -0.39170  -0.37980  -0.36649  -0.35916  -0.32019
 Alpha  occ. eigenvalues --   -0.29240  -0.29154  -0.28782  -0.27437  -0.27302
 Alpha  occ. eigenvalues --   -0.26616  -0.26521  -0.22302
 Alpha virt. eigenvalues --   -0.07082  -0.03854  -0.02545  -0.01581   0.02087
 Alpha virt. eigenvalues --    0.06624   0.07514   0.09242   0.10151   0.10448
 Alpha virt. eigenvalues --    0.11514   0.12430   0.12834   0.13766   0.14203

 Mulliken charges:
               1
     1  C   -0.538524
     2  C    0.171362
     3  C   -0.193814
     4  C    0.046467
     5  N   -0.409220
     6  C   -0.007986
     7  C    0.046928
     8  C   -0.190654
     9  N   -0.679215
    10  C    0.330757
    11  C   -0.194906
    12  C   -0.166949
    13  C    0.286813
    14  N    0.365251
    15  O   -0.411678
    16  O   -0.412061
    17  C   -0.235351
    18  C    0.149614
    19  C   -0.559395
    20  H    0.172897
    21  H    0.183884
    22  H    0.164411
    23  H    0.136667
    24  H    0.147296
    25  H    0.143107
    26  H    0.165113
    27  H    0.160518
    28  H    0.332475
    29  H    0.142217
    30  H    0.177474
    31  H    0.172341
    32  H    0.176231
    33  H    0.167332
    34  H    0.160599
 Sum of Mulliken charges =  -0.00000

 Dipole moment (field-independent basis, Debye):
    X=             -6.5268    Y=             -1.1817    Z=              0.9182  Tot=              6.6961
 Quadrupole moment (field-independent basis, Debye-Ang):
   XX=           -154.5449   YY=           -111.3568   ZZ=           -110.1351
   XY=             11.4964   XZ=             15.4927   YZ=             -4.8863

 Normal termination of Gaussian 16 at Sat Nov  5 11:41:31 2022.
