 Gaussian 16, Revision B.01,
 Gaussian 16:  ES64L-G16RevB.01 20-Dec-2017

 -----------------------------
 #p b3lyp/6-31g(d) opt SCF=XQC
 -----------------------------

 ------------------------------
 Gaussian input prepared by ASE
 ------------------------------
 Symbolic Z-matrix:
 Charge =  0 Multiplicity = 1

 SCF Done:  E(RB3LYP) =  -857.136465878     A.U. after   15 cycles
 SCF Done:  E(RB3LYP) =  -857.141056222     A.U. after   13 cycles
 SCF Done:  E(RB3LYP) =  -857.141324990     A.U. after   12 cycles
 SCF Done:  E(RB3LYP) =  -857.141396960     A.U. after   13 cycles
 SCF Done:  E(RB3LYP) =  -857.141432874     A.U. after   11 cycles
 SCF Done:  E(RB3LYP) =  -857.141468017     A.U. after   11 cycles
 SCF Done:  E(RB3LYP) =  -857.141493477     A.U. after   12 cycles
 SCF Done:  E(RB3LYP) =  -857.141498525     A.U. after   10 cycles
 SCF Done:  E(RB3LYP) =  -857.141500946     A.U. after    9 cycles
 SCF Done:  E(RB3LYP) =  -857.141501643     A.U. after    9 cycles
 SCF Done:  E(RB3LYP) =  -857.141501857     A.U. after    9 cycles
 SCF Done:  E(RB3LYP) =  -857.141501926     A.U. after    8 cycles
 Optimization completed.
    -- Stationary point found.

                         Standard orientation:
 ---------------------------------------------------------------------
 Center     Atomic      Atomic             Coordinates (Angstroms)
 Number     Number       Type             X           Y           Z
 ---------------------------------------------------------------------
      1          6           0       -2.938298   -0.475932    2.248221
      2          6           0       -3.617064   -0.265422    0.917310
      3          6           0       -4.944520    0.165343    0.845943
      4          6           0       -5.554676    0.337962   -0.396706
      5          7           0       -4.938677    0.110402   -1.561330
      6          6           0       -3.668391   -0.302231   -1.491521
      7          6           0       -2.956455   -0.505888   -0.304924
      8          6           0       -1.514354   -0.953983   -0.369594
      9          7           0       -0.614746    0.163405   -0.084078
     10          6           0        0.760782    0.045239   -0.095720
     11          6           0        1.391409   -1.215920   -0.148448
     12          6           0        2.774476   -1.322117   -0.118140
     13          6           0        3.542891   -0.163118   -0.042186
     14          7           0        4.994727   -0.263172   -0.012951
     15          8           0        5.497836   -1.389977   -0.053073
     16          8           0        5.646118    0.783943    0.050774
     17          6           0        2.939482    1.097316    0.005455
     18          6           0        1.558702    1.224213   -0.019248
     19          6           0        0.906870    2.583391    0.045513
     20          1           0       -2.719515   -1.538745    2.415595
     21          1           0       -1.983921    0.058373    2.298108
     22          1           0       -3.572319   -0.135144    3.071531
     23          1           0       -5.503774    0.364866    1.756239
     24          1           0       -6.588374    0.674737   -0.457526
     25          1           0       -3.177079   -0.489730   -2.446930
     26          1           0       -1.330026   -1.744290    0.368187
     27          1           0       -1.306697   -1.388249   -1.360245
     28          1           0       -0.981764    1.067540   -0.348181
     29          1           0        0.796419   -2.119190   -0.217652
     30          1           0        3.265268   -2.286703   -0.158861
     31          1           0        3.571564    1.975706    0.064940
     32          1           0        1.658763    3.370498    0.144695
     33          1           0        0.222725    2.664423    0.900980
     34          1           0        0.322856    2.806613   -0.859711
 ---------------------------------------------------------------------

 The electronic state is 1-A.
 Alpha  occ. eigenvalues --  -19.16186 -19.16171 -14.55446 -14.37601 -14.34051
 Alpha  occ. eigenvalues --  -10.25509 -10.25035 -10.23615 -10.23501 -10.23346
 Alpha  occ. eigenvalues --  -10.23236 -10.22011 -10.21497 -10.21108 -10.21002
 Alpha  occ. eigenvalues --  -10.20893 -10.20540 -10.20494 -10.20461  -1.20415
 Alpha  occ. eigenvalues --   -1.03045  -0.96627  -0.95171  -0.87690  -0.84113
 Alpha  occ. eigenvalues --   -0.80736  -0.78763  -0.77605  -0.73365  -0.71330
 Alpha  occ. eigenvalues --   -0.71000  -0.67461  -0.63745  -0.62270  -0.60360
 Alpha  occ. eigenvalues --   -0.58288  -0.55112  -0.53504  -0.52023  -0.51607
 Alpha  occ. eigenvalues --   -0.51385  -0.51011  -0.48799  -0.47494  -0.46058
 Alpha  occ. eigenvalues --   -0.45358  -0.44790  -0.44175  -0.43469  -0.43165
 Alpha  occ. eigenvalues --   -0.42638  -0.41937  -0.41405  -0.40082  -0.39798
 Alpha  occ. eigenvalues --   -0.39170  -0.37980  -0.36649  -0.35916  -0.32019
 Alpha  occ. eigenvalues --   -0.29240  -0.29154  -0.28783  -0.27437  -0.27302
 Alpha  occ. eigenvalues --   -0.26616  -0.26521  -0.22302
 Alpha virt. eigenvalues --   -0.07082  -0.03854  -0.02545  -0.01581   0.02087
 Alpha virt. eigenvalues --    0.06624   0.07514   0.09242   0.10151   0.10448
 Alpha virt. eigenvalues --    0.11514   0.12430   0.12834   0.13766   0.14203

 Mulliken charges:
               1
     1  C   -0.538518
     2  C    0.171376
     3  C   -0.193818
     4  C    0.046463
     5  N   -0.409226
     6  C   -0.007953
     7  C    0.046893
     8  C   -0.190651
     9  N   -0.679233
    10  C    0.330777
    11  C   -0.194894
    12  C   -0.166956
    13  C    0.286825
    14  N    0.365247
    15  O   -0.411676
    16  O   -0.412061
    17  C   -0.235360
    18  C    0.149603
    19  C   -0.559391
    20  H    0.172896
    21  H    0.183883
    22  H    0.164410
    23  H    0.136667
    24  H    0.147296
    25  H    0.143106
    26  H    0.165114
    27  H    0.160518
    28  H    0.332475
    29  H    0.142215
    30  H    0.177475
    31  H    0.172341
    32  H    0.176232
    33  H    0.167329
    34  H    0.160599
 Sum of Mulliken charges =  -0.00000

 Dipole moment (field-independent basis, Debye):
    X=             -6.4487    Y=              0.5834    Z=              1.7066  Tot=              6.6962
 Quadrupole moment (field-independent basis, Debye-Ang):
   XX=           -153.4295   YY=           -105.0544   ZZ=           -110.1411
   XY=              2.7223   XZ=            -11.7891   YZ=              0.3870

 Normal termination of Gaussian 16 at Fri Nov  4 18:58:17 2022.
