 Gaussian 16, Revision B.01,
 Gaussian 16:  ES64L-G16RevB.01 20-Dec-2017

 -------------------------------------------------------------------
 #p b3lyp/6-31g(d) 6D 10F nosymm GFInput td=(50-50,nstate=2) SCF=XQC
 -------------------------------------------------------------------

 ------------------------------
 Gaussian input prepared by ASE
 ------------------------------
 Symbolic Z-matrix:
 Charge =  0 Multiplicity = 1

                          Input orientation:
 ---------------------------------------------------------------------
 Center     Atomic      Atomic             Coordinates (Angstroms)
 Number     Number       Type             X           Y           Z
 ---------------------------------------------------------------------
      1          6           0        6.475844    2.107820    2.397430
      2          8           0        6.666368    2.090134    0.993313
      3          6           0        5.653962    1.605160    0.219738
      4          6           0        4.442510    1.110461    0.697069
      5          6           0        3.463699    0.632566   -0.183975
      6          6           0        3.690891    0.639779   -1.557599
      7          6           0        2.636714    0.162699   -2.538931
      8          7           0        1.944947   -1.040297   -2.084636
      9          6           0        0.601409   -1.069465   -1.862380
     10          8           0       -0.166303   -0.161201   -2.153412
     11          6           0        0.080463   -2.398503   -1.277701
     12          6           0       -0.469509   -3.302658   -2.373902
     13          8           0       -1.019710   -2.117059   -0.391874
     14          6           0       -0.712401   -1.420588    0.711529
     15          8           0        0.416507   -1.117190    1.042012
     16          6           0       -1.924114   -0.993455    1.526058
     17          8           0       -3.122028   -1.624986    1.115813
     18          6           0       -4.257012   -0.817470    1.095975
     19          6           0       -4.974732   -0.604813    2.281085
     20          6           0       -4.515546   -1.214975    3.583906
     21          6           0       -6.136636    0.172635    2.215615
     22          6           0       -6.586350    0.728212    1.014657
     23          6           0       -7.826488    1.591572    0.972317
     24          6           0       -5.850921    0.472110   -0.148295
     25          6           0       -4.684254   -0.298822   -0.136517
     26          6           0       -3.924615   -0.592820   -1.407532
     27          6           0        4.915621    1.130037   -2.043309
     28          6           0        5.892815    1.615219   -1.178000
     29          8           0        7.105051    2.107443   -1.562898
     30          6           0        7.394324    2.153631   -2.948608
     31          1           0        6.327419    1.096304    2.799327
     32          1           0        7.390219    2.531767    2.816799
     33          1           0        5.620691    2.735466    2.682406
     34          1           0        4.244240    1.093014    1.762681
     35          1           0        2.528632    0.252063    0.217371
     36          1           0        3.096140   -0.021872   -3.518807
     37          1           0        1.853194    0.913454   -2.685009
     38          1           0        2.513945   -1.753021   -1.646495
     39          1           0        0.868042   -2.899696   -0.704353
     40          1           0       -1.248644   -2.777245   -2.933116
     41          1           0       -0.895549   -4.211009   -1.937783
     42          1           0        0.330961   -3.584777   -3.065596
     43          1           0       -1.992574    0.098017    1.423755
     44          1           0       -1.696929   -1.209211    2.578521
     45          1           0       -3.692822   -0.644589    4.036178
     46          1           0       -4.154711   -2.237810    3.434082
     47          1           0       -5.331796   -1.237772    4.312593
     48          1           0       -6.706444    0.339756    3.127977
     49          1           0       -8.496611    1.371958    1.810261
     50          1           0       -8.387946    1.442693    0.043283
     51          1           0       -7.573316    2.658962    1.028690
     52          1           0       -6.196230    0.879261   -1.096868
     53          1           0       -4.436152   -0.152334   -2.269011
     54          1           0       -2.899280   -0.207193   -1.390408
     55          1           0       -3.840199   -1.673028   -1.570225
     56          1           0        5.096015    1.128321   -3.113296
     57          1           0        7.395121    1.150583   -3.397057
     58          1           0        8.393895    2.584733   -3.030363
     59          1           0        6.680186    2.788025   -3.491157
 ---------------------------------------------------------------------

 SCF Done:  E(RB3LYP) =  -1400.00923136     A.U. after   15 cycles

 Excitation energies and oscillator strengths:

 Excited state symmetry could not be determined.
 Excited State   1:      Triplet-?Sym    3.5508 eV  349.18 nm  f=0.0000  <S**2>=2.000
     108 ->113         0.23535
     108 ->116        -0.12547
     111 ->112         0.11573
     111 ->113         0.22451
     111 ->116         0.54949
     111 ->117         0.15842
 This state for optimization and/or second-order correction.
 Total Energy, E(TD-HF/TD-DFT) =  -1399.87874347
 Copying the excited state density for this state as the 1-particle RhoCI density.

 Excited state symmetry could not be determined.
 Excited State   2:      Triplet-?Sym    4.0101 eV  309.18 nm  f=0.0000  <S**2>=2.000
     111 ->112         0.15609
     111 ->113         0.55927
     111 ->114         0.15360
     111 ->115         0.13378
     111 ->116        -0.28456
     111 ->117         0.16042

 Excited state symmetry could not be determined.
 Excited State   3:      Singlet-?Sym    4.9231 eV  251.84 nm  f=0.0841  <S**2>=0.000
     108 ->116        -0.22637
     111 ->112         0.50113
     111 ->113         0.38547
     111 ->116        -0.15698

 Excited state symmetry could not be determined.
 Excited State   4:      Singlet-?Sym    5.0091 eV  247.52 nm  f=0.0097  <S**2>=0.000
     108 ->116         0.17479
     111 ->112         0.48573
     111 ->113        -0.40070
     111 ->114        -0.15019
     111 ->115        -0.11937
     111 ->116         0.12675

 Alpha  occ. eigenvalues --  -19.19920 -19.17396 -19.17267 -19.16099 -19.14250
 Alpha  occ. eigenvalues --  -19.11741 -14.36544 -10.32184 -10.28988 -10.26270
 Alpha  occ. eigenvalues --  -10.25211 -10.24287 -10.24123 -10.23900 -10.23701
 Alpha  occ. eigenvalues --  -10.22602 -10.22364 -10.19247 -10.19019 -10.18826
 Alpha  occ. eigenvalues --  -10.18595 -10.18576 -10.18528 -10.18331 -10.17948
 Alpha  occ. eigenvalues --  -10.17736 -10.17718 -10.17532 -10.17368 -10.16424
 Alpha  occ. eigenvalues --   -1.11370  -1.06974  -1.05030  -1.04763  -1.03599
 Alpha  occ. eigenvalues --   -1.01984  -0.92758  -0.84861  -0.84639  -0.80015
 Alpha  occ. eigenvalues --   -0.77359  -0.77214  -0.76766  -0.74660  -0.73302
 Alpha  occ. eigenvalues --   -0.71664  -0.70194  -0.69193  -0.67357  -0.66894
 Alpha  occ. eigenvalues --   -0.66070  -0.64624  -0.60703  -0.59800  -0.58260
 Alpha  occ. eigenvalues --   -0.57294  -0.56765  -0.56426  -0.53647  -0.52782
 Alpha  occ. eigenvalues --   -0.51950  -0.50633  -0.50381  -0.49844  -0.49016
 Alpha  occ. eigenvalues --   -0.47471  -0.47086  -0.46384  -0.46103  -0.45897
 Alpha  occ. eigenvalues --   -0.45333  -0.44749  -0.44062  -0.43343  -0.43196
 Alpha  occ. eigenvalues --   -0.42884  -0.41718  -0.41539  -0.41000  -0.40719
 Alpha  occ. eigenvalues --   -0.40552  -0.40150  -0.39970  -0.39641  -0.39462
 Alpha  occ. eigenvalues --   -0.39117  -0.38565  -0.38375  -0.37779  -0.37389
 Alpha  occ. eigenvalues --   -0.36880  -0.36173  -0.35969  -0.35705  -0.34979
 Alpha  occ. eigenvalues --   -0.33527  -0.33201  -0.32992  -0.32008  -0.31919
 Alpha  occ. eigenvalues --   -0.31875  -0.31186  -0.30946  -0.28775  -0.26514
 Alpha  occ. eigenvalues --   -0.25987  -0.25374  -0.23377  -0.22866  -0.21891
 Alpha  occ. eigenvalues --   -0.19819
 Alpha virt. eigenvalues --    0.00163   0.00924   0.01026   0.01255   0.01377
 Alpha virt. eigenvalues --    0.02253   0.07889   0.08476   0.08877   0.10417
 Alpha virt. eigenvalues --    0.10724   0.10803   0.11354   0.12668   0.12710

 Mulliken charges:
               1
     1  C   -0.214347
     2  O   -0.499041
     3  C    0.338148
     4  C   -0.208800
     5  C   -0.210908
     6  C    0.134080
     7  C   -0.204667
     8  N   -0.595541
     9  C    0.608562
    10  O   -0.519305
    11  C    0.055782
    12  C   -0.464775
    13  O   -0.436897
    14  C    0.625864
    15  O   -0.485705
    16  C   -0.116496
    17  O   -0.522858
    18  C    0.195117
    19  C    0.176328
    20  C   -0.534575
    21  C   -0.273185
    22  C    0.211708
    23  C   -0.532224
    24  C   -0.269044
    25  C    0.166856
    26  C   -0.529585
    27  C   -0.273683
    28  C    0.343865
    29  O   -0.500296
    30  C   -0.212449
    31  H    0.150242
    32  H    0.169304
    33  H    0.151934
    34  H    0.136630
    35  H    0.168243
    36  H    0.149362
    37  H    0.205248
    38  H    0.328829
    39  H    0.150573
    40  H    0.186216
    41  H    0.169720
    42  H    0.154793
    43  H    0.183369
    44  H    0.170330
    45  H    0.156400
    46  H    0.171891
    47  H    0.154421
    48  H    0.112114
    49  H    0.153460
    50  H    0.156259
    51  H    0.162838
    52  H    0.114604
    53  H    0.142231
    54  H    0.188024
    55  H    0.167422
    56  H    0.124738
    57  H    0.147737
    58  H    0.170425
    59  H    0.150717
 Sum of Mulliken charges =  -0.00000

 Dipole moment (field-independent basis, Debye):
    X=              1.8520    Y=             -1.2052    Z=             -0.1086  Tot=              2.2123
 Quadrupole moment (field-independent basis, Debye-Ang):
   XX=           -166.4554   YY=           -171.1333   ZZ=           -156.2241
   XY=             -6.9310   XZ=            -10.7049   YZ=              4.9574

 Normal termination of Gaussian 16 at Sat Nov  5 11:43:25 2022.
