 Gaussian 16, Revision B.01,
 Gaussian 16:  ES64L-G16RevB.01 20-Dec-2017

 -----------------------------
 #p b3lyp/6-31g(d) opt SCF=XQC
 -----------------------------

 ------------------------------
 Gaussian input prepared by ASE
 ------------------------------
 Symbolic Z-matrix:
 Charge =  0 Multiplicity = 1

 SCF Done:  E(RB3LYP) =  -1400.00113197     A.U. after   15 cycles
 SCF Done:  E(RB3LYP) =  -1400.00208395     A.U. after   13 cycles
 SCF Done:  E(RB3LYP) =  -1400.00447182     A.U. after   13 cycles
 SCF Done:  E(RB3LYP) =  -1400.00637944     A.U. after   13 cycles
 SCF Done:  E(RB3LYP) =  -1400.00631036     A.U. after   13 cycles
 SCF Done:  E(RB3LYP) =  -1400.00763495     A.U. after   12 cycles
 SCF Done:  E(RB3LYP) =  -1400.00801661     A.U. after   12 cycles
 SCF Done:  E(RB3LYP) =  -1400.00824371     A.U. after   12 cycles
 SCF Done:  E(RB3LYP) =  -1400.00845680     A.U. after   10 cycles
 SCF Done:  E(RB3LYP) =  -1400.00869892     A.U. after   11 cycles
 SCF Done:  E(RB3LYP) =  -1400.00922612     A.U. after    8 cycles
 SCF Done:  E(RB3LYP) =  -1400.00922671     A.U. after    8 cycles
 SCF Done:  E(RB3LYP) =  -1400.00922735     A.U. after    9 cycles
 SCF Done:  E(RB3LYP) =  -1400.00922804     A.U. after    9 cycles
 SCF Done:  E(RB3LYP) =  -1400.00922825     A.U. after    7 cycles
 SCF Done:  E(RB3LYP) =  -1400.00922866     A.U. after    9 cycles
 SCF Done:  E(RB3LYP) =  -1400.00922908     A.U. after    9 cycles
 SCF Done:  E(RB3LYP) =  -1400.00922910     A.U. after    7 cycles
 SCF Done:  E(RB3LYP) =  -1400.00922911     A.U. after    7 cycles
 SCF Done:  E(RB3LYP) =  -1400.00922913     A.U. after    6 cycles
 Optimization completed.
    -- Stationary point found.

                         Standard orientation:
 ---------------------------------------------------------------------
 Center     Atomic      Atomic             Coordinates (Angstroms)
 Number     Number       Type             X           Y           Z
 ---------------------------------------------------------------------
      1          6           0        6.007696   -3.713905   -0.548479
      2          8           0        6.423401   -2.472135   -0.006857
      3          6           0        5.490111   -1.485611    0.112814
      4          6           0        4.153946   -1.591568   -0.266169
      5          6           0        3.272305   -0.515301   -0.101698
      6          6           0        3.722551    0.685235    0.440983
      7          6           0        2.784298    1.856305    0.665002
      8          7           0        1.847033    2.048496   -0.438049
      9          6           0        0.497481    1.970335   -0.270885
     10          8           0       -0.059482    1.881169    0.815793
     11          6           0       -0.314837    2.089761   -1.576814
     12          6           0       -0.809992    3.515305   -1.787213
     13          8           0       -1.488907    1.262301   -1.471224
     14          6           0       -1.263730   -0.056951   -1.394557
     15          8           0       -0.171921   -0.576863   -1.510095
     16          6           0       -2.511757   -0.877738   -1.106661
     17          8           0       -3.708896   -0.133720   -1.230865
     18          6           0       -4.684217   -0.389668   -0.269667
     19          6           0       -5.546350   -1.482651   -0.433825
     20          6           0       -5.410978   -2.403172   -1.623283
     21          6           0       -6.545018   -1.682345    0.526131
     22          6           0       -6.696615   -0.828608    1.622196
     23          6           0       -7.761840   -1.081351    2.664570
     24          6           0       -5.827721    0.262819    1.734936
     25          6           0       -4.814486    0.506960    0.802553
     26          6           0       -3.910023    1.709644    0.922815
     27          6           0        5.072337    0.799593    0.816788
     28          6           0        5.956156   -0.265830    0.665770
     29          8           0        7.277359   -0.241036    1.003047
     30          6           0        7.796155    0.947792    1.571857
     31          1           0        5.638120   -3.604323   -1.577129
     32          1           0        6.894756   -4.350148   -0.549989
     33          1           0        5.226086   -4.182168    0.064916
     34          1           0        3.781365   -2.515826   -0.692870
     35          1           0        2.235726   -0.626961   -0.407063
     36          1           0        3.365292    2.774555    0.821716
     37          1           0        2.163230    1.710359    1.554861
     38          1           0        2.216731    1.934537   -1.372949
     39          1           0        0.278365    1.743019   -2.430093
     40          1           0       -1.393525    3.837904   -0.920467
     41          1           0       -1.439387    3.569996   -2.680343
     42          1           0        0.039962    4.194131   -1.911944
     43          1           0       -2.390536   -1.272608   -0.088895
     44          1           0       -2.498973   -1.734732   -1.793131
     45          1           0       -4.595682   -3.127337   -1.490456
     46          1           0       -5.194953   -1.838094   -2.535895
     47          1           0       -6.330178   -2.976404   -1.778991
     48          1           0       -7.225013   -2.523949    0.406442
     49          1           0       -8.587712   -1.674744    2.258041
     50          1           0       -8.177656   -0.143544    3.049433
     51          1           0       -7.357568   -1.631986    3.524779
     52          1           0       -5.942782    0.950612    2.570700
     53          1           0       -4.196161    2.318130    1.786362
     54          1           0       -2.854188    1.439640    1.035168
     55          1           0       -3.969976    2.333883    0.024385
     56          1           0        5.425240    1.737784    1.232330
     57          1           0        7.714284    1.798088    0.880839
     58          1           0        8.850432    0.747308    1.771809
     59          1           0        7.290204    1.201368    2.513409
 ---------------------------------------------------------------------

 The electronic state is 1-A.
 Alpha  occ. eigenvalues --  -19.19920 -19.17396 -19.17267 -19.16099 -19.14250
 Alpha  occ. eigenvalues --  -19.11741 -14.36544 -10.32184 -10.28988 -10.26270
 Alpha  occ. eigenvalues --  -10.25211 -10.24287 -10.24123 -10.23900 -10.23701
 Alpha  occ. eigenvalues --  -10.22602 -10.22364 -10.19248 -10.19019 -10.18826
 Alpha  occ. eigenvalues --  -10.18595 -10.18576 -10.18528 -10.18331 -10.17948
 Alpha  occ. eigenvalues --  -10.17736 -10.17718 -10.17532 -10.17368 -10.16424
 Alpha  occ. eigenvalues --   -1.11370  -1.06974  -1.05030  -1.04763  -1.03599
 Alpha  occ. eigenvalues --   -1.01984  -0.92758  -0.84861  -0.84639  -0.80015
 Alpha  occ. eigenvalues --   -0.77359  -0.77214  -0.76766  -0.74660  -0.73302
 Alpha  occ. eigenvalues --   -0.71664  -0.70194  -0.69193  -0.67357  -0.66894
 Alpha  occ. eigenvalues --   -0.66070  -0.64624  -0.60703  -0.59800  -0.58260
 Alpha  occ. eigenvalues --   -0.57294  -0.56765  -0.56426  -0.53647  -0.52782
 Alpha  occ. eigenvalues --   -0.51950  -0.50633  -0.50381  -0.49844  -0.49016
 Alpha  occ. eigenvalues --   -0.47471  -0.47086  -0.46384  -0.46103  -0.45897
 Alpha  occ. eigenvalues --   -0.45333  -0.44749  -0.44062  -0.43343  -0.43196
 Alpha  occ. eigenvalues --   -0.42884  -0.41718  -0.41539  -0.41000  -0.40719
 Alpha  occ. eigenvalues --   -0.40552  -0.40150  -0.39970  -0.39641  -0.39462
 Alpha  occ. eigenvalues --   -0.39117  -0.38565  -0.38375  -0.37779  -0.37389
 Alpha  occ. eigenvalues --   -0.36880  -0.36173  -0.35969  -0.35705  -0.34979
 Alpha  occ. eigenvalues --   -0.33527  -0.33201  -0.32992  -0.32008  -0.31919
 Alpha  occ. eigenvalues --   -0.31875  -0.31186  -0.30946  -0.28775  -0.26514
 Alpha  occ. eigenvalues --   -0.25987  -0.25374  -0.23377  -0.22866  -0.21891
 Alpha  occ. eigenvalues --   -0.19819
 Alpha virt. eigenvalues --    0.00163   0.00924   0.01026   0.01255   0.01377
 Alpha virt. eigenvalues --    0.02253   0.07889   0.08476   0.08877   0.10417
 Alpha virt. eigenvalues --    0.10724   0.10803   0.11354   0.12668   0.12710

 Mulliken charges:
               1
     1  C   -0.214349
     2  O   -0.499041
     3  C    0.338152
     4  C   -0.208801
     5  C   -0.210908
     6  C    0.134084
     7  C   -0.204671
     8  N   -0.595540
     9  C    0.608549
    10  O   -0.519301
    11  C    0.055791
    12  C   -0.464782
    13  O   -0.436903
    14  C    0.625883
    15  O   -0.485708
    16  C   -0.116500
    17  O   -0.522862
    18  C    0.195136
    19  C    0.176319
    20  C   -0.534597
    21  C   -0.273178
    22  C    0.211731
    23  C   -0.532237
    24  C   -0.269050
    25  C    0.166863
    26  C   -0.529599
    27  C   -0.273687
    28  C    0.343866
    29  O   -0.500298
    30  C   -0.212446
    31  H    0.150242
    32  H    0.169304
    33  H    0.151935
    34  H    0.136629
    35  H    0.168243
    36  H    0.149362
    37  H    0.205247
    38  H    0.328827
    39  H    0.150574
    40  H    0.186218
    41  H    0.169722
    42  H    0.154795
    43  H    0.183367
    44  H    0.170330
    45  H    0.156403
    46  H    0.171894
    47  H    0.154424
    48  H    0.112112
    49  H    0.153461
    50  H    0.156260
    51  H    0.162838
    52  H    0.114603
    53  H    0.142232
    54  H    0.188021
    55  H    0.167425
    56  H    0.124738
    57  H    0.147737
    58  H    0.170424
    59  H    0.150716
 Sum of Mulliken charges =  -0.00000

 Dipole moment (field-independent basis, Debye):
    X=              1.6324    Y=              0.4924    Z=             -1.4095  Tot=              2.2123
 Quadrupole moment (field-independent basis, Debye-Ang):
   XX=           -165.9506   YY=           -157.4596   ZZ=           -171.2845
   XY=             13.4638   XZ=             -2.2848   YZ=              0.3884

 Normal termination of Gaussian 16 at Fri Nov  4 19:45:01 2022.
