 Gaussian 16, Revision B.01,
 Gaussian 16:  ES64L-G16RevB.01 20-Dec-2017

 -------------------------------------------------------------------
 #p b3lyp/6-31g(d) 6D 10F nosymm GFInput td=(50-50,nstate=2) SCF=XQC
 -------------------------------------------------------------------

 ------------------------------
 Gaussian input prepared by ASE
 ------------------------------
 Symbolic Z-matrix:
 Charge =  0 Multiplicity = 1

                          Input orientation:
 ---------------------------------------------------------------------
 Center     Atomic      Atomic             Coordinates (Angstroms)
 Number     Number       Type             X           Y           Z
 ---------------------------------------------------------------------
      1          6           0       -3.899205    2.928764    1.572874
      2          6           0       -2.517451    2.771670    0.929321
      3          6           0       -2.419717    2.038420   -0.426688
      4          6           0       -3.215128    2.684538   -1.569314
      5          7           0       -2.642134    0.558274   -0.310364
      6          6           0       -1.562511   -0.311199   -0.175723
      7         16           0        0.070826    0.423400   -0.058184
      8          6           0        1.097743   -1.118329    0.086311
      9          6           0        2.534865   -0.760342    0.128564
     10          6           0        3.447908   -0.649376    1.128962
     11          6           0        4.688204   -0.270399    0.513914
     12          6           0        5.939562   -0.053958    1.249130
     13          8           0        6.059679   -0.175568    2.452697
     14          8           0        6.963770    0.302108    0.430320
     15          6           0        8.218143    0.530044    1.091194
     16          6           0        4.443382   -0.168607   -0.837517
     17          6           0        5.272991    0.175830   -2.026730
     18          8           0        3.139448   -0.463768   -1.076696
     19          7           0       -1.640980   -1.600889   -0.112483
     20          6           0       -2.887635   -2.192576   -0.187683
     21          6           0       -2.990490   -3.597278   -0.151505
     22          6           0       -4.236542   -4.200600   -0.218234
     23          6           0       -5.407027   -3.425531   -0.318569
     24          6           0       -5.318686   -2.042664   -0.351288
     25          6           0       -4.060803   -1.420766   -0.290024
     26          6           0       -3.963697    0.041674   -0.320919
     27          8           0       -4.937576    0.783983   -0.357406
     28          1           0       -4.603318    3.440146    0.909835
     29          1           0       -3.807357    3.524057    2.489011
     30          1           0       -4.342624    1.965872    1.835991
     31          1           0       -2.087038    3.768924    0.760149
     32          1           0       -1.839853    2.269941    1.631836
     33          1           0       -1.373101    2.118548   -0.731185
     34          1           0       -2.812821    3.690886   -1.734278
     35          1           0       -3.083562    2.116187   -2.496211
     36          1           0       -4.279689    2.754189   -1.357279
     37          1           0        0.857773   -1.756167   -0.765963
     38          1           0        0.802479   -1.638601    0.997962
     39          1           0        3.290354   -0.813216    2.185196
     40          1           0        8.919000    0.802795    0.301381
     41          1           0        8.127602    1.339020    1.820984
     42          1           0        8.552327   -0.374626    1.606119
     43          1           0        5.694987    1.181965   -1.934620
     44          1           0        6.116024   -0.514685   -2.133170
     45          1           0        4.658158    0.129328   -2.928991
     46          1           0       -2.078130   -4.179764   -0.070577
     47          1           0       -4.310460   -5.284644   -0.190987
     48          1           0       -6.376887   -3.911859   -0.368705
     49          1           0       -6.200803   -1.415154   -0.424855
 ---------------------------------------------------------------------

 SCF Done:  E(RB3LYP) =  -1584.00001329     A.U. after   15 cycles

 Excitation energies and oscillator strengths:

 Excited state symmetry could not be determined.
 Excited State   1:      Triplet-?Sym    3.2619 eV  380.10 nm  f=0.0000  <S**2>=2.000
      99 ->103        -0.18460
     100 ->103         0.22482
     102 ->104         0.54687
     102 ->105         0.26916
 This state for optimization and/or second-order correction.
 Total Energy, E(TD-HF/TD-DFT) =  -1583.88014112
 Copying the excited state density for this state as the 1-particle RhoCI density.

 Excited state symmetry could not be determined.
 Excited State   2:      Triplet-?Sym    3.4093 eV  363.66 nm  f=0.0000  <S**2>=2.000
     101 ->104        -0.30565
     101 ->105         0.56642
     101 ->106        -0.20209

 Excited state symmetry could not be determined.
 Excited State   3:      Singlet-?Sym    4.2634 eV  290.81 nm  f=0.0683  <S**2>=0.000
     100 ->104        -0.13373
     102 ->103         0.67305

 Excited state symmetry could not be determined.
 Excited State   4:      Singlet-?Sym    4.6200 eV  268.36 nm  f=0.1764  <S**2>=0.000
      98 ->103        -0.17963
      99 ->103         0.13151
     100 ->103         0.35429
     101 ->103        -0.14609
     102 ->104         0.51171
     102 ->105         0.13898

 Alpha  occ. eigenvalues --  -88.90018 -19.22794 -19.19371 -19.13249 -19.12066
 Alpha  occ. eigenvalues --  -14.39851 -14.33038 -10.31710 -10.30277 -10.29803
 Alpha  occ. eigenvalues --  -10.26632 -10.25368 -10.24240 -10.23956 -10.23650
 Alpha  occ. eigenvalues --  -10.23343 -10.20199 -10.20195 -10.20145 -10.19986
 Alpha  occ. eigenvalues --  -10.19853 -10.19704 -10.19491 -10.19335 -10.18812
 Alpha  occ. eigenvalues --  -10.17651 -10.16694  -7.96160  -5.92678  -5.92256
 Alpha  occ. eigenvalues --   -5.91657  -1.12326  -1.10000  -1.04609  -1.01115
 Alpha  occ. eigenvalues --   -0.98824  -0.91614  -0.85545  -0.82779  -0.82208
 Alpha  occ. eigenvalues --   -0.79828  -0.78777  -0.76222  -0.75018  -0.73580
 Alpha  occ. eigenvalues --   -0.72638  -0.71534  -0.67386  -0.66223  -0.63808
 Alpha  occ. eigenvalues --   -0.63275  -0.61905  -0.60187  -0.58851  -0.58426
 Alpha  occ. eigenvalues --   -0.55827  -0.55611  -0.52049  -0.51224  -0.49299
 Alpha  occ. eigenvalues --   -0.48538  -0.48205  -0.47934  -0.47328  -0.47096
 Alpha  occ. eigenvalues --   -0.46896  -0.45786  -0.44900  -0.44174  -0.43884
 Alpha  occ. eigenvalues --   -0.43447  -0.43220  -0.42555  -0.41926  -0.41400
 Alpha  occ. eigenvalues --   -0.40768  -0.40674  -0.39811  -0.39738  -0.39655
 Alpha  occ. eigenvalues --   -0.38873  -0.38499  -0.37772  -0.37277  -0.37158
 Alpha  occ. eigenvalues --   -0.36775  -0.36307  -0.35769  -0.35206  -0.33916
 Alpha  occ. eigenvalues --   -0.33293  -0.32899  -0.30290  -0.28904  -0.28618
 Alpha  occ. eigenvalues --   -0.27493  -0.27478  -0.25984  -0.25929  -0.25623
 Alpha  occ. eigenvalues --   -0.23109  -0.21921
 Alpha virt. eigenvalues --   -0.03989  -0.03123  -0.02848  -0.00448   0.02308
 Alpha virt. eigenvalues --    0.03074   0.07231   0.08160   0.09261   0.09861
 Alpha virt. eigenvalues --    0.10068   0.10556   0.11323   0.11674   0.12457

 Mulliken charges:
               1
     1  C   -0.433265
     2  C   -0.250657
     3  C   -0.004339
     4  C   -0.458774
     5  N   -0.508778
     6  C    0.277854
     7  S    0.168999
     8  C   -0.499951
     9  C    0.325833
    10  C   -0.206213
    11  C   -0.005564
    12  C    0.577954
    13  O   -0.495423
    14  O   -0.478250
    15  C   -0.216061
    16  C    0.334139
    17  C   -0.524869
    18  O   -0.459734
    19  N   -0.555131
    20  C    0.250188
    21  C   -0.151021
    22  C   -0.129758
    23  C   -0.137288
    24  C   -0.177590
    25  C    0.057339
    26  C    0.595589
    27  O   -0.527823
    28  H    0.154281
    29  H    0.135733
    30  H    0.163210
    31  H    0.138153
    32  H    0.151091
    33  H    0.172042
    34  H    0.143048
    35  H    0.150912
    36  H    0.202307
    37  H    0.216377
    38  H    0.212343
    39  H    0.167436
    40  H    0.162118
    41  H    0.172014
    42  H    0.171726
    43  H    0.184436
    44  H    0.183748
    45  H    0.175262
    46  H    0.138970
    47  H    0.137293
    48  H    0.136469
    49  H    0.163624
 Sum of Mulliken charges =  -0.00000

 Dipole moment (field-independent basis, Debye):
    X=              2.7023    Y=             -0.4577    Z=             -1.9389  Tot=              3.3573
 Quadrupole moment (field-independent basis, Debye-Ang):
   XX=           -151.5620   YY=           -151.5715   ZZ=           -168.7943
   XY=             10.7300   XZ=            -12.0689   YZ=             -0.1076

 Normal termination of Gaussian 16 at Sat Nov  5 11:44:10 2022.
