 Gaussian 16, Revision B.01,
 Gaussian 16:  ES64L-G16RevB.01 20-Dec-2017

 -----------------------------
 #p b3lyp/6-31g(d) opt SCF=XQC
 -----------------------------

 ------------------------------
 Gaussian input prepared by ASE
 ------------------------------
 Symbolic Z-matrix:
 Charge =  0 Multiplicity = 1

 SCF Done:  E(RB3LYP) =  -1583.99180516     A.U. after   15 cycles
 SCF Done:  E(RB3LYP) =  -1583.99804429     A.U. after   13 cycles
 SCF Done:  E(RB3LYP) =  -1583.99884014     A.U. after   12 cycles
 SCF Done:  E(RB3LYP) =  -1583.99970090     A.U. after   12 cycles
 SCF Done:  E(RB3LYP) =  -1583.99987214     A.U. after   11 cycles
 SCF Done:  E(RB3LYP) =  -1583.99982444     A.U. after   11 cycles
 SCF Done:  E(RB3LYP) =  -1583.99996374     A.U. after   10 cycles
 SCF Done:  E(RB3LYP) =  -1583.99998585     A.U. after   10 cycles
 SCF Done:  E(RB3LYP) =  -1583.99999543     A.U. after   10 cycles
 SCF Done:  E(RB3LYP) =  -1583.99999852     A.U. after    9 cycles
 SCF Done:  E(RB3LYP) =  -1584.00000054     A.U. after   10 cycles
 SCF Done:  E(RB3LYP) =  -1584.00000301     A.U. after    9 cycles
 SCF Done:  E(RB3LYP) =  -1584.00000386     A.U. after    9 cycles
 SCF Done:  E(RB3LYP) =  -1584.00000397     A.U. after    8 cycles
 SCF Done:  E(RB3LYP) =  -1584.00000400     A.U. after    7 cycles
 SCF Done:  E(RB3LYP) =  -1584.00000402     A.U. after    6 cycles
 SCF Done:  E(RB3LYP) =  -1584.00000401     A.U. after    6 cycles
 Optimization completed.
    -- Stationary point found.

                         Standard orientation:
 ---------------------------------------------------------------------
 Center     Atomic      Atomic             Coordinates (Angstroms)
 Number     Number       Type             X           Y           Z
 ---------------------------------------------------------------------
      1          6           0        3.681448    3.474888   -1.596082
      2          6           0        2.356667    3.190659   -0.880364
      3          6           0        2.393026    2.379742    0.433812
      4          6           0        3.217536    3.014560    1.562057
      5          7           0        2.701099    0.926384    0.217776
      6          6           0        1.672483   -0.004913    0.098064
      7         16           0       -0.008396    0.623796    0.122832
      8          6           0       -0.942445   -0.973172   -0.049249
      9          6           0       -2.399148   -0.710608    0.016609
     10          6           0       -3.379770   -0.606808   -0.918464
     11          6           0       -4.599561   -0.345929   -0.208326
     12          6           0       -5.906782   -0.174181   -0.852503
     13          8           0       -6.095997   -0.237842   -2.051642
     14          8           0       -6.896823    0.067266    0.046249
     15          6           0       -8.203001    0.246215   -0.522994
     16          6           0       -4.275394   -0.301702    1.129441
     17          6           0       -5.047099   -0.078962    2.384820
     18          8           0       -2.942675   -0.521334    1.271552
     19          7           0        1.828506   -1.281073   -0.045211
     20          6           0        3.112484   -1.791033   -0.080392
     21          6           0        3.301839   -3.181614   -0.204912
     22          6           0        4.585412   -3.702744   -0.249178
     23          6           0        5.708313   -2.857535   -0.174679
     24          6           0        5.534578   -1.487547   -0.055762
     25          6           0        4.238393   -0.949001   -0.004246
     26          6           0        4.050756    0.499775    0.118042
     27          8           0        4.975835    1.302638    0.138904
     28          1           0        4.392785    3.995470   -0.948083
     29          1           0        3.493305    4.111691   -2.468549
     30          1           0        4.167327    2.559666   -1.941485
     31          1           0        1.875524    4.146103   -0.627348
     32          1           0        1.668588    2.683623   -1.568739
     33          1           0        1.365161    2.372793    0.805280
     34          1           0        2.763535    3.981179    1.809711
     35          1           0        3.182159    2.389028    2.460348
     36          1           0        4.259697    3.166897    1.290406
     37          1           0       -0.608184   -1.638949    0.748126
     38          1           0       -0.673898   -1.422044   -1.005997
     39          1           0       -3.280302   -0.701941   -1.990076
     40          1           0       -8.867584    0.427925    0.322411
     41          1           0       -8.211107    1.097986   -1.208308
     42          1           0       -8.511420   -0.649441   -1.068826
     43          1           0       -5.537209    0.900124    2.377492
     44          1           0       -5.835977   -0.829233    2.501488
     45          1           0       -4.373866   -0.133195    3.243931
     46          1           0        2.425018   -3.818705   -0.264425
     47          1           0        4.726150   -4.776293   -0.344273
     48          1           0        6.708325   -3.279729   -0.211908
     49          1           0        6.377946   -0.807227    0.000882
 ---------------------------------------------------------------------

 The electronic state is 1-A.
 Alpha  occ. eigenvalues --  -88.90018 -19.22794 -19.19371 -19.13249 -19.12066
 Alpha  occ. eigenvalues --  -14.39851 -14.33038 -10.31710 -10.30277 -10.29803
 Alpha  occ. eigenvalues --  -10.26632 -10.25368 -10.24240 -10.23956 -10.23650
 Alpha  occ. eigenvalues --  -10.23343 -10.20199 -10.20195 -10.20145 -10.19986
 Alpha  occ. eigenvalues --  -10.19853 -10.19704 -10.19491 -10.19335 -10.18812
 Alpha  occ. eigenvalues --  -10.17651 -10.16694  -7.96160  -5.92678  -5.92256
 Alpha  occ. eigenvalues --   -5.91657  -1.12326  -1.10000  -1.04609  -1.01115
 Alpha  occ. eigenvalues --   -0.98824  -0.91614  -0.85545  -0.82779  -0.82208
 Alpha  occ. eigenvalues --   -0.79828  -0.78777  -0.76222  -0.75018  -0.73580
 Alpha  occ. eigenvalues --   -0.72638  -0.71534  -0.67386  -0.66223  -0.63808
 Alpha  occ. eigenvalues --   -0.63275  -0.61905  -0.60187  -0.58851  -0.58426
 Alpha  occ. eigenvalues --   -0.55827  -0.55611  -0.52049  -0.51224  -0.49299
 Alpha  occ. eigenvalues --   -0.48538  -0.48205  -0.47934  -0.47328  -0.47096
 Alpha  occ. eigenvalues --   -0.46896  -0.45786  -0.44900  -0.44174  -0.43884
 Alpha  occ. eigenvalues --   -0.43447  -0.43220  -0.42555  -0.41926  -0.41400
 Alpha  occ. eigenvalues --   -0.40768  -0.40674  -0.39811  -0.39738  -0.39655
 Alpha  occ. eigenvalues --   -0.38873  -0.38499  -0.37772  -0.37277  -0.37158
 Alpha  occ. eigenvalues --   -0.36775  -0.36307  -0.35769  -0.35206  -0.33916
 Alpha  occ. eigenvalues --   -0.33293  -0.32899  -0.30290  -0.28904  -0.28618
 Alpha  occ. eigenvalues --   -0.27493  -0.27478  -0.25984  -0.25929  -0.25623
 Alpha  occ. eigenvalues --   -0.23109  -0.21921
 Alpha virt. eigenvalues --   -0.03989  -0.03123  -0.02848  -0.00448   0.02308
 Alpha virt. eigenvalues --    0.03074   0.07231   0.08160   0.09261   0.09861
 Alpha virt. eigenvalues --    0.10068   0.10556   0.11323   0.11674   0.12457

 Mulliken charges:
               1
     1  C   -0.433259
     2  C   -0.250693
     3  C   -0.004288
     4  C   -0.458778
     5  N   -0.508758
     6  C    0.277822
     7  S    0.169013
     8  C   -0.499952
     9  C    0.325855
    10  C   -0.206227
    11  C   -0.005572
    12  C    0.577971
    13  O   -0.495425
    14  O   -0.478252
    15  C   -0.216060
    16  C    0.334137
    17  C   -0.524875
    18  O   -0.459738
    19  N   -0.555108
    20  C    0.250154
    21  C   -0.151026
    22  C   -0.129753
    23  C   -0.137290
    24  C   -0.177594
    25  C    0.057390
    26  C    0.595541
    27  O   -0.527821
    28  H    0.154280
    29  H    0.135734
    30  H    0.163211
    31  H    0.138154
    32  H    0.151092
    33  H    0.172034
    34  H    0.143047
    35  H    0.150911
    36  H    0.202304
    37  H    0.216374
    38  H    0.212343
    39  H    0.167435
    40  H    0.162118
    41  H    0.172014
    42  H    0.171725
    43  H    0.184436
    44  H    0.183750
    45  H    0.175262
    46  H    0.138974
    47  H    0.137294
    48  H    0.136470
    49  H    0.163624
 Sum of Mulliken charges =  -0.00000

 Dipole moment (field-independent basis, Debye):
    X=             -2.5376    Y=             -0.7428    Z=              2.0687  Tot=              3.3572
 Quadrupole moment (field-independent basis, Debye-Ang):
   XX=           -152.2533   YY=           -153.2917   ZZ=           -166.9794
   XY=            -10.5257   XZ=            -13.6205   YZ=              1.2074

 Normal termination of Gaussian 16 at Fri Nov  4 19:18:24 2022.
