 Gaussian 16, Revision B.01,
 Gaussian 16:  ES64L-G16RevB.01 20-Dec-2017

 -------------------------------------------------------------------
 #p b3lyp/6-31g(d) 6D 10F nosymm GFInput td=(50-50,nstate=2) SCF=XQC
 -------------------------------------------------------------------

 ------------------------------
 Gaussian input prepared by ASE
 ------------------------------
 Symbolic Z-matrix:
 Charge =  0 Multiplicity = 1

                          Input orientation:
 ---------------------------------------------------------------------
 Center     Atomic      Atomic             Coordinates (Angstroms)
 Number     Number       Type             X           Y           Z
 ---------------------------------------------------------------------
      1          6           0        7.007956    0.810768   -1.907838
      2          6           0        6.588906    1.507088   -0.616778
      3          8           0        5.194716    1.821217   -0.588942
      4          6           0        4.282541    0.858184   -0.266700
      5          6           0        2.939605    1.268168   -0.298988
      6          6           0        1.921553    0.382631    0.027306
      7          6           0        2.213873   -0.941523    0.397119
      8          6           0        1.110992   -1.939339    0.714401
      9          7           0        0.108433   -1.451535    1.662323
     10          6           0        0.552934   -1.314322    3.045964
     11          6           0       -1.161269   -1.063025    1.338536
     12          8           0       -1.970668   -0.645686    2.156775
     13          6           0       -1.585048   -1.194811   -0.145900
     14          7           0       -2.776870   -0.393841   -0.378631
     15          7           0       -3.945086   -1.040413   -0.304846
     16          6           0       -5.059241   -0.357926   -0.409420
     17          6           0       -6.332959   -1.158088   -0.327688
     18          6           0       -5.074215    1.071671   -0.588565
     19          6           0       -6.384642    1.799498   -0.703974
     20          6           0       -3.859425    1.718328   -0.644143
     21          6           0       -3.762468    3.134220   -0.820918
     22          7           0       -3.718097    4.286408   -0.974557
     23          6           0       -2.599514    0.990527   -0.502900
     24          8           0       -1.479043    1.490123   -0.505342
     25          6           0        3.551508   -1.336286    0.432023
     26          6           0        4.587181   -0.457704    0.100177
     27          1           0        8.092626    0.651758   -1.913685
     28          1           0        6.744842    1.428562   -2.772278
     29          1           0        6.518603   -0.161305   -2.022155
     30          1           0        6.864131    0.919773    0.268911
     31          1           0        7.085316    2.478167   -0.532373
     32          1           0        2.718303    2.292840   -0.580546
     33          1           0        0.893101    0.735032   -0.000644
     34          1           0        0.604971   -2.259633   -0.200474
     35          1           0        1.558855   -2.847904    1.138944
     36          1           0       -0.263342   -0.891360    3.629031
     37          1           0        1.426033   -0.654782    3.097603
     38          1           0        0.827848   -2.295098    3.455092
     39          1           0       -0.812350   -0.847705   -0.831474
     40          1           0       -1.847593   -2.230371   -0.374009
     41          1           0       -6.957362   -0.834187    0.513825
     42          1           0       -6.086614   -2.212586   -0.189929
     43          1           0       -6.936000   -1.055291   -1.238284
     44          1           0       -6.969810    1.414149   -1.547644
     45          1           0       -6.989718    1.648588    0.198225
     46          1           0       -6.238948    2.871869   -0.845505
     47          1           0        3.803832   -2.355098    0.720427
     48          1           0        5.611622   -0.809615    0.138449
 ---------------------------------------------------------------------

 SCF Done:  E(RB3LYP) =  -1181.93167650     A.U. after   16 cycles

 Excitation energies and oscillator strengths:

 Excited state symmetry could not be determined.
 Excited State   1:      Triplet-?Sym    2.4537 eV  505.30 nm  f=0.0000  <S**2>=2.000
      90 -> 95        -0.14904
      92 -> 95         0.19302
      93 -> 95         0.64368
 This state for optimization and/or second-order correction.
 Total Energy, E(TD-HF/TD-DFT) =  -1181.84150525
 Copying the excited state density for this state as the 1-particle RhoCI density.

 Excited state symmetry could not be determined.
 Excited State   2:      Triplet-?Sym    3.1872 eV  389.01 nm  f=0.0000  <S**2>=2.000
      94 -> 95         0.70352

 Excited state symmetry could not be determined.
 Excited State   3:      Singlet-?Sym    3.1890 eV  388.79 nm  f=0.0003  <S**2>=0.000
      94 -> 95         0.70564

 Excited state symmetry could not be determined.
 Excited State   4:      Singlet-?Sym    3.7336 eV  332.07 nm  f=0.0695  <S**2>=0.000
      89 -> 95        -0.19241
      90 -> 95         0.11791
      92 -> 95        -0.22870
      93 -> 95         0.62374

 Alpha  occ. eigenvalues --  -19.17369 -19.12628 -19.11327 -14.43314 -14.39698
 Alpha  occ. eigenvalues --  -14.36993 -14.33776 -10.30699 -10.29180 -10.25284
 Alpha  occ. eigenvalues --  -10.25192 -10.24868 -10.24707 -10.24493 -10.24326
 Alpha  occ. eigenvalues --  -10.23657 -10.23083 -10.21109 -10.21055 -10.20355
 Alpha  occ. eigenvalues --  -10.19340 -10.19156 -10.18831 -10.18571 -10.18503
 Alpha  occ. eigenvalues --  -10.18099  -1.07761  -1.05929  -1.03437  -1.02218
 Alpha  occ. eigenvalues --   -0.93889  -0.90779  -0.88747  -0.85109  -0.84394
 Alpha  occ. eigenvalues --   -0.78256  -0.78180  -0.75479  -0.74265  -0.74258
 Alpha  occ. eigenvalues --   -0.73389  -0.70208  -0.68736  -0.67580  -0.64206
 Alpha  occ. eigenvalues --   -0.63182  -0.60943  -0.58071  -0.57572  -0.55438
 Alpha  occ. eigenvalues --   -0.53940  -0.53044  -0.52632  -0.50195  -0.49048
 Alpha  occ. eigenvalues --   -0.48317  -0.47356  -0.46591  -0.46137  -0.45310
 Alpha  occ. eigenvalues --   -0.44775  -0.44297  -0.44076  -0.43412  -0.43044
 Alpha  occ. eigenvalues --   -0.42811  -0.42541  -0.42194  -0.41697  -0.40808
 Alpha  occ. eigenvalues --   -0.40566  -0.40218  -0.39843  -0.39642  -0.38674
 Alpha  occ. eigenvalues --   -0.37969  -0.37388  -0.36944  -0.36542  -0.36155
 Alpha  occ. eigenvalues --   -0.36067  -0.35203  -0.34657  -0.33138  -0.32185
 Alpha  occ. eigenvalues --   -0.31805  -0.31341  -0.29652  -0.26321  -0.25589
 Alpha  occ. eigenvalues --   -0.25054  -0.24357  -0.24027  -0.21517
 Alpha virt. eigenvalues --   -0.08423  -0.01128  -0.00212   0.00652   0.02491
 Alpha virt. eigenvalues --    0.03310   0.05233   0.07821   0.08602   0.09475
 Alpha virt. eigenvalues --    0.10895   0.11262   0.11535   0.12004   0.12867

 Mulliken charges:
               1
     1  C   -0.462924
     2  C   -0.037108
     3  O   -0.518172
     4  C    0.380425
     5  C   -0.183219
     6  C   -0.205229
     7  C    0.164712
     8  C   -0.257229
     9  N   -0.407617
    10  C   -0.325941
    11  C    0.615807
    12  O   -0.512801
    13  C   -0.248322
    14  N   -0.301504
    15  N   -0.285733
    16  C    0.269435
    17  C   -0.519432
    18  C    0.165393
    19  C   -0.547318
    20  C    0.006713
    21  C    0.282820
    22  N   -0.484627
    23  C    0.631514
    24  O   -0.526856
    25  C   -0.201882
    26  C   -0.191218
    27  H    0.147977
    28  H    0.166120
    29  H    0.161936
    30  H    0.141701
    31  H    0.158194
    32  H    0.149702
    33  H    0.185456
    34  H    0.170741
    35  H    0.154475
    36  H    0.206466
    37  H    0.171962
    38  H    0.149114
    39  H    0.202943
    40  H    0.197325
    41  H    0.171157
    42  H    0.186797
    43  H    0.165258
    44  H    0.179190
    45  H    0.183836
    46  H    0.197575
    47  H    0.121110
    48  H    0.131282
 Sum of Mulliken charges =  -0.00000

 Dipole moment (field-independent basis, Debye):
    X=              0.6648    Y=             -6.0227    Z=             -0.9634  Tot=              6.1354
 Quadrupole moment (field-independent basis, Debye-Ang):
   XX=            -99.2449   YY=           -168.1480   ZZ=           -153.6723
   XY=              6.4325   XZ=              6.2344   YZ=              2.9525

 Normal termination of Gaussian 16 at Sat Nov  5 11:50:10 2022.
