 Gaussian 16, Revision B.01,
 Gaussian 16:  ES64L-G16RevB.01 20-Dec-2017

 -----------------------------
 #p b3lyp/6-31g(d) opt SCF=XQC
 -----------------------------

 ------------------------------
 Gaussian input prepared by ASE
 ------------------------------
 Symbolic Z-matrix:
 Charge =  0 Multiplicity = 1

 SCF Done:  E(RB3LYP) =  -1181.92479713     A.U. after   16 cycles
 SCF Done:  E(RB3LYP) =  -1181.93055024     A.U. after   13 cycles
 SCF Done:  E(RB3LYP) =  -1181.92984561     A.U. after   14 cycles
 SCF Done:  E(RB3LYP) =  -1181.93133007     A.U. after   13 cycles
 SCF Done:  E(RB3LYP) =  -1181.93146143     A.U. after   13 cycles
 SCF Done:  E(RB3LYP) =  -1181.93157127     A.U. after   13 cycles
 SCF Done:  E(RB3LYP) =  -1181.93165566     A.U. after   11 cycles
 SCF Done:  E(RB3LYP) =  -1181.93167436     A.U. after   11 cycles
 SCF Done:  E(RB3LYP) =  -1181.93167827     A.U. after   10 cycles
 SCF Done:  E(RB3LYP) =  -1181.93167985     A.U. after    9 cycles
 SCF Done:  E(RB3LYP) =  -1181.93168118     A.U. after   10 cycles
 SCF Done:  E(RB3LYP) =  -1181.93168163     A.U. after    8 cycles
 SCF Done:  E(RB3LYP) =  -1181.93168187     A.U. after    7 cycles
 SCF Done:  E(RB3LYP) =  -1181.93168207     A.U. after    7 cycles
 SCF Done:  E(RB3LYP) =  -1181.93168226     A.U. after    7 cycles
 SCF Done:  E(RB3LYP) =  -1181.93168237     A.U. after    7 cycles
 SCF Done:  E(RB3LYP) =  -1181.93168243     A.U. after    7 cycles
 SCF Done:  E(RB3LYP) =  -1181.93168247     A.U. after    7 cycles
 SCF Done:  E(RB3LYP) =  -1181.93168250     A.U. after    7 cycles
 Optimization completed.
    -- Stationary point found.

                         Standard orientation:
 ---------------------------------------------------------------------
 Center     Atomic      Atomic             Coordinates (Angstroms)
 Number     Number       Type             X           Y           Z
 ---------------------------------------------------------------------
      1          6           0        7.288598    1.570893   -1.299333
      2          6           0        6.851969    1.527169    0.161743
      3          8           0        5.450853    1.758944    0.324140
      4          6           0        4.560801    0.745289    0.115223
      5          6           0        3.208783    1.091096    0.273560
      6          6           0        2.211084    0.140653    0.105246
      7          6           0        2.533497   -1.186659   -0.226251
      8          6           0        1.453600   -2.231767   -0.459105
      9          7           0        0.438863   -2.297763    0.593314
     10          6           0        0.878371   -2.855996    1.868493
     11          6           0       -0.839086   -1.824646    0.488778
     12          8           0       -1.658925   -1.883761    1.396072
     13          6           0       -1.257880   -1.211323   -0.870984
     14          7           0       -2.467621   -0.423733   -0.691031
     15          7           0       -3.620660   -1.044432   -0.962071
     16          6           0       -4.750172   -0.421739   -0.728576
     17          6           0       -6.005143   -1.181781   -1.070163
     18          6           0       -4.797988    0.907987   -0.175757
     19          6           0       -6.124754    1.571595    0.068341
     20          6           0       -3.598411    1.520639    0.111719
     21          6           0       -3.534010    2.839471    0.661207
     22          7           0       -3.516111    3.916856    1.099421
     23          6           0       -2.322179    0.843262   -0.110564
     24          8           0       -1.213560    1.300052    0.148984
     25          6           0        3.879861   -1.520650   -0.374838
     26          6           0        4.895343   -0.573150   -0.214572
     27          1           0        8.376661    1.456863   -1.369630
     28          1           0        7.012328    2.530743   -1.747128
     29          1           0        6.822000    0.774075   -1.886553
     30          1           0        7.139616    0.583482    0.643249
     31          1           0        7.325683    2.338092    0.722581
     32          1           0        2.964187    2.116019    0.534152
     33          1           0        1.174792    0.440439    0.242751
     34          1           0        0.956247   -2.066104   -1.418708
     35          1           0        1.921836   -3.222365   -0.535137
     36          1           0        0.051816   -2.793762    2.574256
     37          1           0        1.735918   -2.291972    2.251183
     38          1           0        1.175393   -3.905013    1.741115
     39          1           0       -0.492575   -0.554999   -1.284629
     40          1           0       -1.496122   -2.002426   -1.585648
     41          1           0       -6.637904   -1.329956   -0.186652
     42          1           0       -5.734644   -2.160815   -1.470105
     43          1           0       -6.609281   -0.652796   -1.817560
     44          1           0       -6.699816    1.643931   -0.862661
     45          1           0       -6.727286    0.981470    0.769457
     46          1           0       -6.003728    2.575652    0.478779
     47          1           0        4.155326   -2.543276   -0.626191
     48          1           0        5.927602   -0.877706   -0.342920
 ---------------------------------------------------------------------

 The electronic state is 1-A.
 Alpha  occ. eigenvalues --  -19.17369 -19.12628 -19.11327 -14.43314 -14.39698
 Alpha  occ. eigenvalues --  -14.36993 -14.33776 -10.30699 -10.29180 -10.25285
 Alpha  occ. eigenvalues --  -10.25192 -10.24868 -10.24707 -10.24493 -10.24326
 Alpha  occ. eigenvalues --  -10.23657 -10.23083 -10.21109 -10.21054 -10.20355
 Alpha  occ. eigenvalues --  -10.19340 -10.19156 -10.18831 -10.18571 -10.18503
 Alpha  occ. eigenvalues --  -10.18099  -1.07761  -1.05929  -1.03437  -1.02218
 Alpha  occ. eigenvalues --   -0.93889  -0.90779  -0.88747  -0.85109  -0.84394
 Alpha  occ. eigenvalues --   -0.78256  -0.78180  -0.75479  -0.74265  -0.74258
 Alpha  occ. eigenvalues --   -0.73389  -0.70208  -0.68736  -0.67580  -0.64206
 Alpha  occ. eigenvalues --   -0.63182  -0.60943  -0.58071  -0.57572  -0.55438
 Alpha  occ. eigenvalues --   -0.53940  -0.53044  -0.52632  -0.50195  -0.49048
 Alpha  occ. eigenvalues --   -0.48317  -0.47356  -0.46591  -0.46137  -0.45310
 Alpha  occ. eigenvalues --   -0.44775  -0.44297  -0.44076  -0.43412  -0.43044
 Alpha  occ. eigenvalues --   -0.42811  -0.42541  -0.42194  -0.41697  -0.40808
 Alpha  occ. eigenvalues --   -0.40566  -0.40218  -0.39843  -0.39642  -0.38674
 Alpha  occ. eigenvalues --   -0.37969  -0.37388  -0.36944  -0.36542  -0.36155
 Alpha  occ. eigenvalues --   -0.36067  -0.35203  -0.34657  -0.33138  -0.32185
 Alpha  occ. eigenvalues --   -0.31805  -0.31341  -0.29652  -0.26321  -0.25589
 Alpha  occ. eigenvalues --   -0.25054  -0.24357  -0.24027  -0.21517
 Alpha virt. eigenvalues --   -0.08423  -0.01128  -0.00212   0.00652   0.02491
 Alpha virt. eigenvalues --    0.03310   0.05233   0.07821   0.08602   0.09475
 Alpha virt. eigenvalues --    0.10895   0.11262   0.11535   0.12004   0.12867

 Mulliken charges:
               1
     1  C   -0.462931
     2  C   -0.037100
     3  O   -0.518174
     4  C    0.380428
     5  C   -0.183217
     6  C   -0.205230
     7  C    0.164702
     8  C   -0.257223
     9  N   -0.407628
    10  C   -0.325935
    11  C    0.615823
    12  O   -0.512808
    13  C   -0.248316
    14  N   -0.301490
    15  N   -0.285727
    16  C    0.269401
    17  C   -0.519425
    18  C    0.165424
    19  C   -0.547326
    20  C    0.006717
    21  C    0.282816
    22  N   -0.484626
    23  C    0.631487
    24  O   -0.526851
    25  C   -0.201878
    26  C   -0.191226
    27  H    0.147978
    28  H    0.166120
    29  H    0.161937
    30  H    0.141700
    31  H    0.158193
    32  H    0.149703
    33  H    0.185452
    34  H    0.170742
    35  H    0.154475
    36  H    0.206465
    37  H    0.171961
    38  H    0.149113
    39  H    0.202943
    40  H    0.197323
    41  H    0.171157
    42  H    0.186797
    43  H    0.165257
    44  H    0.179190
    45  H    0.183837
    46  H    0.197575
    47  H    0.121111
    48  H    0.131285
 Sum of Mulliken charges =  -0.00000

 Dipole moment (field-independent basis, Debye):
    X=              0.8051    Y=             -4.7383    Z=             -3.8134  Tot=              6.1353
 Quadrupole moment (field-independent basis, Debye-Ang):
   XX=            -99.1127   YY=           -164.9665   ZZ=           -153.4544
   XY=              2.2811   XZ=              8.1386   YZ=             -3.0686

 Normal termination of Gaussian 16 at Fri Nov  4 19:15:29 2022.
