 Gaussian 16, Revision B.01,
 Gaussian 16:  ES64L-G16RevB.01 20-Dec-2017

 -------------------------------------------------------------------
 #p b3lyp/6-31g(d) 6D 10F nosymm GFInput td=(50-50,nstate=2) SCF=XQC
 -------------------------------------------------------------------

 ------------------------------
 Gaussian input prepared by ASE
 ------------------------------
 Symbolic Z-matrix:
 Charge =  0 Multiplicity = 1

                          Input orientation:
 ---------------------------------------------------------------------
 Center     Atomic      Atomic             Coordinates (Angstroms)
 Number     Number       Type             X           Y           Z
 ---------------------------------------------------------------------
      1          6           0        7.019044    2.823083    2.344812
      2          6           0        6.945670    1.754245    1.263248
      3          8           0        7.946374    1.120210    0.955931
      4          6           0        5.638285    1.499413    0.592352
      5          6           0        4.458428    2.197349    0.909810
      6          6           0        3.267859    1.920801    0.255240
      7          6           0        3.223872    0.932057   -0.742160
      8          8           0        2.013825    0.736640   -1.324796
      9          6           0        1.881240   -0.257202   -2.348444
     10          6           0        0.431792   -0.270250   -2.809251
     11          6           0       -0.539159   -0.682032   -1.700083
     12          6           0       -1.970511   -0.724441   -2.200849
     13          8           0       -2.264863   -0.553140   -3.376068
     14          7           0       -3.004248   -0.940390   -1.292978
     15          6           0       -3.041282   -1.276101    0.059728
     16          7           0       -1.919804   -1.606385    0.696388
     17          6           0       -2.003969   -1.973906    1.983561
     18          6           0       -3.201019   -2.050672    2.681773
     19          6           0       -4.376314   -1.688144    2.013879
     20          6           0       -4.321782   -1.275059    0.686767
     21          7           0       -5.455949   -0.880495   -0.085911
     22          6           0       -5.616820    0.576758   -0.188072
     23          6           0       -6.712419   -1.543505    0.248553
     24          6           0        4.392531    0.226567   -1.071969
     25          6           0        5.578218    0.516055   -0.405332
     26          1           0        8.043336    2.870426    2.718412
     27          1           0        6.731496    3.805397    1.951013
     28          1           0        6.341003    2.593177    3.175566
     29          1           0        4.465985    2.966188    1.676511
     30          1           0        2.353457    2.454556    0.494228
     31          1           0        2.177347   -1.237694   -1.948394
     32          1           0        2.549777   -0.012637   -3.185056
     33          1           0        0.344988   -0.960485   -3.655646
     34          1           0        0.166722    0.720295   -3.194241
     35          1           0       -0.469363   -0.004212   -0.843357
     36          1           0       -0.283692   -1.666895   -1.291007
     37          1           0       -3.921690   -0.928397   -1.730756
     38          1           0       -1.061509   -2.234200    2.461362
     39          1           0       -3.221285   -2.373947    3.717682
     40          1           0       -5.330171   -1.720842    2.531796
     41          1           0       -4.674443    1.037023   -0.495829
     42          1           0       -6.374650    0.803233   -0.945606
     43          1           0       -5.930222    1.030909    0.767475
     44          1           0       -7.440146   -1.337153   -0.543396
     45          1           0       -6.556198   -2.624351    0.302051
     46          1           0       -7.152367   -1.202735    1.202501
     47          1           0        4.382494   -0.539082   -1.838900
     48          1           0        6.490130   -0.020029   -0.648267
 ---------------------------------------------------------------------

 SCF Done:  E(RB3LYP) =  -1127.81098878     A.U. after   15 cycles

 Excitation energies and oscillator strengths:

 Excited state symmetry could not be determined.
 Excited State   1:      Triplet-?Sym    3.1887 eV  388.83 nm  f=0.0000  <S**2>=2.000
      86 -> 95         0.18375
      90 -> 92         0.65926
      90 -> 97         0.11773
 This state for optimization and/or second-order correction.
 Total Energy, E(TD-HF/TD-DFT) =  -1127.69380664
 Copying the excited state density for this state as the 1-particle RhoCI density.

 Excited state symmetry could not be determined.
 Excited State   2:      Triplet-?Sym    3.3118 eV  374.38 nm  f=0.0000  <S**2>=2.000
      89 -> 92         0.68568
      89 -> 97        -0.16496

 Excited state symmetry could not be determined.
 Excited State   3:      Singlet-?Sym    3.8426 eV  322.66 nm  f=0.0001  <S**2>=0.000
      89 -> 92         0.69538
      89 -> 97        -0.12138

 Excited state symmetry could not be determined.
 Excited State   4:      Singlet-?Sym    4.4681 eV  277.49 nm  f=0.0755  <S**2>=0.000
      88 -> 93         0.14002
      88 -> 94         0.11587
      91 -> 93         0.66164

 Alpha  occ. eigenvalues --  -19.18312 -19.12236 -19.11845 -14.36903 -14.35959
 Alpha  occ. eigenvalues --  -14.33450 -10.29348 -10.27291 -10.26522 -10.25703
 Alpha  occ. eigenvalues --  -10.24511 -10.23713 -10.22799 -10.22386 -10.22298
 Alpha  occ. eigenvalues --  -10.21373 -10.20033 -10.19943 -10.19361 -10.19171
 Alpha  occ. eigenvalues --  -10.18974 -10.18831 -10.18751 -10.18638 -10.18194
 Alpha  occ. eigenvalues --   -1.06964  -1.03939  -1.02174  -0.97937  -0.94145
 Alpha  occ. eigenvalues --   -0.90842  -0.85620  -0.80562  -0.80102  -0.76401
 Alpha  occ. eigenvalues --   -0.75959  -0.75259  -0.72772  -0.72533  -0.70720
 Alpha  occ. eigenvalues --   -0.67602  -0.65792  -0.63126  -0.61378  -0.60984
 Alpha  occ. eigenvalues --   -0.59237  -0.56864  -0.54896  -0.54717  -0.53620
 Alpha  occ. eigenvalues --   -0.51393  -0.50513  -0.48388  -0.47833  -0.47593
 Alpha  occ. eigenvalues --   -0.47189  -0.46989  -0.46076  -0.45591  -0.45325
 Alpha  occ. eigenvalues --   -0.44932  -0.43433  -0.42495  -0.42338  -0.42011
 Alpha  occ. eigenvalues --   -0.41519  -0.41255  -0.40716  -0.40345  -0.40137
 Alpha  occ. eigenvalues --   -0.39266  -0.38841  -0.38734  -0.38345  -0.37579
 Alpha  occ. eigenvalues --   -0.36832  -0.36205  -0.35272  -0.34807  -0.34296
 Alpha  occ. eigenvalues --   -0.32402  -0.31443  -0.31341  -0.29580  -0.27067
 Alpha  occ. eigenvalues --   -0.25669  -0.25452  -0.24867  -0.23742  -0.22397
 Alpha  occ. eigenvalues --   -0.21786
 Alpha virt. eigenvalues --   -0.04031  -0.02917  -0.01786  -0.00391   0.03861
 Alpha virt. eigenvalues --    0.05562   0.07444   0.09273   0.09309   0.09784
 Alpha virt. eigenvalues --    0.11763   0.12340   0.12601   0.13033   0.13234

 Mulliken charges:
               1
     1  C   -0.542489
     2  C    0.403855
     3  O   -0.464239
     4  C    0.075942
     5  C   -0.186351
     6  C   -0.181043
     7  C    0.394770
     8  O   -0.516991
     9  C   -0.048631
    10  C   -0.274976
    11  C   -0.345152
    12  C    0.594948
    13  O   -0.497503
    14  N   -0.690864
    15  C    0.515262
    16  N   -0.522060
    17  C    0.043391
    18  C   -0.165084
    19  C   -0.141542
    20  C    0.237037
    21  N   -0.485359
    22  C   -0.311645
    23  C   -0.307875
    24  C   -0.194339
    25  C   -0.172199
    26  H    0.178497
    27  H    0.167741
    28  H    0.167061
    29  H    0.133553
    30  H    0.139917
    31  H    0.142350
    32  H    0.147575
    33  H    0.159666
    34  H    0.163420
    35  H    0.185963
    36  H    0.180671
    37  H    0.350723
    38  H    0.143593
    39  H    0.137671
    40  H    0.142822
    41  H    0.171384
    42  H    0.160579
    43  H    0.140531
    44  H    0.161893
    45  H    0.167888
    46  H    0.133607
    47  H    0.141597
    48  H    0.164434
 Sum of Mulliken charges =  -0.00000

 Dipole moment (field-independent basis, Debye):
    X=             -6.2991    Y=             -0.0713    Z=              3.0461  Tot=              6.9973
 Quadrupole moment (field-independent basis, Debye-Ang):
   XX=           -158.3163   YY=           -139.3279   ZZ=           -147.4473
   XY=              3.7340   XZ=            -13.2361   YZ=              1.9388

 Normal termination of Gaussian 16 at Sat Nov  5 11:43:30 2022.
