 Gaussian 16, Revision B.01,
 Gaussian 16:  ES64L-G16RevB.01 20-Dec-2017

 -----------------------------
 #p b3lyp/6-31g(d) opt SCF=XQC
 -----------------------------

 ------------------------------
 Gaussian input prepared by ASE
 ------------------------------
 Symbolic Z-matrix:
 Charge =  0 Multiplicity = 1

 SCF Done:  E(RB3LYP) =  -1127.80456560     A.U. after   15 cycles
 SCF Done:  E(RB3LYP) =  -1127.80842344     A.U. after   13 cycles
 SCF Done:  E(RB3LYP) =  -1127.81016152     A.U. after   12 cycles
 SCF Done:  E(RB3LYP) =  -1127.81046629     A.U. after   12 cycles
 SCF Done:  E(RB3LYP) =  -1127.81084807     A.U. after   11 cycles
 SCF Done:  E(RB3LYP) =  -1127.81089270     A.U. after   12 cycles
 SCF Done:  E(RB3LYP) =  -1127.81096073     A.U. after   10 cycles
 SCF Done:  E(RB3LYP) =  -1127.81097225     A.U. after    9 cycles
 SCF Done:  E(RB3LYP) =  -1127.81098167     A.U. after    9 cycles
 SCF Done:  E(RB3LYP) =  -1127.81098310     A.U. after    9 cycles
 SCF Done:  E(RB3LYP) =  -1127.81098376     A.U. after    8 cycles
 SCF Done:  E(RB3LYP) =  -1127.81098398     A.U. after    8 cycles
 SCF Done:  E(RB3LYP) =  -1127.81098405     A.U. after    7 cycles
 SCF Done:  E(RB3LYP) =  -1127.81098407     A.U. after    7 cycles
 Optimization completed.
    -- Stationary point found.

                         Standard orientation:
 ---------------------------------------------------------------------
 Center     Atomic      Atomic             Coordinates (Angstroms)
 Number     Number       Type             X           Y           Z
 ---------------------------------------------------------------------
      1          6           0        7.357576   -2.189440    1.076809
      2          6           0        6.977287   -1.109991    0.072942
      3          8           0        7.776500   -0.758220   -0.784594
      4          6           0        5.620721   -0.496059    0.157293
      5          6           0        4.664296   -0.865874    1.120850
      6          6           0        3.416127   -0.263133    1.155111
      7          6           0        3.087591    0.733353    0.220532
      8          8           0        1.843618    1.263223    0.337305
      9          6           0        1.426959    2.282091   -0.580007
     10          6           0        0.001385    2.679482   -0.228961
     11          6           0       -0.994178    1.529967   -0.402265
     12          6           0       -2.411154    1.968124   -0.083631
     13          8           0       -2.702689    3.129099    0.169890
     14          7           0       -3.427468    1.016602   -0.049135
     15          6           0       -3.489992   -0.335773   -0.382390
     16          7           0       -2.459470   -0.922433   -0.987361
     17          6           0       -2.578212   -2.211323   -1.338974
     18          6           0       -3.726944   -2.960756   -1.126642
     19          6           0       -4.802894   -2.345295   -0.476745
     20          6           0       -4.703238   -1.017881   -0.073162
     21          7           0       -5.735816   -0.296010    0.598947
     22          6           0       -5.535555   -0.203802    2.051977
     23          6           0       -7.102141   -0.683472    0.262503
     24          6           0        4.030794    1.115036   -0.747424
     25          6           0        5.277938    0.500001   -0.768093
     26          1           0        8.376418   -2.518254    0.865064
     27          1           0        7.305654   -1.810443    2.104606
     28          1           0        6.678940   -3.048429    1.010937
     29          1           0        4.893598   -1.633030    1.854262
     30          1           0        2.672825   -0.542689    1.895036
     31          1           0        1.487878    1.897216   -1.608231
     32          1           0        2.099775    3.146490   -0.497511
     33          1           0       -0.288519    3.522657   -0.865634
     34          1           0       -0.026374    3.050639    0.801151
     35          1           0       -0.723377    0.675755    0.226446
     36          1           0       -0.973306    1.134318   -1.424806
     37          1           0       -4.330875    1.414062    0.194535
     38          1           0       -1.710303   -2.647193   -1.829920
     39          1           0       -3.783351   -3.995930   -1.447980
     40          1           0       -5.712812   -2.904120   -0.279476
     41          1           0       -4.522302    0.143723    2.269180
     42          1           0       -6.244737    0.519628    2.468108
     43          1           0       -5.686894   -1.172959    2.557324
     44          1           0       -7.788590    0.075689    0.652139
     45          1           0       -7.215879   -0.728005   -0.824040
     46          1           0       -7.404082   -1.656309    0.689253
     47          1           0        3.799871    1.882308   -1.477129
     48          1           0        6.018089    0.783398   -1.509611
 ---------------------------------------------------------------------

 The electronic state is 1-A.
 Alpha  occ. eigenvalues --  -19.18312 -19.12236 -19.11845 -14.36903 -14.35959
 Alpha  occ. eigenvalues --  -14.33450 -10.29348 -10.27291 -10.26522 -10.25703
 Alpha  occ. eigenvalues --  -10.24511 -10.23713 -10.22799 -10.22386 -10.22298
 Alpha  occ. eigenvalues --  -10.21373 -10.20033 -10.19944 -10.19361 -10.19171
 Alpha  occ. eigenvalues --  -10.18974 -10.18831 -10.18752 -10.18638 -10.18194
 Alpha  occ. eigenvalues --   -1.06964  -1.03939  -1.02174  -0.97937  -0.94145
 Alpha  occ. eigenvalues --   -0.90842  -0.85620  -0.80562  -0.80102  -0.76401
 Alpha  occ. eigenvalues --   -0.75959  -0.75259  -0.72772  -0.72533  -0.70720
 Alpha  occ. eigenvalues --   -0.67602  -0.65792  -0.63126  -0.61378  -0.60984
 Alpha  occ. eigenvalues --   -0.59237  -0.56864  -0.54896  -0.54717  -0.53620
 Alpha  occ. eigenvalues --   -0.51393  -0.50513  -0.48388  -0.47833  -0.47593
 Alpha  occ. eigenvalues --   -0.47189  -0.46989  -0.46076  -0.45591  -0.45325
 Alpha  occ. eigenvalues --   -0.44932  -0.43433  -0.42495  -0.42338  -0.42011
 Alpha  occ. eigenvalues --   -0.41519  -0.41255  -0.40716  -0.40345  -0.40137
 Alpha  occ. eigenvalues --   -0.39266  -0.38841  -0.38734  -0.38345  -0.37579
 Alpha  occ. eigenvalues --   -0.36832  -0.36205  -0.35272  -0.34807  -0.34296
 Alpha  occ. eigenvalues --   -0.32402  -0.31443  -0.31341  -0.29580  -0.27067
 Alpha  occ. eigenvalues --   -0.25669  -0.25452  -0.24867  -0.23742  -0.22397
 Alpha  occ. eigenvalues --   -0.21786
 Alpha virt. eigenvalues --   -0.04031  -0.02917  -0.01786  -0.00391   0.03861
 Alpha virt. eigenvalues --    0.05562   0.07444   0.09273   0.09309   0.09784
 Alpha virt. eigenvalues --    0.11763   0.12340   0.12601   0.13033   0.13234

 Mulliken charges:
               1
     1  C   -0.542487
     2  C    0.403851
     3  O   -0.464237
     4  C    0.075923
     5  C   -0.186338
     6  C   -0.181037
     7  C    0.394761
     8  O   -0.516995
     9  C   -0.048630
    10  C   -0.274980
    11  C   -0.345151
    12  C    0.594939
    13  O   -0.497500
    14  N   -0.690857
    15  C    0.515287
    16  N   -0.522074
    17  C    0.043406
    18  C   -0.165110
    19  C   -0.141524
    20  C    0.237023
    21  N   -0.485370
    22  C   -0.311648
    23  C   -0.307865
    24  C   -0.194332
    25  C   -0.172188
    26  H    0.178497
    27  H    0.167741
    28  H    0.167061
    29  H    0.133553
    30  H    0.139917
    31  H    0.142350
    32  H    0.147575
    33  H    0.159667
    34  H    0.163420
    35  H    0.185962
    36  H    0.180672
    37  H    0.350721
    38  H    0.143593
    39  H    0.137673
    40  H    0.142823
    41  H    0.171385
    42  H    0.160580
    43  H    0.140531
    44  H    0.161892
    45  H    0.167887
    46  H    0.133605
    47  H    0.141596
    48  H    0.164433
 Sum of Mulliken charges =  -0.00000

 Dipole moment (field-independent basis, Debye):
    X=             -5.9888    Y=             -3.3168    Z=              1.4475  Tot=              6.9973
 Quadrupole moment (field-independent basis, Debye-Ang):
   XX=           -153.5879   YY=           -145.3400   ZZ=           -142.1024
   XY=             13.5193   XZ=              7.2279   YZ=             -5.4310

 Normal termination of Gaussian 16 at Fri Nov  4 19:06:46 2022.
