 Gaussian 16, Revision B.01,
 Gaussian 16:  ES64L-G16RevB.01 20-Dec-2017

 -----------------------------
 #p b3lyp/6-31g(d) opt SCF=XQC
 -----------------------------

 ------------------------------
 Gaussian input prepared by ASE
 ------------------------------
 Symbolic Z-matrix:
 Charge =  0 Multiplicity = 1

 SCF Done:  E(RB3LYP) =  -1411.48515077     A.U. after   15 cycles
 SCF Done:  E(RB3LYP) =  -1411.48270377     A.U. after   15 cycles
 SCF Done:  E(RB3LYP) =  -1411.48826867     A.U. after   13 cycles
 SCF Done:  E(RB3LYP) =  -1411.49099367     A.U. after   15 cycles
 SCF Done:  E(RB3LYP) =  -1411.49343571     A.U. after   14 cycles
 SCF Done:  E(RB3LYP) =  -1411.49465614     A.U. after   12 cycles
 SCF Done:  E(RB3LYP) =  -1411.49509782     A.U. after   12 cycles
 SCF Done:  E(RB3LYP) =  -1411.49538878     A.U. after   11 cycles
 SCF Done:  E(RB3LYP) =  -1411.49543600     A.U. after   12 cycles
 SCF Done:  E(RB3LYP) =  -1411.49562277     A.U. after   11 cycles
 SCF Done:  E(RB3LYP) =  -1411.49576668     A.U. after    9 cycles
 SCF Done:  E(RB3LYP) =  -1411.49577466     A.U. after   10 cycles
 SCF Done:  E(RB3LYP) =  -1411.49578384     A.U. after    9 cycles
 SCF Done:  E(RB3LYP) =  -1411.49579690     A.U. after   10 cycles
 SCF Done:  E(RB3LYP) =  -1411.49580222     A.U. after    9 cycles
 SCF Done:  E(RB3LYP) =  -1411.49580519     A.U. after    9 cycles
 SCF Done:  E(RB3LYP) =  -1411.49580769     A.U. after    9 cycles
 SCF Done:  E(RB3LYP) =  -1411.49580789     A.U. after    8 cycles
 SCF Done:  E(RB3LYP) =  -1411.49580798     A.U. after    7 cycles
 SCF Done:  E(RB3LYP) =  -1411.49580801     A.U. after    7 cycles
 Optimization completed.
    -- Stationary point found.

                         Standard orientation:
 ---------------------------------------------------------------------
 Center     Atomic      Atomic             Coordinates (Angstroms)
 Number     Number       Type             X           Y           Z
 ---------------------------------------------------------------------
      1          6           0       -6.452023   -1.135673   -1.706903
      2          7           0       -5.213626   -0.476673   -1.327838
      3          6           0       -4.572950   -0.782362   -0.156043
      4          8           0       -4.965244   -1.668748    0.598039
      5          6           0       -3.342928    0.026252    0.154157
      6          6           0       -2.932633    0.090789    1.493376
      7          6           0       -1.798977    0.811753    1.850432
      8          6           0       -1.035629    1.477841    0.880340
      9          6           0        0.188702    2.280717    1.314131
     10          7           0        1.057853    2.739700    0.241179
     11          6           0        0.938160    4.134083   -0.167138
     12          6           0        2.084481    1.983346   -0.312901
     13          8           0        2.888897    2.464198   -1.106401
     14          7           0        2.102349    0.657317    0.094029
     15          6           0        3.054321   -0.327990   -0.206621
     16          6           0        4.214069   -0.079276   -0.960340
     17          6           0        5.126053   -1.104559   -1.199072
     18          6           0        4.917062   -2.390542   -0.699982
     19          6           0        3.768475   -2.645385    0.045970
     20          6           0        2.830478   -1.637655    0.292633
     21         16           0        1.384254   -2.018742    1.290999
     22          6           0        0.152962   -2.454485   -0.004242
     23          6           0       -1.431299    1.394890   -0.457449
     24          6           0       -2.574068    0.678178   -0.817541
     25          1           0       -7.336482   -0.607772   -1.325596
     26          1           0       -6.518786   -1.199260   -2.797176
     27          1           0       -6.444480   -2.140149   -1.282367
     28          1           0       -4.984236    0.395379   -1.781783
     29          1           0       -3.516172   -0.441669    2.237227
     30          1           0       -1.495548    0.851729    2.894600
     31          1           0        0.766623    1.703107    2.047883
     32          1           0       -0.149290    3.172936    1.855912
     33          1           0       -0.099544    4.363214   -0.437305
     34          1           0        1.583974    4.296857   -1.028451
     35          1           0        1.246612    4.812909    0.639998
     36          1           0        1.347467    0.307289    0.673177
     37          1           0        4.377354    0.915413   -1.349326
     38          1           0        6.015954   -0.886303   -1.783875
     39          1           0        5.635990   -3.183015   -0.886253
     40          1           0        3.583030   -3.635600    0.451442
     41          1           0        0.479400   -3.337180   -0.558869
     42          1           0       -0.008983   -1.619306   -0.689488
     43          1           0       -0.783291   -2.674805    0.515440
     44          1           0       -0.832816    1.879353   -1.222965
     45          1           0       -2.835630    0.601224   -1.869752
 ---------------------------------------------------------------------

 The electronic state is 1-A.
 Alpha  occ. eigenvalues --  -88.87918 -19.11306 -19.10693 -14.36776 -14.36647
 Alpha  occ. eigenvalues --  -14.36572 -10.31508 -10.28996 -10.24482 -10.23939
 Alpha  occ. eigenvalues --  -10.22129 -10.21719 -10.21630 -10.21408 -10.21082
 Alpha  occ. eigenvalues --  -10.20936 -10.20926 -10.20492 -10.20435 -10.20235
 Alpha  occ. eigenvalues --  -10.19173 -10.18810 -10.18262 -10.17834  -7.93954
 Alpha  occ. eigenvalues --   -5.90472  -5.90098  -5.89438  -1.04577  -1.03232
 Alpha  occ. eigenvalues --   -0.94719  -0.93056  -0.92279  -0.87061  -0.84670
 Alpha  occ. eigenvalues --   -0.79137  -0.79086  -0.76000  -0.74703  -0.73225
 Alpha  occ. eigenvalues --   -0.73057  -0.70379  -0.69007  -0.64812  -0.62670
 Alpha  occ. eigenvalues --   -0.62516  -0.61532  -0.58628  -0.58245  -0.56210
 Alpha  occ. eigenvalues --   -0.55133  -0.54168  -0.51905  -0.49871  -0.48650
 Alpha  occ. eigenvalues --   -0.47545  -0.46588  -0.46230  -0.45754  -0.44822
 Alpha  occ. eigenvalues --   -0.44715  -0.43502  -0.43420  -0.43209  -0.42742
 Alpha  occ. eigenvalues --   -0.42553  -0.42089  -0.41811  -0.41227  -0.41106
 Alpha  occ. eigenvalues --   -0.40010  -0.39537  -0.39429  -0.38651  -0.37523
 Alpha  occ. eigenvalues --   -0.36678  -0.36015  -0.35881  -0.35306  -0.34789
 Alpha  occ. eigenvalues --   -0.31788  -0.30494  -0.26780  -0.26549  -0.26058
 Alpha  occ. eigenvalues --   -0.25690  -0.24942  -0.24676  -0.24249  -0.23447
 Alpha  occ. eigenvalues --   -0.21209
 Alpha virt. eigenvalues --   -0.04179  -0.01787  -0.01326   0.00205   0.04940
 Alpha virt. eigenvalues --    0.05067   0.06609   0.07465   0.07516   0.08585
 Alpha virt. eigenvalues --    0.10432   0.10929   0.11862   0.12004   0.12354

 Mulliken charges:
               1
     1  C   -0.304460
     2  N   -0.599606
     3  C    0.552269
     4  O   -0.520960
     5  C    0.072663
     6  C   -0.162448
     7  C   -0.175569
     8  C    0.144440
     9  C   -0.252810
    10  N   -0.452559
    11  C   -0.322055
    12  C    0.791602
    13  O   -0.540101
    14  N   -0.777051
    15  C    0.353232
    16  C   -0.153611
    17  C   -0.145516
    18  C   -0.119838
    19  C   -0.145495
    20  C   -0.183392
    21  S    0.063232
    22  C   -0.580952
    23  C   -0.180935
    24  C   -0.190933
    25  H    0.160584
    26  H    0.154441
    27  H    0.200525
    28  H    0.325574
    29  H    0.167284
    30  H    0.136250
    31  H    0.177817
    32  H    0.178622
    33  H    0.150212
    34  H    0.208225
    35  H    0.154486
    36  H    0.369475
    37  H    0.190213
    38  H    0.134036
    39  H    0.128328
    40  H    0.144587
    41  H    0.185787
    42  H    0.187033
    43  H    0.193959
    44  H    0.149342
    45  H    0.134074
 Sum of Mulliken charges =  -0.00000

 Dipole moment (field-independent basis, Debye):
    X=             -2.6849    Y=              2.1478    Z=             -1.3649  Tot=              3.6993
 Quadrupole moment (field-independent basis, Debye-Ang):
   XX=           -148.2091   YY=           -144.3067   ZZ=           -143.2516
   XY=            -16.2729   XZ=             14.2645   YZ=              9.2419

 Normal termination of Gaussian 16 at Fri Nov  4 19:44:27 2022.
