 Gaussian 16, Revision B.01,
 Gaussian 16:  ES64L-G16RevB.01 20-Dec-2017

 -------------------------------------------------------------------
 #p b3lyp/6-31g(d) 6D 10F nosymm GFInput td=(50-50,nstate=2) SCF=XQC
 -------------------------------------------------------------------

 ------------------------------
 Gaussian input prepared by ASE
 ------------------------------
 Symbolic Z-matrix:
 Charge =  0 Multiplicity = 1

                          Input orientation:
 ---------------------------------------------------------------------
 Center     Atomic      Atomic             Coordinates (Angstroms)
 Number     Number       Type             X           Y           Z
 ---------------------------------------------------------------------
      1          6           0        5.659816    1.729474   -2.732159
      2          7           0        4.645619    1.072319   -1.925220
      3          6           0        3.964149    1.747987   -0.947423
      4          8           0        4.118945    2.949528   -0.746050
      5          6           0        2.996604    0.932805   -0.133561
      6          6           0        2.637694    1.426398    1.128803
      7          6           0        1.740565    0.729755    1.930242
      8          6           0        1.166523   -0.471921    1.489901
      9          6           0        0.204760   -1.221803    2.408846
     10          7           0       -0.527609   -2.320827    1.798030
     11          6           0       -0.049241   -3.672480    2.061751
     12          6           0       -1.725786   -2.175746    1.107837
     13          8           0       -2.385850   -3.144989    0.743376
     14          7           0       -2.087904   -0.859792    0.860054
     15          6           0       -3.270956   -0.382302    0.277075
     16          6           0       -4.334487   -1.215672   -0.109399
     17          6           0       -5.488650   -0.665608   -0.661894
     18          6           0       -5.620073    0.711644   -0.841970
     19          6           0       -4.569039    1.543980   -0.463570
     20          6           0       -3.394322    1.018474    0.084228
     21         16           0       -2.085993    2.145875    0.584997
     22          6           0       -1.033011    2.173521   -0.923003
     23          6           0        1.506480   -0.952503    0.222390
     24          6           0        2.413477   -0.258866   -0.581034
     25          1           0        6.657925    1.663501   -2.278542
     26          1           0        5.691378    1.276721   -3.727756
     27          1           0        5.392991    2.783321   -2.818601
     28          1           0        4.648510    0.063325   -1.892317
     29          1           0        3.070395    2.365847    1.456751
     30          1           0        1.473875    1.127094    2.907458
     31          1           0       -0.494570   -0.510867    2.868765
     32          1           0        0.774688   -1.643399    3.246257
     33          1           0        1.008028   -3.762131    1.785227
     34          1           0       -0.641529   -4.368484    1.469971
     35          1           0       -0.155216   -3.931826    3.124261
     36          1           0       -1.444132   -0.115321    1.103155
     37          1           0       -4.234453   -2.282735    0.027527
     38          1           0       -6.297564   -1.331422   -0.951554
     39          1           0       -6.525712    1.132805   -1.268593
     40          1           0       -4.646281    2.620134   -0.587055
     41          1           0       -1.589466    2.583494   -1.768936
     42          1           0       -0.665923    1.173397   -1.164482
     43          1           0       -0.180904    2.820378   -0.697906
     44          1           0        1.046353   -1.864964   -0.144489
     45          1           0        2.629894   -0.638120   -1.576431
 ---------------------------------------------------------------------

 SCF Done:  E(RB3LYP) =  -1411.49580581     A.U. after   15 cycles

 Excitation energies and oscillator strengths:

 Excited state symmetry could not be determined.
 Excited State   1:      Triplet-?Sym    3.5213 eV  352.10 nm  f=0.0000  <S**2>=2.000
      88 -> 94         0.27171
      88 -> 95        -0.16714
      89 -> 94         0.16836
      91 -> 94         0.40549
      91 -> 95         0.38692
 This state for optimization and/or second-order correction.
 Total Energy, E(TD-HF/TD-DFT) =  -1411.36640221
 Copying the excited state density for this state as the 1-particle RhoCI density.

 Excited state symmetry could not be determined.
 Excited State   2:      Triplet-?Sym    3.5313 eV  351.10 nm  f=0.0000  <S**2>=2.000
      83 -> 92        -0.15289
      83 -> 93        -0.30426
      84 -> 92        -0.26097
      84 -> 93         0.11576
      86 -> 92        -0.39569
      87 -> 92        -0.16032
      88 -> 92        -0.13633
      89 -> 92         0.20804
      90 -> 92         0.12010

 Excited state symmetry could not be determined.
 Excited State   3:      Singlet-?Sym    4.1320 eV  300.06 nm  f=0.0038  <S**2>=0.000
      91 -> 92         0.70361

 Excited state symmetry could not be determined.
 Excited State   4:      Singlet-?Sym    4.5282 eV  273.80 nm  f=0.0041  <S**2>=0.000
      84 -> 92        -0.28325
      86 -> 92         0.10225
      87 -> 92         0.53755
      88 -> 92         0.19465
      89 -> 92        -0.22319

 Alpha  occ. eigenvalues --  -88.87918 -19.11306 -19.10693 -14.36776 -14.36647
 Alpha  occ. eigenvalues --  -14.36572 -10.31508 -10.28996 -10.24482 -10.23939
 Alpha  occ. eigenvalues --  -10.22129 -10.21719 -10.21630 -10.21408 -10.21082
 Alpha  occ. eigenvalues --  -10.20936 -10.20926 -10.20492 -10.20435 -10.20235
 Alpha  occ. eigenvalues --  -10.19173 -10.18810 -10.18262 -10.17834  -7.93954
 Alpha  occ. eigenvalues --   -5.90472  -5.90098  -5.89438  -1.04577  -1.03232
 Alpha  occ. eigenvalues --   -0.94719  -0.93056  -0.92279  -0.87061  -0.84670
 Alpha  occ. eigenvalues --   -0.79137  -0.79085  -0.76000  -0.74703  -0.73225
 Alpha  occ. eigenvalues --   -0.73057  -0.70379  -0.69007  -0.64812  -0.62670
 Alpha  occ. eigenvalues --   -0.62516  -0.61532  -0.58628  -0.58245  -0.56210
 Alpha  occ. eigenvalues --   -0.55133  -0.54168  -0.51905  -0.49871  -0.48650
 Alpha  occ. eigenvalues --   -0.47545  -0.46588  -0.46230  -0.45754  -0.44822
 Alpha  occ. eigenvalues --   -0.44715  -0.43502  -0.43420  -0.43209  -0.42742
 Alpha  occ. eigenvalues --   -0.42553  -0.42089  -0.41811  -0.41227  -0.41106
 Alpha  occ. eigenvalues --   -0.40010  -0.39537  -0.39429  -0.38651  -0.37523
 Alpha  occ. eigenvalues --   -0.36678  -0.36015  -0.35881  -0.35306  -0.34789
 Alpha  occ. eigenvalues --   -0.31788  -0.30494  -0.26780  -0.26549  -0.26058
 Alpha  occ. eigenvalues --   -0.25690  -0.24942  -0.24676  -0.24249  -0.23446
 Alpha  occ. eigenvalues --   -0.21209
 Alpha virt. eigenvalues --   -0.04179  -0.01787  -0.01326   0.00205   0.04940
 Alpha virt. eigenvalues --    0.05067   0.06609   0.07465   0.07516   0.08585
 Alpha virt. eigenvalues --    0.10432   0.10929   0.11862   0.12004   0.12354

 Mulliken charges:
               1
     1  C   -0.304463
     2  N   -0.599611
     3  C    0.552281
     4  O   -0.520963
     5  C    0.072679
     6  C   -0.162462
     7  C   -0.175572
     8  C    0.144466
     9  C   -0.252812
    10  N   -0.452562
    11  C   -0.322059
    12  C    0.791596
    13  O   -0.540100
    14  N   -0.777030
    15  C    0.353198
    16  C   -0.153584
    17  C   -0.145513
    18  C   -0.119845
    19  C   -0.145491
    20  C   -0.183394
    21  S    0.063244
    22  C   -0.580967
    23  C   -0.180952
    24  C   -0.190938
    25  H    0.160583
    26  H    0.154441
    27  H    0.200526
    28  H    0.325573
    29  H    0.167284
    30  H    0.136248
    31  H    0.177818
    32  H    0.178621
    33  H    0.150214
    34  H    0.208226
    35  H    0.154486
    36  H    0.369473
    37  H    0.190209
    38  H    0.134035
    39  H    0.128328
    40  H    0.144587
    41  H    0.185792
    42  H    0.187033
    43  H    0.193961
    44  H    0.149343
    45  H    0.134072
 Sum of Mulliken charges =  -0.00000

 Dipole moment (field-independent basis, Debye):
    X=              3.1372    Y=             -1.8701    Z=             -0.5876  Tot=              3.6993
 Quadrupole moment (field-independent basis, Debye-Ang):
   XX=           -141.4441   YY=           -161.5554   ZZ=           -134.9410
   XY=            -17.9193   XZ=             -1.9946   YZ=             -2.9853

 Normal termination of Gaussian 16 at Sat Nov  5 11:43:59 2022.
