 Gaussian 16, Revision B.01,
 Gaussian 16:  ES64L-G16RevB.01 20-Dec-2017

 -------------------------------------------------------------------
 #p b3lyp/6-31g(d) 6D 10F nosymm GFInput td=(50-50,nstate=2) SCF=XQC
 -------------------------------------------------------------------

 ------------------------------
 Gaussian input prepared by ASE
 ------------------------------
 Symbolic Z-matrix:
 Charge =  0 Multiplicity = 1

                          Input orientation:
 ---------------------------------------------------------------------
 Center     Atomic      Atomic             Coordinates (Angstroms)
 Number     Number       Type             X           Y           Z
 ---------------------------------------------------------------------
      1          6           0        9.590003   -2.495674    0.968019
      2          7           0        8.774288   -1.321876    0.725920
      3          6           0        7.770861   -1.306294   -0.187395
      4          8           0        7.435130   -2.268438   -0.868075
      5          6           0        7.014861    0.050752   -0.320248
      6          6           0        7.031638    0.438798   -1.804642
      7          8           0        7.745134    1.002225    0.477377
      8          6           0        7.290641    2.347429    0.436978
      9          6           0        5.604879   -0.152956    0.254161
     10          6           0        5.445256   -0.184416    1.653391
     11          6           0        4.200081   -0.393412    2.246862
     12          6           0        3.095010   -0.579309    1.421179
     13          6           0        3.247509   -0.554893    0.036787
     14          6           0        4.486934   -0.346080   -0.562289
     15          6           0        1.933638   -0.762203   -0.610334
     16          7           0        1.751561   -0.724592   -1.879376
     17          7           0        1.042383   -1.007594    0.437063
     18          6           0       -0.377255   -1.107817    0.272375
     19          6           0       -1.124269    0.239708    0.410703
     20          8           0       -0.501912    1.244355    0.721840
     21          6           0       -2.593578    0.264999    0.180686
     22          6           0       -3.330382   -0.871555   -0.167524
     23          6           0       -4.710548   -0.826384   -0.382066
     24          6           0       -5.494926   -2.107754   -0.767200
     25          6           0       -4.570383   -3.340962   -0.862338
     26          6           0       -6.148058   -1.957590   -2.168889
     27          6           0       -6.556008   -2.453928    0.313440
     28          6           0       -5.341763    0.436107   -0.231848
     29          8           0       -6.689272    0.586036   -0.421755
     30          6           0       -4.634500    1.616366    0.120874
     31          6           0       -5.342679    2.982096    0.278753
     32          6           0       -6.407671    2.911572    1.401473
     33          6           0       -4.345335    4.093897    0.666552
     34          6           0       -6.002185    3.405471   -1.057453
     35          6           0       -3.263509    1.488072    0.318554
     36          6           0        1.643699   -0.810427    1.756621
     37          1           0        9.613654   -2.740855    2.036155
     38          1           0       10.620066   -2.349474    0.618521
     39          1           0        9.144767   -3.325858    0.417517
     40          1           0        8.998283   -0.438701    1.162854
     41          1           0        8.053539    0.705924   -2.093637
     42          1           0        6.371550    1.285786   -2.013232
     43          1           0        6.717079   -0.413067   -2.409961
     44          1           0        6.223162    2.423672    0.678775
     45          1           0        7.471143    2.810264   -0.541628
     46          1           0        7.867257    2.887244    1.192728
     47          1           0        6.318298   -0.033737    2.280593
     48          1           0        4.106624   -0.408086    3.330076
     49          1           0        4.552858   -0.341901   -1.643938
     50          1           0        0.770963   -0.860234   -2.137831
     51          1           0       -0.783632   -1.811092    1.013746
     52          1           0       -0.591697   -1.548718   -0.708906
     53          1           0       -2.818197   -1.818096   -0.273859
     54          1           0       -5.166826   -4.218332   -1.134778
     55          1           0       -4.079886   -3.561495    0.091843
     56          1           0       -3.798761   -3.218251   -1.629834
     57          1           0       -6.849922   -1.121465   -2.260459
     58          1           0       -6.697390   -2.870125   -2.427578
     59          1           0       -5.375758   -1.798630   -2.928914
     60          1           0       -6.066507   -2.641084    1.275152
     61          1           0       -7.102125   -3.360302    0.027664
     62          1           0       -7.300374   -1.670329    0.491425
     63          1           0       -7.081737   -0.261934   -0.664535
     64          1           0       -7.186763    2.179763    1.182526
     65          1           0       -6.883824    3.892365    1.521908
     66          1           0       -5.942855    2.646016    2.358450
     67          1           0       -3.570138    4.238871   -0.094035
     68          1           0       -3.853178    3.893071    1.624728
     69          1           0       -4.887882    5.040264    0.767654
     70          1           0       -6.763696    2.694735   -1.382168
     71          1           0       -6.477916    4.386911   -0.940642
     72          1           0       -5.248915    3.491259   -1.849520
     73          1           0       -2.659070    2.343976    0.587898
     74          1           0        1.196502    0.054162    2.265683
     75          1           0        1.492031   -1.696243    2.392592
 ---------------------------------------------------------------------

 SCF Done:  E(RB3LYP) =  -1593.73314935     A.U. after   15 cycles

 Excitation energies and oscillator strengths:

 Excited state symmetry could not be determined.
 Excited State   1:      Triplet-?Sym    3.0733 eV  403.42 nm  f=0.0000  <S**2>=2.000
     126 ->136        -0.16628
     131 ->134         0.63579
     131 ->138         0.12723
     133 ->134        -0.17781
 This state for optimization and/or second-order correction.
 Total Energy, E(TD-HF/TD-DFT) =  -1593.62020620
 Copying the excited state density for this state as the 1-particle RhoCI density.

 Excited state symmetry could not be determined.
 Excited State   2:      Triplet-?Sym    3.1593 eV  392.45 nm  f=0.0000  <S**2>=2.000
     125 ->134         0.34366
     129 ->134        -0.15565
     131 ->134         0.18909
     132 ->134         0.14481
     133 ->134         0.51572

 Excited state symmetry could not be determined.
 Excited State   3:      Singlet-?Sym    3.4181 eV  362.73 nm  f=0.0027  <S**2>=0.000
     125 ->134         0.16851
     132 ->134         0.11726
     133 ->134         0.66183

 Excited state symmetry could not be determined.
 Excited State   4:      Singlet-?Sym    4.0991 eV  302.47 nm  f=0.0022  <S**2>=0.000
     125 ->134         0.49774
     127 ->134        -0.11609
     129 ->134        -0.25570
     130 ->134        -0.13228
     132 ->134         0.28900
     133 ->134        -0.24146

 Alpha  occ. eigenvalues --  -19.19346 -19.15600 -19.13652 -19.09613 -14.35137
 Alpha  occ. eigenvalues --  -14.34737 -14.28005 -10.27413 -10.27102 -10.26630
 Alpha  occ. eigenvalues --  -10.25027 -10.24346 -10.23337 -10.23022 -10.22781
 Alpha  occ. eigenvalues --  -10.22335 -10.20935 -10.20868 -10.20452 -10.20371
 Alpha  occ. eigenvalues --  -10.20061 -10.19801 -10.19778 -10.19495 -10.19310
 Alpha  occ. eigenvalues --  -10.19307 -10.19212 -10.19193 -10.18934 -10.18656
 Alpha  occ. eigenvalues --  -10.18316 -10.18253 -10.17128 -10.17069 -10.16715
 Alpha  occ. eigenvalues --  -10.16670  -1.07736  -1.03969  -1.03700  -1.01225
 Alpha  occ. eigenvalues --   -0.96578  -0.90691  -0.87014  -0.85634  -0.85403
 Alpha  occ. eigenvalues --   -0.83817  -0.81106  -0.79710  -0.76916  -0.75301
 Alpha  occ. eigenvalues --   -0.74283  -0.74168  -0.71080  -0.70881  -0.70680
 Alpha  occ. eigenvalues --   -0.70439  -0.68509  -0.68331  -0.68105  -0.67821
 Alpha  occ. eigenvalues --   -0.64647  -0.62902  -0.62343  -0.60629  -0.58797
 Alpha  occ. eigenvalues --   -0.58070  -0.56881  -0.56089  -0.54684  -0.53441
 Alpha  occ. eigenvalues --   -0.52555  -0.51633  -0.50473  -0.49849  -0.49640
 Alpha  occ. eigenvalues --   -0.49447  -0.48247  -0.47299  -0.47032  -0.46210
 Alpha  occ. eigenvalues --   -0.45817  -0.45312  -0.44802  -0.44376  -0.44209
 Alpha  occ. eigenvalues --   -0.44117  -0.43840  -0.43627  -0.43198  -0.43130
 Alpha  occ. eigenvalues --   -0.42726  -0.42350  -0.42029  -0.41280  -0.41013
 Alpha  occ. eigenvalues --   -0.40912  -0.40324  -0.39818  -0.39696  -0.39150
 Alpha  occ. eigenvalues --   -0.38793  -0.38669  -0.38363  -0.38074  -0.38007
 Alpha  occ. eigenvalues --   -0.37596  -0.37223  -0.36648  -0.36518  -0.36041
 Alpha  occ. eigenvalues --   -0.35830  -0.35370  -0.35281  -0.35201  -0.34593
 Alpha  occ. eigenvalues --   -0.34280  -0.33490  -0.33198  -0.33003  -0.32448
 Alpha  occ. eigenvalues --   -0.32060  -0.31572  -0.31133  -0.26634  -0.25743
 Alpha  occ. eigenvalues --   -0.25278  -0.24829  -0.24434  -0.23950  -0.23657
 Alpha  occ. eigenvalues --   -0.23028  -0.22848  -0.20789
 Alpha virt. eigenvalues --   -0.05112  -0.01634  -0.00887  -0.00308   0.04080
 Alpha virt. eigenvalues --    0.04889   0.04916   0.07358   0.07931   0.09259
 Alpha virt. eigenvalues --    0.09628   0.09752   0.11254   0.11519   0.11534

 Mulliken charges:
               1
     1  C   -0.308167
     2  N   -0.588124
     3  C    0.586902
     4  O   -0.533070
     5  C    0.200730
     6  C   -0.493686
     7  O   -0.535503
     8  C   -0.206788
     9  C    0.132634
    10  C   -0.169745
    11  C   -0.195681
    12  C    0.091312
    13  C    0.096625
    14  C   -0.237093
    15  C    0.496022
    16  N   -0.669488
    17  N   -0.484652
    18  C   -0.260605
    19  C    0.398007
    20  O   -0.464815
    21  C    0.123551
    22  C   -0.301160
    23  C    0.173431
    24  C   -0.020148
    25  C   -0.458094
    26  C   -0.459100
    27  C   -0.458465
    28  C    0.203591
    29  O   -0.642724
    30  C    0.153006
    31  C    0.032708
    32  C   -0.450619
    33  C   -0.457066
    34  C   -0.450741
    35  C   -0.269924
    36  C   -0.164760
    37  H    0.153035
    38  H    0.154493
    39  H    0.200946
    40  H    0.350545
    41  H    0.154771
    42  H    0.154046
    43  H    0.194436
    44  H    0.154432
    45  H    0.145386
    46  H    0.155060
    47  H    0.134345
    48  H    0.126342
    49  H    0.164310
    50  H    0.266918
    51  H    0.170322
    52  H    0.168264
    53  H    0.134553
    54  H    0.149485
    55  H    0.151423
    56  H    0.153751
    57  H    0.141637
    58  H    0.151950
    59  H    0.164456
    60  H    0.162082
    61  H    0.151682
    62  H    0.141735
    63  H    0.419042
    64  H    0.165972
    65  H    0.135797
    66  H    0.138829
    67  H    0.150865
    68  H    0.148204
    69  H    0.141835
    70  H    0.165659
    71  H    0.135740
    72  H    0.140987
    73  H    0.164938
    74  H    0.182809
    75  H    0.150613
 Sum of Mulliken charges =  -0.00000

 Dipole moment (field-independent basis, Debye):
    X=             -4.2881    Y=             -0.7704    Z=              3.1615  Tot=              5.3830
 Quadrupole moment (field-independent basis, Debye-Ang):
   XX=           -173.9706   YY=           -212.7436   ZZ=           -213.0880
   XY=             30.8117   XZ=             24.8852   YZ=             -5.2445

 Normal termination of Gaussian 16 at Sat Nov  5 11:50:43 2022.
