 Gaussian 16, Revision B.01,
 Gaussian 16:  ES64L-G16RevB.01 20-Dec-2017

 -----------------------------
 #p b3lyp/6-31g(d) opt SCF=XQC
 -----------------------------

 ------------------------------
 Gaussian input prepared by ASE
 ------------------------------
 Symbolic Z-matrix:
 Charge =  0 Multiplicity = 1

 SCF Done:  E(RB3LYP) =  -1593.72447351     A.U. after   15 cycles
 SCF Done:  E(RB3LYP) =  -1593.73216640     A.U. after   12 cycles
 SCF Done:  E(RB3LYP) =  -1593.73264891     A.U. after   12 cycles
 SCF Done:  E(RB3LYP) =  -1593.73289302     A.U. after   11 cycles
 SCF Done:  E(RB3LYP) =  -1593.73192271     A.U. after   12 cycles
 SCF Done:  E(RB3LYP) =  -1593.73301938     A.U. after   11 cycles
 SCF Done:  E(RB3LYP) =  -1593.73311106     A.U. after   10 cycles
 SCF Done:  E(RB3LYP) =  -1593.73312309     A.U. after    9 cycles
 SCF Done:  E(RB3LYP) =  -1593.73313583     A.U. after   10 cycles
 SCF Done:  E(RB3LYP) =  -1593.73314041     A.U. after   10 cycles
 SCF Done:  E(RB3LYP) =  -1593.73315407     A.U. after    9 cycles
 SCF Done:  E(RB3LYP) =  -1593.73315446     A.U. after    9 cycles
 SCF Done:  E(RB3LYP) =  -1593.73315468     A.U. after    7 cycles
 SCF Done:  E(RB3LYP) =  -1593.73315488     A.U. after    7 cycles
 SCF Done:  E(RB3LYP) =  -1593.73315504     A.U. after    7 cycles
 SCF Done:  E(RB3LYP) =  -1593.73315528     A.U. after    7 cycles
 SCF Done:  E(RB3LYP) =  -1593.73315544     A.U. after    7 cycles
 SCF Done:  E(RB3LYP) =  -1593.73315553     A.U. after    7 cycles
 SCF Done:  E(RB3LYP) =  -1593.73315557     A.U. after    7 cycles
 SCF Done:  E(RB3LYP) =  -1593.73315559     A.U. after    6 cycles
 Optimization completed.
    -- Stationary point found.

                         Standard orientation:
 ---------------------------------------------------------------------
 Center     Atomic      Atomic             Coordinates (Angstroms)
 Number     Number       Type             X           Y           Z
 ---------------------------------------------------------------------
      1          6           0       -9.344905   -1.565112   -0.900965
      2          7           0       -8.430903   -0.520783   -0.481698
      3          6           0       -7.398258   -0.752495    0.367541
      4          8           0       -7.116298   -1.848967    0.836590
      5          6           0       -6.533038    0.496443    0.717266
      6          6           0       -6.467441    0.591956    2.247254
      7          8           0       -7.212971    1.633002    0.150937
      8          6           0       -6.652280    2.909558    0.422598
      9          6           0       -5.164426    0.307331    0.045976
     10          6           0       -5.056521    0.534299   -1.340082
     11          6           0       -3.853180    0.355389   -2.022951
     12          6           0       -2.738268   -0.063891   -1.302765
     13          6           0       -2.840149   -0.295406    0.067057
     14          6           0       -4.037582   -0.118162    0.755106
     15          6           0       -1.525120   -0.716142    0.597793
     16          7           0       -1.296642   -0.936334    1.840510
     17          7           0       -0.693031   -0.818221   -0.519705
     18          6           0        0.719079   -1.048878   -0.447054
     19          6           0        1.565169    0.243534   -0.364638
     20          8           0        1.013865    1.330906   -0.449119
     21          6           0        3.038972    0.119630   -0.206626
     22          6           0        3.695141   -1.112110   -0.116371
     23          6           0        5.081171   -1.207244    0.034614
     24          6           0        5.774554   -2.591206    0.131349
     25          6           0        4.759149   -3.750807    0.036939
     26          6           0        6.485844   -2.760225    1.502248
     27          6           0        6.766700   -2.797603   -1.046175
     28          6           0        5.804750    0.012456    0.094989
     29          8           0        7.165682    0.026912    0.243237
     30          6           0        5.181315    1.285741    0.007121
     31          6           0        5.989477    2.602490    0.075718
     32          6           0        7.005877    2.673702   -1.091132
     33          6           0        5.070408    3.836133   -0.045214
     34          6           0        6.726470    2.713019    1.433756
     35          6           0        3.798431    1.295624   -0.143501
     36          6           0       -1.322347   -0.328728   -1.746916
     37          1           0       -9.425000   -1.597977   -1.993710
     38          1           0      -10.347388   -1.416030   -0.479833
     39          1           0       -8.947926   -2.515174   -0.540017
     40          1           0       -8.599326    0.443580   -0.732139
     41          1           0       -7.454324    0.870451    2.631518
     42          1           0       -5.735522    1.333921    2.579510
     43          1           0       -6.200463   -0.380584    2.664294
     44          1           0       -5.591166    2.954821    0.147320
     45          1           0       -6.761453    3.187180    1.478758
     46          1           0       -7.210266    3.624231   -0.188088
     47          1           0       -5.936163    0.864446   -1.883701
     48          1           0       -3.798882    0.542711   -3.092655
     49          1           0       -4.065335   -0.317412    1.819933
     50          1           0       -0.321472   -1.188490    2.020040
     51          1           0        1.042492   -1.623510   -1.327151
     52          1           0        0.931917   -1.684374    0.421356
     53          1           0        3.113634   -2.022592   -0.165887
     54          1           0        5.293369   -4.704321    0.108817
     55          1           0        4.219868   -3.748285   -0.916398
     56          1           0        4.026805   -3.723472    0.850840
     57          1           0        7.254455   -2.009354    1.715629
     58          1           0        6.969865   -3.742165    1.556308
     59          1           0        5.755435   -2.695926    2.315710
     60          1           0        6.230791   -2.761036   -2.000634
     61          1           0        7.248948   -3.778493   -0.964226
     62          1           0        7.564128   -2.049321   -1.109177
     63          1           0        7.497984   -0.877626    0.301630
     64          1           0        7.731726    1.859964   -1.053180
     65          1           0        7.553709    3.622982   -1.047192
     66          1           0        6.488519    2.630870   -2.056991
     67          1           0        4.336025    3.886840    0.766297
     68          1           0        4.530894    3.858829   -0.998661
     69          1           0        5.682331    4.743281    0.007906
     70          1           0        7.440148    1.900814    1.580287
     71          1           0        7.274058    3.662265    1.481394
     72          1           0        6.010340    2.698185    2.263866
     73          1           0        3.254654    2.228100   -0.216008
     74          1           0       -0.826070    0.583616   -2.104661
     75          1           0       -1.263478   -1.084192   -2.545628
 ---------------------------------------------------------------------

 The electronic state is 1-A.
 Alpha  occ. eigenvalues --  -19.19346 -19.15600 -19.13652 -19.09613 -14.35137
 Alpha  occ. eigenvalues --  -14.34738 -14.28005 -10.27413 -10.27102 -10.26631
 Alpha  occ. eigenvalues --  -10.25027 -10.24346 -10.23337 -10.23022 -10.22781
 Alpha  occ. eigenvalues --  -10.22335 -10.20935 -10.20868 -10.20452 -10.20371
 Alpha  occ. eigenvalues --  -10.20061 -10.19801 -10.19778 -10.19495 -10.19311
 Alpha  occ. eigenvalues --  -10.19307 -10.19212 -10.19193 -10.18934 -10.18656
 Alpha  occ. eigenvalues --  -10.18316 -10.18253 -10.17128 -10.17069 -10.16715
 Alpha  occ. eigenvalues --  -10.16670  -1.07737  -1.03969  -1.03700  -1.01225
 Alpha  occ. eigenvalues --   -0.96578  -0.90691  -0.87014  -0.85634  -0.85403
 Alpha  occ. eigenvalues --   -0.83817  -0.81106  -0.79710  -0.76916  -0.75301
 Alpha  occ. eigenvalues --   -0.74283  -0.74168  -0.71080  -0.70881  -0.70680
 Alpha  occ. eigenvalues --   -0.70439  -0.68509  -0.68331  -0.68105  -0.67821
 Alpha  occ. eigenvalues --   -0.64648  -0.62902  -0.62343  -0.60629  -0.58797
 Alpha  occ. eigenvalues --   -0.58070  -0.56881  -0.56089  -0.54684  -0.53441
 Alpha  occ. eigenvalues --   -0.52555  -0.51633  -0.50473  -0.49849  -0.49640
 Alpha  occ. eigenvalues --   -0.49447  -0.48247  -0.47299  -0.47032  -0.46210
 Alpha  occ. eigenvalues --   -0.45817  -0.45312  -0.44803  -0.44376  -0.44209
 Alpha  occ. eigenvalues --   -0.44117  -0.43840  -0.43627  -0.43198  -0.43130
 Alpha  occ. eigenvalues --   -0.42726  -0.42350  -0.42029  -0.41280  -0.41013
 Alpha  occ. eigenvalues --   -0.40912  -0.40324  -0.39818  -0.39696  -0.39150
 Alpha  occ. eigenvalues --   -0.38793  -0.38669  -0.38363  -0.38074  -0.38007
 Alpha  occ. eigenvalues --   -0.37596  -0.37223  -0.36648  -0.36518  -0.36041
 Alpha  occ. eigenvalues --   -0.35830  -0.35370  -0.35281  -0.35201  -0.34593
 Alpha  occ. eigenvalues --   -0.34280  -0.33490  -0.33198  -0.33003  -0.32448
 Alpha  occ. eigenvalues --   -0.32060  -0.31572  -0.31133  -0.26634  -0.25743
 Alpha  occ. eigenvalues --   -0.25278  -0.24829  -0.24434  -0.23950  -0.23657
 Alpha  occ. eigenvalues --   -0.23028  -0.22848  -0.20789
 Alpha virt. eigenvalues --   -0.05112  -0.01634  -0.00887  -0.00307   0.04080
 Alpha virt. eigenvalues --    0.04889   0.04916   0.07358   0.07931   0.09259
 Alpha virt. eigenvalues --    0.09628   0.09752   0.11254   0.11519   0.11534

 Mulliken charges:
               1
     1  C   -0.308158
     2  N   -0.588120
     3  C    0.586898
     4  O   -0.533073
     5  C    0.200715
     6  C   -0.493683
     7  O   -0.535504
     8  C   -0.206786
     9  C    0.132631
    10  C   -0.169738
    11  C   -0.195675
    12  C    0.091296
    13  C    0.096632
    14  C   -0.237093
    15  C    0.496013
    16  N   -0.669479
    17  N   -0.484661
    18  C   -0.260610
    19  C    0.398015
    20  O   -0.464821
    21  C    0.123549
    22  C   -0.301154
    23  C    0.173470
    24  C   -0.020175
    25  C   -0.458108
    26  C   -0.459096
    27  C   -0.458450
    28  C    0.203571
    29  O   -0.642721
    30  C    0.152966
    31  C    0.032784
    32  C   -0.450652
    33  C   -0.457054
    34  C   -0.450765
    35  C   -0.269925
    36  C   -0.164741
    37  H    0.153032
    38  H    0.154492
    39  H    0.200945
    40  H    0.350543
    41  H    0.154773
    42  H    0.154047
    43  H    0.194436
    44  H    0.154433
    45  H    0.145387
    46  H    0.155060
    47  H    0.134345
    48  H    0.126342
    49  H    0.164310
    50  H    0.266918
    51  H    0.170326
    52  H    0.168264
    53  H    0.134549
    54  H    0.149487
    55  H    0.151425
    56  H    0.153754
    57  H    0.141637
    58  H    0.151950
    59  H    0.164456
    60  H    0.162079
    61  H    0.151681
    62  H    0.141734
    63  H    0.419046
    64  H    0.165975
    65  H    0.135801
    66  H    0.138832
    67  H    0.150860
    68  H    0.148201
    69  H    0.141832
    70  H    0.165662
    71  H    0.135740
    72  H    0.140990
    73  H    0.164939
    74  H    0.182807
    75  H    0.150611
 Sum of Mulliken charges =  -0.00000

 Dipole moment (field-independent basis, Debye):
    X=              4.1012    Y=             -0.4509    Z=             -3.4574  Tot=              5.3830
 Quadrupole moment (field-independent basis, Debye-Ang):
   XX=           -173.7562   YY=           -209.5772   ZZ=           -213.1979
   XY=            -37.5042   XZ=             15.7885   YZ=              5.3886

 Normal termination of Gaussian 16 at Fri Nov  4 19:42:06 2022.
