 Gaussian 16, Revision B.01,
 Gaussian 16:  ES64L-G16RevB.01 20-Dec-2017

 -----------------------------
 #p b3lyp/6-31g(d) opt SCF=XQC
 -----------------------------

 ------------------------------
 Gaussian input prepared by ASE
 ------------------------------
 Symbolic Z-matrix:
 Charge =  0 Multiplicity = 1

 SCF Done:  E(RB3LYP) =  -2688.23518405     A.U. after   15 cycles
 SCF Done:  E(RB3LYP) =  -2688.24775731     A.U. after   14 cycles
 SCF Done:  E(RB3LYP) =  -2688.24921033     A.U. after   13 cycles
 SCF Done:  E(RB3LYP) =  -2688.25216400     A.U. after   14 cycles
 SCF Done:  E(RB3LYP) =  -2688.25236182     A.U. after   12 cycles
 SCF Done:  E(RB3LYP) =  -2688.25256085     A.U. after   12 cycles
 SCF Done:  E(RB3LYP) =  -2688.25340403     A.U. after   11 cycles
 SCF Done:  E(RB3LYP) =  -2688.25336217     A.U. after   12 cycles
 SCF Done:  E(RB3LYP) =  -2688.25358852     A.U. after   11 cycles
 SCF Done:  E(RB3LYP) =  -2688.25369314     A.U. after   11 cycles
 SCF Done:  E(RB3LYP) =  -2688.25393971     A.U. after    7 cycles
 SCF Done:  E(RB3LYP) =  -2688.25393988     A.U. after    7 cycles
 SCF Done:  E(RB3LYP) =  -2688.25394011     A.U. after    7 cycles
 SCF Done:  E(RB3LYP) =  -2688.25394031     A.U. after    7 cycles
 SCF Done:  E(RB3LYP) =  -2688.25394067     A.U. after    7 cycles
 SCF Done:  E(RB3LYP) =  -2688.25394098     A.U. after    7 cycles
 SCF Done:  E(RB3LYP) =  -2688.25394117     A.U. after    7 cycles
 SCF Done:  E(RB3LYP) =  -2688.25394124     A.U. after    7 cycles
 SCF Done:  E(RB3LYP) =  -2688.25394129     A.U. after    7 cycles
 SCF Done:  E(RB3LYP) =  -2688.25394131     A.U. after    6 cycles
 Optimization completed.
    -- Stationary point found.

                         Standard orientation:
 ---------------------------------------------------------------------
 Center     Atomic      Atomic             Coordinates (Angstroms)
 Number     Number       Type             X           Y           Z
 ---------------------------------------------------------------------
      1          6           0       -1.044462   -2.786053    3.586069
      2          6           0       -0.895632   -2.021282    2.287764
      3          8           0       -0.326891   -2.452582    1.310155
      4         16           0       -1.684778   -0.395321    2.309693
      5          6           0       -1.418072    0.090216    0.547392
      6          6           0       -2.270698    1.322453    0.173379
      7          6           0       -3.792894    1.109109    0.217094
      8          6           0       -4.297485    0.082963   -0.808267
      9          7           0       -5.749843   -0.034844   -0.804081
     10          6           0       -6.452206   -1.071101   -0.164631
     11          8           0       -5.946310   -1.985994    0.454095
     12          6           0       -7.897374   -0.793704   -0.420926
     13          6           0       -9.026829   -1.495158   -0.026163
     14          6           0      -10.271795   -0.989285   -0.423739
     15          6           0      -10.365894    0.179094   -1.190584
     16          6           0       -9.218114    0.879862   -1.584842
     17          6           0       -7.991188    0.371067   -1.185647
     18          6           0       -6.608588    0.875923   -1.439710
     19          8           0       -6.252263    1.858948   -2.059533
     20          6           0        0.044798    0.197882    0.047751
     21          8           0        0.224647   -0.204526   -1.098204
     22          7           0        1.074668    0.669220    0.848784
     23          6           0        0.877549    1.617644    1.970142
     24          6           0        1.606207    2.954279    1.743159
     25          6           0        1.001255    3.870972    0.659532
     26          6           0        2.054725    4.857200    0.132716
     27          6           0       -0.228330    4.633761    1.177872
     28          6           0        2.432356    0.181172    0.733308
     29          8           0        3.195714    0.345892    1.677713
     30          7           0        2.754073   -0.443266   -0.422471
     31          6           0        4.046391   -1.087278   -0.610798
     32          6           0        4.628969   -0.516776   -1.905779
     33          8           0        3.973811   -0.426931   -2.932256
     34          7           0        5.951395   -0.057000   -1.945459
     35          6           0        6.926873    0.092019   -0.970552
     36          7           0        6.945034   -0.461842    0.204061
     37          6           0        8.064304   -0.074832    0.909688
     38          6           0        8.924482    0.765143    0.274297
     39         16           0        8.312321    1.143549   -1.314521
     40          6           0        3.934985   -2.659387   -0.649564
     41          6           0        5.307630   -3.265513   -1.003788
     42          6           0        3.520195   -3.134677    0.756798
     43          6           0        2.884921   -3.130010   -1.674113
     44          1           0       -1.243308   -2.129738    4.437369
     45          1           0       -1.882418   -3.485932    3.483738
     46          1           0       -0.134007   -3.365376    3.761356
     47          1           0       -1.764550   -0.766023   -0.033478
     48          1           0       -2.015984    2.170825    0.817270
     49          1           0       -1.975571    1.607098   -0.845141
     50          1           0       -4.275504    2.070014    0.005655
     51          1           0       -4.109495    0.800293    1.220139
     52          1           0       -3.911489   -0.917734   -0.598952
     53          1           0       -3.988958    0.373373   -1.817924
     54          1           0       -8.942010   -2.400369    0.567138
     55          1           0      -11.179710   -1.510667   -0.133952
     56          1           0      -11.345363    0.546222   -1.483814
     57          1           0       -9.279216    1.785710   -2.180100
     58          1           0       -0.191859    1.784200    2.083154
     59          1           0        1.241345    1.148954    2.885776
     60          1           0        2.653389    2.733889    1.516893
     61          1           0        1.612303    3.488625    2.704376
     62          1           0        0.687942    3.240884   -0.186619
     63          1           0        1.632862    5.519752   -0.632427
     64          1           0        2.439353    5.489078    0.944154
     65          1           0        2.906599    4.329024   -0.310614
     66          1           0        0.063226    5.345470    1.961349
     67          1           0       -0.982772    3.966366    1.611193
     68          1           0       -0.712466    5.202472    0.375345
     69          1           0        2.063253   -0.462938   -1.166946
     70          1           0        4.674361   -0.810150    0.234369
     71          1           0        6.167653    0.319678   -2.862322
     72          1           0        8.204640   -0.462113    1.912072
     73          1           0        9.862140    1.173136    0.623482
     74          1           0        6.088288   -2.919125   -0.319275
     75          1           0        5.256106   -4.358775   -0.941429
     76          1           0        5.613016   -3.013745   -2.026714
     77          1           0        2.530454   -2.757296    1.032816
     78          1           0        3.472571   -4.230190    0.778683
     79          1           0        4.239114   -2.809702    1.517503
     80          1           0        3.124734   -2.794737   -2.687489
     81          1           0        1.884055   -2.764784   -1.420747
     82          1           0        2.843135   -4.225851   -1.677366
 ---------------------------------------------------------------------

 The electronic state is 1-A.
 Alpha  occ. eigenvalues --  -88.92366 -88.89539 -19.15849 -19.14915 -19.14894
 Alpha  occ. eigenvalues --  -19.13689 -19.13216 -19.10637 -14.39444 -14.38743
 Alpha  occ. eigenvalues --  -14.37851 -14.34456 -14.34072 -10.31336 -10.31299
 Alpha  occ. eigenvalues --  -10.31094 -10.31013 -10.30987 -10.30436 -10.30250
 Alpha  occ. eigenvalues --  -10.24153 -10.23289 -10.22828 -10.22473 -10.22117
 Alpha  occ. eigenvalues --  -10.22107 -10.22101 -10.22035 -10.22020 -10.21995
 Alpha  occ. eigenvalues --  -10.21968 -10.21944 -10.21094 -10.20644 -10.19807
 Alpha  occ. eigenvalues --  -10.19330 -10.18757 -10.17683 -10.17485 -10.16992
 Alpha  occ. eigenvalues --  -10.16133 -10.15641 -10.15306  -7.98550  -7.95765
 Alpha  occ. eigenvalues --   -5.94958  -5.94611  -5.94203  -5.92221  -5.91827
 Alpha  occ. eigenvalues --   -5.91348  -1.07174  -1.06310  -1.05975  -1.05483
 Alpha  occ. eigenvalues --   -1.05267  -1.03432  -0.99111  -0.96305  -0.92874
 Alpha  occ. eigenvalues --   -0.92745  -0.91532  -0.88502  -0.83798  -0.81004
 Alpha  occ. eigenvalues --   -0.80858  -0.80653  -0.80127  -0.78030  -0.77722
 Alpha  occ. eigenvalues --   -0.75609  -0.74645  -0.73750  -0.71810  -0.71380
 Alpha  occ. eigenvalues --   -0.68307  -0.68057  -0.67336  -0.67140  -0.66726
 Alpha  occ. eigenvalues --   -0.64501  -0.64073  -0.63161  -0.62396  -0.61585
 Alpha  occ. eigenvalues --   -0.61072  -0.59735  -0.57198  -0.56976  -0.56482
 Alpha  occ. eigenvalues --   -0.56061  -0.54803  -0.53215  -0.52501  -0.52162
 Alpha  occ. eigenvalues --   -0.50956  -0.50149  -0.49741  -0.48644  -0.48437
 Alpha  occ. eigenvalues --   -0.47920  -0.47495  -0.47094  -0.46949  -0.46698
 Alpha  occ. eigenvalues --   -0.46472  -0.45946  -0.45704  -0.45686  -0.45281
 Alpha  occ. eigenvalues --   -0.44862  -0.44737  -0.44518  -0.43823  -0.43653
 Alpha  occ. eigenvalues --   -0.43409  -0.43119  -0.42695  -0.42507  -0.42159
 Alpha  occ. eigenvalues --   -0.41836  -0.41304  -0.40918  -0.39994  -0.39802
 Alpha  occ. eigenvalues --   -0.39429  -0.39331  -0.39163  -0.39076  -0.38826
 Alpha  occ. eigenvalues --   -0.38626  -0.38435  -0.38155  -0.37908  -0.37700
 Alpha  occ. eigenvalues --   -0.37416  -0.37385  -0.37088  -0.36950  -0.36297
 Alpha  occ. eigenvalues --   -0.36040  -0.35619  -0.34838  -0.34682  -0.34062
 Alpha  occ. eigenvalues --   -0.33060  -0.32459  -0.32218  -0.31729  -0.31628
 Alpha  occ. eigenvalues --   -0.31420  -0.31373  -0.29123  -0.28945  -0.28574
 Alpha  occ. eigenvalues --   -0.28330  -0.27876  -0.27536  -0.27109  -0.26871
 Alpha  occ. eigenvalues --   -0.26689  -0.26540  -0.26298  -0.25668  -0.25066
 Alpha  occ. eigenvalues --   -0.23863  -0.22731
 Alpha virt. eigenvalues --   -0.08245  -0.04118  -0.03470  -0.02610  -0.01606
 Alpha virt. eigenvalues --   -0.00477   0.01490   0.02018   0.02771   0.05655
 Alpha virt. eigenvalues --    0.06162   0.06443   0.07226   0.07717   0.08444

 Mulliken charges:
               1
     1  C   -0.521856
     2  C    0.281350
     3  O   -0.409188
     4  S    0.114632
     5  C   -0.352208
     6  C   -0.308468
     7  C   -0.276212
     8  C   -0.149310
     9  N   -0.533365
    10  C    0.575705
    11  O   -0.480710
    12  C    0.045018
    13  C   -0.180519
    14  C   -0.128538
    15  C   -0.128682
    16  C   -0.180885
    17  C    0.047613
    18  C    0.576322
    19  O   -0.485628
    20  C    0.620330
    21  O   -0.500033
    22  N   -0.522823
    23  C   -0.143292
    24  C   -0.272747
    25  C   -0.071182
    26  C   -0.444033
    27  C   -0.452578
    28  C    0.781514
    29  O   -0.536582
    30  N   -0.644920
    31  C   -0.054942
    32  C    0.604204
    33  O   -0.491000
    34  N   -0.664736
    35  C    0.322067
    36  N   -0.430766
    37  C    0.073009
    38  C   -0.355499
    39  S    0.226366
    40  C    0.097733
    41  C   -0.471450
    42  C   -0.458840
    43  C   -0.472210
    44  H    0.177409
    45  H    0.201497
    46  H    0.196296
    47  H    0.226856
    48  H    0.166631
    49  H    0.177969
    50  H    0.167762
    51  H    0.167975
    52  H    0.184652
    53  H    0.177361
    54  H    0.165988
    55  H    0.148493
    56  H    0.148619
    57  H    0.166313
    58  H    0.149545
    59  H    0.179698
    60  H    0.172414
    61  H    0.132549
    62  H    0.130016
    63  H    0.140288
    64  H    0.139468
    65  H    0.146794
    66  H    0.142015
    67  H    0.138902
    68  H    0.144969
    69  H    0.393496
    70  H    0.218587
    71  H    0.350069
    72  H    0.161305
    73  H    0.183253
    74  H    0.166481
    75  H    0.140433
    76  H    0.141067
    77  H    0.165828
    78  H    0.135222
    79  H    0.149210
    80  H    0.162884
    81  H    0.163918
    82  H    0.135105
 Sum of Mulliken charges =  -0.00000

 Dipole moment (field-independent basis, Debye):
    X=             -2.3996    Y=              1.1978    Z=              2.6745  Tot=              3.7876
 Quadrupole moment (field-independent basis, Debye-Ang):
   XX=           -184.1346   YY=           -266.0980   ZZ=           -268.1291
   XY=              9.7383   XZ=             -2.3644   YZ=             -3.6418

 Normal termination of Gaussian 16 at Fri Nov  4 21:02:26 2022.
