 Gaussian 16, Revision B.01,
 Gaussian 16:  ES64L-G16RevB.01 20-Dec-2017

 -------------------------------------------------------------------
 #p b3lyp/6-31g(d) 6D 10F nosymm GFInput td=(50-50,nstate=2) SCF=XQC
 -------------------------------------------------------------------

 ------------------------------
 Gaussian input prepared by ASE
 ------------------------------
 Symbolic Z-matrix:
 Charge =  0 Multiplicity = 1

                          Input orientation:
 ---------------------------------------------------------------------
 Center     Atomic      Atomic             Coordinates (Angstroms)
 Number     Number       Type             X           Y           Z
 ---------------------------------------------------------------------
      1          6           0        1.079659   -2.992528   -3.325618
      2          6           0        0.917783   -2.168832   -2.065483
      3          8           0        0.366204   -2.566206   -1.063954
      4         16           0        1.663225   -0.525728   -2.172758
      5          6           0        1.393547    0.038955   -0.434659
      6          6           0        2.215142    1.310150   -0.127563
      7          6           0        3.742211    1.135043   -0.171236
      8          6           0        4.279671    0.174356    0.899824
      9          7           0        5.734604    0.094748    0.891416
     10          6           0        6.460721   -0.952945    0.298851
     11          8           0        5.975909   -1.910238   -0.270649
     12          6           0        7.899402   -0.625309    0.531224
     13          6           0        9.044906   -1.315413    0.163639
     14          6           0       10.278166   -0.757958    0.527270
     15          6           0       10.345412    0.448894    1.235085
     16          6           0        9.181605    1.137807    1.602324
     17          6           0        7.966447    0.577829    1.237097
     18          6           0        6.572338    1.058041    1.475566
     19          8           0        6.193439    2.060724    2.048758
     20          6           0       -0.068853    0.132599    0.069164
     21          8           0       -0.231511   -0.217389    1.234729
     22          7           0       -1.115371    0.536587   -0.746947
     23          6           0       -0.949849    1.433406   -1.914906
     24          6           0       -1.712554    2.759969   -1.748884
     25          6           0       -1.126171    3.744599   -0.715829
     26          6           0       -2.202563    4.727545   -0.230878
     27          6           0        0.079750    4.512986   -1.279509
     28          6           0       -2.458917    0.019268   -0.598257
     29          8           0       -3.231660    0.117059   -1.544329
     30          7           0       -2.757425   -0.555652    0.589012
     31          6           0       -4.031065   -1.223377    0.817681
     32          6           0       -4.621373   -0.605224    2.087039
     33          8           0       -3.963108   -0.447649    3.103315
     34          7           0       -5.955329   -0.179013    2.113190
     35          6           0       -6.939866   -0.103984    1.138888
     36          7           0       -6.949844   -0.715394   -0.006925
     37          6           0       -8.082951   -0.393248   -0.722986
     38          6           0       -8.961620    0.454115   -0.123737
     39         16           0       -8.350874    0.926407    1.440297
     40          6           0       -3.877627   -2.788183    0.932914
     41          6           0       -5.231645   -3.412013    1.325965
     42          6           0       -3.458202   -3.321182   -0.451211
     43          6           0       -2.809690   -3.179901    1.972091
     44          1           0        1.256195   -2.373997   -4.209504
     45          1           0        1.936511   -3.664213   -3.194789
     46          1           0        0.183983   -3.603551   -3.465931
     47          1           0        1.765943   -0.778176    0.185197
     48          1           0        1.934334    2.118733   -0.810608
     49          1           0        1.918244    1.636821    0.877744
     50          1           0        4.200241    2.117576   -0.010624
     51          1           0        4.061306    0.785568   -1.160048
     52          1           0        3.919289   -0.845258    0.742622
     53          1           0        3.969173    0.505993    1.896088
     54          1           0        8.980901   -2.250705   -0.383845
     55          1           0       11.198006   -1.268925    0.257208
     56          1           0       11.316385    0.855687    1.503149
     57          1           0        9.221896    2.073207    2.151897
     58          1           0        0.114097    1.622269   -2.043343
     59          1           0       -1.306152    0.910711   -2.803862
     60          1           0       -2.752215    2.523526   -1.504840
     61          1           0       -1.738251    3.245909   -2.735141
     62          1           0       -0.791465    3.165477    0.158092
     63          1           0       -1.794216    5.437903    0.497842
     64          1           0       -2.608410    5.308289   -1.069725
     65          1           0       -3.037579    4.199643    0.243746
     66          1           0       -0.235029    5.177265   -2.094996
     67          1           0        0.849259    3.845116   -1.684692
     68          1           0        0.553054    5.133132   -0.509269
     69          1           0       -2.062173   -0.520392    1.328772
     70          1           0       -4.670908   -1.004896   -0.035736
     71          1           0       -6.176407    0.236609    3.011897
     72          1           0       -8.218530   -0.833059   -1.704128
     73          1           0       -9.911746    0.819571   -0.486080
     74          1           0       -6.025065   -3.120474    0.630653
     75          1           0       -5.151381   -4.505285    1.317071
     76          1           0       -5.537899   -3.118220    2.337360
     77          1           0       -2.480419   -2.931959   -0.752268
     78          1           0       -3.381551   -4.414807   -0.419544
     79          1           0       -4.189762   -3.053156   -1.221995
     80          1           0       -3.052673   -2.801479    2.969391
     81          1           0       -1.820336   -2.801404    1.694180
     82          1           0       -2.738726   -4.272768    2.028922
 ---------------------------------------------------------------------

 SCF Done:  E(RB3LYP) =  -2688.25393991     A.U. after   15 cycles

 Excitation energies and oscillator strengths:

 Excited state symmetry could not be determined.
 Excited State   1:      Triplet-?Sym    3.2352 eV  383.24 nm  f=0.0000  <S**2>=2.000
     166 ->170         0.10868
     167 ->170        -0.65664
     167 ->174        -0.17079
 This state for optimization and/or second-order correction.
 Total Energy, E(TD-HF/TD-DFT) =  -2688.13504918
 Copying the excited state density for this state as the 1-particle RhoCI density.

 Excited state symmetry could not be determined.
 Excited State   2:      Triplet-?Sym    3.2407 eV  382.58 nm  f=0.0000  <S**2>=2.000
     155 ->168         0.31550
     157 ->169        -0.27047
     161 ->168         0.52902
     161 ->176         0.10744
     162 ->168         0.13327

 Excited state symmetry could not be determined.
 Excited State   3:      Singlet-?Sym    3.7424 eV  331.29 nm  f=0.0000  <S**2>=0.000
     167 ->168         0.70579

 Excited state symmetry could not be determined.
 Excited State   4:      Singlet-?Sym    3.7849 eV  327.58 nm  f=0.0003  <S**2>=0.000
     160 ->168        -0.69206

 Alpha  occ. eigenvalues --  -88.92366 -88.89539 -19.15849 -19.14915 -19.14894
 Alpha  occ. eigenvalues --  -19.13689 -19.13216 -19.10637 -14.39444 -14.38743
 Alpha  occ. eigenvalues --  -14.37851 -14.34455 -14.34072 -10.31336 -10.31299
 Alpha  occ. eigenvalues --  -10.31094 -10.31013 -10.30987 -10.30436 -10.30250
 Alpha  occ. eigenvalues --  -10.24153 -10.23289 -10.22828 -10.22473 -10.22117
 Alpha  occ. eigenvalues --  -10.22108 -10.22101 -10.22035 -10.22020 -10.21995
 Alpha  occ. eigenvalues --  -10.21968 -10.21944 -10.21094 -10.20644 -10.19807
 Alpha  occ. eigenvalues --  -10.19330 -10.18757 -10.17683 -10.17485 -10.16992
 Alpha  occ. eigenvalues --  -10.16133 -10.15641 -10.15306  -7.98550  -7.95765
 Alpha  occ. eigenvalues --   -5.94958  -5.94611  -5.94203  -5.92220  -5.91827
 Alpha  occ. eigenvalues --   -5.91348  -1.07174  -1.06310  -1.05975  -1.05482
 Alpha  occ. eigenvalues --   -1.05267  -1.03432  -0.99111  -0.96305  -0.92874
 Alpha  occ. eigenvalues --   -0.92745  -0.91532  -0.88502  -0.83798  -0.81004
 Alpha  occ. eigenvalues --   -0.80858  -0.80653  -0.80127  -0.78030  -0.77722
 Alpha  occ. eigenvalues --   -0.75609  -0.74645  -0.73750  -0.71810  -0.71380
 Alpha  occ. eigenvalues --   -0.68307  -0.68057  -0.67336  -0.67140  -0.66726
 Alpha  occ. eigenvalues --   -0.64501  -0.64073  -0.63161  -0.62396  -0.61585
 Alpha  occ. eigenvalues --   -0.61072  -0.59735  -0.57198  -0.56976  -0.56482
 Alpha  occ. eigenvalues --   -0.56061  -0.54803  -0.53215  -0.52501  -0.52162
 Alpha  occ. eigenvalues --   -0.50956  -0.50149  -0.49741  -0.48644  -0.48437
 Alpha  occ. eigenvalues --   -0.47920  -0.47495  -0.47094  -0.46949  -0.46698
 Alpha  occ. eigenvalues --   -0.46472  -0.45946  -0.45704  -0.45686  -0.45281
 Alpha  occ. eigenvalues --   -0.44862  -0.44737  -0.44518  -0.43823  -0.43653
 Alpha  occ. eigenvalues --   -0.43409  -0.43119  -0.42695  -0.42507  -0.42159
 Alpha  occ. eigenvalues --   -0.41836  -0.41304  -0.40918  -0.39994  -0.39802
 Alpha  occ. eigenvalues --   -0.39429  -0.39331  -0.39163  -0.39076  -0.38826
 Alpha  occ. eigenvalues --   -0.38626  -0.38435  -0.38155  -0.37908  -0.37700
 Alpha  occ. eigenvalues --   -0.37416  -0.37385  -0.37088  -0.36950  -0.36297
 Alpha  occ. eigenvalues --   -0.36040  -0.35619  -0.34838  -0.34682  -0.34062
 Alpha  occ. eigenvalues --   -0.33060  -0.32459  -0.32218  -0.31729  -0.31628
 Alpha  occ. eigenvalues --   -0.31420  -0.31373  -0.29123  -0.28945  -0.28574
 Alpha  occ. eigenvalues --   -0.28330  -0.27876  -0.27536  -0.27109  -0.26871
 Alpha  occ. eigenvalues --   -0.26689  -0.26540  -0.26298  -0.25668  -0.25066
 Alpha  occ. eigenvalues --   -0.23863  -0.22731
 Alpha virt. eigenvalues --   -0.08245  -0.04118  -0.03470  -0.02610  -0.01606
 Alpha virt. eigenvalues --   -0.00477   0.01490   0.02018   0.02771   0.05655
 Alpha virt. eigenvalues --    0.06162   0.06443   0.07226   0.07717   0.08444

 Mulliken charges:
               1
     1  C   -0.521848
     2  C    0.281345
     3  O   -0.409190
     4  S    0.114637
     5  C   -0.352222
     6  C   -0.308467
     7  C   -0.276217
     8  C   -0.149310
     9  N   -0.533360
    10  C    0.575697
    11  O   -0.480709
    12  C    0.045021
    13  C   -0.180515
    14  C   -0.128540
    15  C   -0.128684
    16  C   -0.180882
    17  C    0.047607
    18  C    0.576322
    19  O   -0.485626
    20  C    0.620362
    21  O   -0.500052
    22  N   -0.522862
    23  C   -0.143270
    24  C   -0.272758
    25  C   -0.071189
    26  C   -0.444023
    27  C   -0.452580
    28  C    0.781554
    29  O   -0.536582
    30  N   -0.644934
    31  C   -0.054969
    32  C    0.604203
    33  O   -0.490999
    34  N   -0.664734
    35  C    0.322067
    36  N   -0.430762
    37  C    0.073007
    38  C   -0.355499
    39  S    0.226364
    40  C    0.097775
    41  C   -0.471459
    42  C   -0.458854
    43  C   -0.472225
    44  H    0.177407
    45  H    0.201496
    46  H    0.196294
    47  H    0.226860
    48  H    0.166634
    49  H    0.177970
    50  H    0.167763
    51  H    0.167978
    52  H    0.184653
    53  H    0.177361
    54  H    0.165988
    55  H    0.148493
    56  H    0.148620
    57  H    0.166313
    58  H    0.149540
    59  H    0.179697
    60  H    0.172416
    61  H    0.132550
    62  H    0.130018
    63  H    0.140285
    64  H    0.139466
    65  H    0.146794
    66  H    0.142016
    67  H    0.138902
    68  H    0.144970
    69  H    0.393496
    70  H    0.218591
    71  H    0.350070
    72  H    0.161304
    73  H    0.183254
    74  H    0.166482
    75  H    0.140433
    76  H    0.141068
    77  H    0.165831
    78  H    0.135223
    79  H    0.149211
    80  H    0.162886
    81  H    0.163918
    82  H    0.135107
 Sum of Mulliken charges =  -0.00000

 Dipole moment (field-independent basis, Debye):
    X=              2.3519    Y=              1.1272    Z=             -2.7466  Tot=              3.7876
 Quadrupole moment (field-independent basis, Debye-Ang):
   XX=           -183.7913   YY=           -266.3442   ZZ=           -269.1456
   XY=             -7.8238   XZ=             -2.2102   YZ=              3.8374

 Normal termination of Gaussian 16 at Sat Nov  5 12:12:36 2022.
