 Gaussian 16, Revision B.01,
 Gaussian 16:  ES64L-G16RevB.01 20-Dec-2017

 -----------------------------
 #p b3lyp/6-31g(d) opt SCF=XQC
 -----------------------------

 ------------------------------
 Gaussian input prepared by ASE
 ------------------------------
 Symbolic Z-matrix:
 Charge =  0 Multiplicity = 1

 SCF Done:  E(RB3LYP) =  -1931.91173301     A.U. after   17 cycles
 SCF Done:  E(RB3LYP) =  -1931.92337900     A.U. after   13 cycles
 SCF Done:  E(RB3LYP) =  -1931.92416736     A.U. after   13 cycles
 SCF Done:  E(RB3LYP) =  -1931.92645933     A.U. after   13 cycles
 SCF Done:  E(RB3LYP) =  -1931.92650315     A.U. after   13 cycles
 SCF Done:  E(RB3LYP) =  -1931.92722751     A.U. after   13 cycles
 SCF Done:  E(RB3LYP) =  -1931.92789373     A.U. after   12 cycles
 SCF Done:  E(RB3LYP) =  -1931.92836320     A.U. after   13 cycles
 SCF Done:  E(RB3LYP) =  -1931.92852983     A.U. after   12 cycles
 SCF Done:  E(RB3LYP) =  -1931.92858708     A.U. after   12 cycles
 SCF Done:  E(RB3LYP) =  -1931.92872507     A.U. after   10 cycles
 SCF Done:  E(RB3LYP) =  -1931.92872698     A.U. after   10 cycles
 SCF Done:  E(RB3LYP) =  -1931.92872797     A.U. after    8 cycles
 SCF Done:  E(RB3LYP) =  -1931.92872891     A.U. after    9 cycles
 SCF Done:  E(RB3LYP) =  -1931.92872944     A.U. after    8 cycles
 SCF Done:  E(RB3LYP) =  -1931.92872984     A.U. after    8 cycles
 SCF Done:  E(RB3LYP) =  -1931.92873020     A.U. after    8 cycles
 SCF Done:  E(RB3LYP) =  -1931.92873033     A.U. after    8 cycles
 SCF Done:  E(RB3LYP) =  -1931.92873038     A.U. after    7 cycles
 SCF Done:  E(RB3LYP) =  -1931.92873039     A.U. after    6 cycles
 Optimization completed.
    -- Stationary point found.

                         Standard orientation:
 ---------------------------------------------------------------------
 Center     Atomic      Atomic             Coordinates (Angstroms)
 Number     Number       Type             X           Y           Z
 ---------------------------------------------------------------------
      1          6           0       -3.487774    2.648957    1.644099
      2          6           0       -3.302489    2.596432    0.325334
      3          6           0       -2.667157    1.466265   -0.452650
      4          7           0       -2.217644    0.322231    0.338966
      5          6           0       -3.075810   -0.688105    0.681267
      6          8           0       -2.772008   -1.708127    1.279478
      7          8           0       -4.351139   -0.420818    0.269840
      8          6           0       -5.324723   -1.407951    0.651054
      9          6           0       -6.690684   -0.885181    0.286712
     10          6           0       -7.038824    0.469075    0.663635
     11          6           0       -8.271392    1.007434    0.425198
     12          6           0       -9.231067    0.171599   -0.219865
     13          7           0      -10.482268    0.411918   -0.572089
     14          8           0      -10.904895   -0.753034   -1.155365
     15          7           0       -9.942522   -1.727251   -1.179144
     16          6           0       -8.892216   -1.170501   -0.600009
     17          6           0       -7.593364   -1.699915   -0.344597
     18          6           0       -0.778732    0.090964    0.584540
     19          6           0       -0.086373   -0.547209   -0.638796
     20          6           0        1.431714   -0.543465   -0.439626
     21          7           0        1.977513    0.836983   -0.448299
     22          8           0        3.059714    0.834931    0.521243
     23          6           0        4.343515    1.139201   -0.080504
     24          6           0        4.486278    2.638579   -0.342573
     25          6           0        5.104607    3.164439   -1.485046
     26          6           0        5.248146    4.543741   -1.657438
     27          6           0        4.779298    5.429258   -0.689094
     28          6           0        4.159927    4.922055    0.454841
     29          6           0        4.015579    3.545835    0.622444
     30          6           0        4.591813    0.214779   -1.279540
     31          7           0        4.917484   -1.084444   -0.675881
     32          6           0        4.742002   -2.219621   -1.425189
     33          8           0        4.311747   -2.134751   -2.577470
     34          6           0        5.096724   -3.594785   -0.850043
     35          6           0        4.208530   -4.110451    0.315522
     36          6           0        5.089157   -5.167820    1.001452
     37          6           0        6.486167   -4.523149    0.995291
     38          6           0        6.575296   -3.798443   -0.370530
     39          6           0        5.270987   -0.939864    0.740094
     40          6           0        5.381819    0.581658    0.943751
     41          6           0        5.235006    1.000673    2.406017
     42          6           0        0.983808    1.843252   -0.027081
     43          6           0       -0.007155    1.361816    1.041502
     44          1           0       -3.175689    1.838164    2.296806
     45          1           0       -3.953113    3.509912    2.115378
     46          1           0       -3.629976    3.429290   -0.298563
     47          1           0       -3.373217    1.126258   -1.218742
     48          1           0       -1.799512    1.855684   -0.998657
     49          1           0       -5.112467   -2.355826    0.147452
     50          1           0       -5.242215   -1.585558    1.729734
     51          1           0       -6.268760    1.072013    1.134698
     52          1           0       -8.523240    2.024139    0.706222
     53          1           0       -7.344963   -2.712989   -0.643821
     54          1           0       -0.755844   -0.642291    1.391784
     55          1           0       -0.438212   -1.576939   -0.760715
     56          1           0       -0.345275   -0.011738   -1.561262
     57          1           0        1.934198   -1.125449   -1.219205
     58          1           0        1.665119   -1.013741    0.526996
     59          1           0        5.476598    2.507506   -2.263424
     60          1           0        5.725899    4.921757   -2.557518
     61          1           0        4.891534    6.501640   -0.824034
     62          1           0        3.786354    5.598678    1.219242
     63          1           0        3.521231    3.163405    1.508905
     64          1           0        3.723678    0.141179   -1.931517
     65          1           0        5.437131    0.557150   -1.886435
     66          1           0        4.925160   -4.253556   -1.705021
     67          1           0        3.973767   -3.312256    1.028128
     68          1           0        3.255087   -4.506444   -0.048978
     69          1           0        4.739986   -5.430944    2.006106
     70          1           0        5.097190   -6.090050    0.404940
     71          1           0        7.294712   -5.247514    1.140549
     72          1           0        6.555277   -3.797364    1.816384
     73          1           0        7.106391   -4.415752   -1.102648
     74          1           0        7.132569   -2.859033   -0.304984
     75          1           0        6.209331   -1.445098    0.988045
     76          1           0        4.485323   -1.341739    1.390724
     77          1           0        6.363935    0.910288    0.577672
     78          1           0        5.408747    2.073134    2.533104
     79          1           0        4.237023    0.762783    2.785717
     80          1           0        5.970853    0.472644    3.024345
     81          1           0        0.447269    2.141497   -0.937286
     82          1           0        1.533748    2.722837    0.306110
     83          1           0       -0.699062    2.168702    1.302255
     84          1           0        0.552463    1.126634    1.953805
 ---------------------------------------------------------------------

 The electronic state is 1-A.
 Alpha  occ. eigenvalues --  -19.27914 -19.19632 -19.17568 -19.12372 -19.09600
 Alpha  occ. eigenvalues --  -14.40576 -14.40560 -14.37446 -14.37162 -14.35368
 Alpha  occ. eigenvalues --  -10.33545 -10.27150 -10.26019 -10.25312 -10.24524
 Alpha  occ. eigenvalues --  -10.24472 -10.24033 -10.23086 -10.23086 -10.22365
 Alpha  occ. eigenvalues --  -10.22328 -10.22322 -10.22019 -10.21253 -10.20946
 Alpha  occ. eigenvalues --  -10.20929 -10.20708 -10.20517 -10.20181 -10.19544
 Alpha  occ. eigenvalues --  -10.19482 -10.19427 -10.19400 -10.19269 -10.19226
 Alpha  occ. eigenvalues --  -10.19154 -10.19007 -10.18947 -10.18555 -10.18476
 Alpha  occ. eigenvalues --  -10.18399 -10.18327 -10.18301  -1.19011  -1.10986
 Alpha  occ. eigenvalues --   -1.06167  -1.01678  -1.01451  -0.94948  -0.93301
 Alpha  occ. eigenvalues --   -0.91563  -0.90508  -0.88248  -0.85615  -0.83819
 Alpha  occ. eigenvalues --   -0.83594  -0.80822  -0.79589  -0.78468  -0.77327
 Alpha  occ. eigenvalues --   -0.76398  -0.75913  -0.74839  -0.73615  -0.73461
 Alpha  occ. eigenvalues --   -0.71240  -0.71085  -0.70739  -0.69481  -0.67040
 Alpha  occ. eigenvalues --   -0.65701  -0.64652  -0.63629  -0.62501  -0.61437
 Alpha  occ. eigenvalues --   -0.60782  -0.60053  -0.59375  -0.58170  -0.57772
 Alpha  occ. eigenvalues --   -0.57371  -0.56066  -0.55158  -0.54268  -0.53786
 Alpha  occ. eigenvalues --   -0.53091  -0.52685  -0.52337  -0.50872  -0.50532
 Alpha  occ. eigenvalues --   -0.49968  -0.49816  -0.49355  -0.48820  -0.48653
 Alpha  occ. eigenvalues --   -0.47996  -0.47703  -0.47134  -0.46772  -0.46680
 Alpha  occ. eigenvalues --   -0.45889  -0.45334  -0.44975  -0.44098  -0.43746
 Alpha  occ. eigenvalues --   -0.43036  -0.42769  -0.42674  -0.42404  -0.42330
 Alpha  occ. eigenvalues --   -0.42153  -0.41844  -0.41626  -0.41152  -0.40482
 Alpha  occ. eigenvalues --   -0.40312  -0.39994  -0.39754  -0.39500  -0.39276
 Alpha  occ. eigenvalues --   -0.38779  -0.38716  -0.38219  -0.37895  -0.37309
 Alpha  occ. eigenvalues --   -0.36869  -0.36828  -0.36532  -0.36258  -0.36004
 Alpha  occ. eigenvalues --   -0.35519  -0.35133  -0.34887  -0.34429  -0.34210
 Alpha  occ. eigenvalues --   -0.33838  -0.33736  -0.33658  -0.33585  -0.33293
 Alpha  occ. eigenvalues --   -0.32667  -0.32290  -0.31926  -0.31722  -0.31425
 Alpha  occ. eigenvalues --   -0.30820  -0.29027  -0.27676  -0.27477  -0.26927
 Alpha  occ. eigenvalues --   -0.25445  -0.25157  -0.24765  -0.24718  -0.23221
 Alpha  occ. eigenvalues --   -0.23040  -0.22267
 Alpha virt. eigenvalues --   -0.08833  -0.01111  -0.00606  -0.00359   0.00547
 Alpha virt. eigenvalues --    0.00653   0.02936   0.04273   0.06202   0.07003
 Alpha virt. eigenvalues --    0.07340   0.08055   0.08737   0.08814   0.09381

 Mulliken charges:
               1
     1  C   -0.335986
     2  C   -0.055919
     3  C   -0.182431
     4  N   -0.481183
     5  C    0.819446
     6  O   -0.533402
     7  O   -0.504166
     8  C   -0.106067
     9  C    0.126163
    10  C   -0.172939
    11  C   -0.137254
    12  C    0.283139
    13  N   -0.230361
    14  O   -0.185745
    15  N   -0.235432
    16  C    0.291635
    17  C   -0.206745
    18  C    0.026339
    19  C   -0.301164
    20  C   -0.129565
    21  N   -0.209791
    22  O   -0.449595
    23  C    0.219075
    24  C    0.156026
    25  C   -0.192006
    26  C   -0.133824
    27  C   -0.125501
    28  C   -0.137083
    29  C   -0.186362
    30  C   -0.125009
    31  N   -0.465198
    32  C    0.571885
    33  O   -0.536668
    34  C   -0.164803
    35  C   -0.285474
    36  C   -0.268289
    37  C   -0.274169
    38  C   -0.287831
    39  C   -0.115717
    40  C   -0.128878
    41  C   -0.464933
    42  C   -0.140148
    43  C   -0.318215
    44  H    0.150623
    45  H    0.145616
    46  H    0.134499
    47  H    0.184033
    48  H    0.163844
    49  H    0.170001
    50  H    0.181048
    51  H    0.166158
    52  H    0.163368
    53  H    0.162127
    54  H    0.180155
    55  H    0.164587
    56  H    0.146202
    57  H    0.175447
    58  H    0.141593
    59  H    0.136455
    60  H    0.133016
    61  H    0.131154
    62  H    0.130437
    63  H    0.144709
    64  H    0.207468
    65  H    0.150352
    66  H    0.161832
    67  H    0.141950
    68  H    0.149087
    69  H    0.136646
    70  H    0.138860
    71  H    0.138959
    72  H    0.133919
    73  H    0.149242
    74  H    0.143731
    75  H    0.151276
    76  H    0.160176
    77  H    0.144955
    78  H    0.157507
    79  H    0.163961
    80  H    0.144527
    81  H    0.148133
    82  H    0.167057
    83  H    0.159889
    84  H    0.159548
 Sum of Mulliken charges =  -0.00000

 Dipole moment (field-independent basis, Debye):
    X=              4.9641    Y=              3.4049    Z=              3.4854  Tot=              6.9558
 Quadrupole moment (field-independent basis, Debye-Ang):
   XX=           -304.6598   YY=           -239.1425   ZZ=           -260.2956
   XY=             -9.1401   XZ=             -0.9732   YZ=             -5.2083

 Normal termination of Gaussian 16 at Fri Nov  4 20:22:08 2022.
