 Gaussian 16, Revision B.01,
 Gaussian 16:  ES64L-G16RevB.01 20-Dec-2017

 -------------------------------------------------------------------
 #p b3lyp/6-31g(d) 6D 10F nosymm GFInput td=(50-50,nstate=2) SCF=XQC
 -------------------------------------------------------------------

 ------------------------------
 Gaussian input prepared by ASE
 ------------------------------
 Symbolic Z-matrix:
 Charge =  0 Multiplicity = 1

                          Input orientation:
 ---------------------------------------------------------------------
 Center     Atomic      Atomic             Coordinates (Angstroms)
 Number     Number       Type             X           Y           Z
 ---------------------------------------------------------------------
      1          6           0        4.659714    0.837845   -2.348809
      2          6           0        4.458415    1.521986   -1.222904
      3          6           0        3.637142    1.080160   -0.032743
      4          7           0        3.008458   -0.234936   -0.145912
      5          6           0        3.687996   -1.379108    0.175797
      6          8           0        3.222271   -2.507690    0.175198
      7          8           0        4.986963   -1.112359    0.505507
      8          6           0        5.784463   -2.273776    0.793130
      9          6           0        7.215882   -1.831250    0.957730
     10          6           0        7.788522   -0.949118   -0.037862
     11          6           0        9.091982   -0.542274   -0.000705
     12          6           0        9.893426   -1.028753    1.074808
     13          7           0       11.164535   -0.812738    1.366250
     14          8           0       11.381907   -1.533005    2.510760
     15          7           0       10.269938   -2.201329    2.949726
     16          6           0        9.331952   -1.900298    2.067641
     17          6           0        7.964769   -2.299587    2.005109
     18          6           0        1.553009   -0.360735   -0.369745
     19          6           0        0.754516   -0.146644    0.934000
     20          6           0       -0.740012   -0.040579    0.618710
     21          7           0       -1.047176    1.191918   -0.149540
     22          8           0       -2.107196    0.822757   -1.072173
     23          6           0       -3.326439    1.574150   -0.844836
     24          6           0       -3.218251    2.985443   -1.422542
     25          6           0       -3.748380    4.118275   -0.790278
     26          6           0       -3.660381    5.381638   -1.381014
     27          6           0       -3.042757    5.540694   -2.619922
     28          6           0       -2.508469    4.422518   -3.263101
     29          6           0       -2.595190    3.164168   -2.669851
     30          6           0       -3.734860    1.475124    0.630725
     31          7           0       -4.268823    0.113508    0.769770
     32          6           0       -4.291360   -0.459422    2.015613
     33          8           0       -3.861582    0.166009    2.987313
     34          6           0       -4.866883   -1.865262    2.215820
     35          6           0       -4.068824   -3.039042    1.584408
     36          6           0       -5.108819   -4.166111    1.474141
     37          6           0       -6.378267   -3.432145    1.008234
     38          6           0       -6.355066   -2.087161    1.775757
     39          6           0       -4.582571   -0.471357   -0.538032
     40          6           0       -4.435724    0.705943   -1.518434
     41          6           0       -4.209958    0.256691   -2.961539
     42          6           0        0.104012    1.670984   -0.938662
     43          6           0        1.008392    0.563296   -1.496142
     44          1           0        4.221240   -0.143912   -2.505979
     45          1           0        5.266059    1.241654   -3.154520
     46          1           0        4.915980    2.504700   -1.100211
     47          1           0        4.270617    1.107108    0.861129
     48          1           0        2.842841    1.815660    0.142481
     49          1           0        5.412840   -2.767797    1.695890
     50          1           0        5.681452   -2.985321   -0.034513
     51          1           0        7.133742   -0.590538   -0.825972
     52          1           0        9.512493    0.122334   -0.747402
     53          1           0        7.548127   -2.951944    2.765633
     54          1           0        1.413774   -1.399887   -0.670758
     55          1           0        0.928171   -0.990007    1.610448
     56          1           0        1.092475    0.756230    1.458696
     57          1           0       -1.338598   -0.042095    1.535570
     58          1           0       -1.041596   -0.916044    0.024906
     59          1           0       -4.230850    4.035566    0.177292
     60          1           0       -4.074850    6.242540   -0.862988
     61          1           0       -2.974974    6.523506   -3.078499
     62          1           0       -2.021249    4.528896   -4.229013
     63          1           0       -2.165201    2.304551   -3.172456
     64          1           0       -2.896171    1.641427    1.303847
     65          1           0       -4.515477    2.200698    0.884265
     66          1           0       -4.814355   -1.983547    3.301017
     67          1           0       -3.698498   -2.784442    0.585372
     68          1           0       -3.197831   -3.306831    2.191356
     69          1           0       -4.801111   -4.969074    0.795133
     70          1           0       -5.275506   -4.617346    2.461563
     71          1           0       -7.295513   -4.003059    1.187862
     72          1           0       -6.318828   -3.253957   -0.073640
     73          1           0       -6.987416   -2.139518    2.668238
     74          1           0       -6.746787   -1.260902    1.174765
     75          1           0       -5.590350   -0.896121   -0.572544
     76          1           0       -3.870396   -1.261702   -0.803086
     77          1           0       -5.351708    1.310599   -1.474535
     78          1           0       -4.200842    1.108460   -3.647772
     79          1           0       -3.263046   -0.281634   -3.063011
     80          1           0       -5.019149   -0.412285   -3.278234
     81          1           0        0.676083    2.331004   -0.273527
     82          1           0       -0.288493    2.303707   -1.734101
     83          1           0        1.827487    1.002903   -2.073743
     84          1           0        0.424136   -0.042004   -2.198306
 ---------------------------------------------------------------------

 SCF Done:  E(RB3LYP) =  -1931.92873842     A.U. after   17 cycles

 Excitation energies and oscillator strengths:

 Excited state symmetry could not be determined.
 Excited State   1:      Triplet-?Sym    2.2070 eV  561.77 nm  f=0.0000  <S**2>=2.000
     152 ->158         0.63955
     153 ->158        -0.20620
     154 ->158        -0.17832
     152 <-158         0.13037
 This state for optimization and/or second-order correction.
 Total Energy, E(TD-HF/TD-DFT) =  -1931.84763176
 Copying the excited state density for this state as the 1-particle RhoCI density.

 Excited state symmetry could not be determined.
 Excited State   2:      Triplet-?Sym    3.3953 eV  365.16 nm  f=0.0000  <S**2>=2.000
     157 ->158         0.70383

 Excited state symmetry could not be determined.
 Excited State   3:      Singlet-?Sym    3.3955 eV  365.14 nm  f=0.0000  <S**2>=0.000
     157 ->158         0.70416

 Excited state symmetry could not be determined.
 Excited State   4:      Singlet-?Sym    3.6518 eV  339.52 nm  f=0.0000  <S**2>=0.000
     156 ->158         0.70293

 Alpha  occ. eigenvalues --  -19.27914 -19.19632 -19.17569 -19.12372 -19.09600
 Alpha  occ. eigenvalues --  -14.40576 -14.40560 -14.37446 -14.37162 -14.35368
 Alpha  occ. eigenvalues --  -10.33545 -10.27150 -10.26019 -10.25312 -10.24524
 Alpha  occ. eigenvalues --  -10.24472 -10.24034 -10.23086 -10.23086 -10.22365
 Alpha  occ. eigenvalues --  -10.22328 -10.22322 -10.22019 -10.21253 -10.20946
 Alpha  occ. eigenvalues --  -10.20929 -10.20708 -10.20517 -10.20181 -10.19544
 Alpha  occ. eigenvalues --  -10.19482 -10.19427 -10.19400 -10.19269 -10.19226
 Alpha  occ. eigenvalues --  -10.19155 -10.19007 -10.18947 -10.18555 -10.18476
 Alpha  occ. eigenvalues --  -10.18399 -10.18327 -10.18301  -1.19011  -1.10986
 Alpha  occ. eigenvalues --   -1.06167  -1.01678  -1.01451  -0.94948  -0.93301
 Alpha  occ. eigenvalues --   -0.91563  -0.90508  -0.88248  -0.85616  -0.83819
 Alpha  occ. eigenvalues --   -0.83594  -0.80822  -0.79589  -0.78468  -0.77327
 Alpha  occ. eigenvalues --   -0.76398  -0.75913  -0.74839  -0.73615  -0.73461
 Alpha  occ. eigenvalues --   -0.71240  -0.71085  -0.70739  -0.69481  -0.67040
 Alpha  occ. eigenvalues --   -0.65701  -0.64652  -0.63629  -0.62501  -0.61437
 Alpha  occ. eigenvalues --   -0.60782  -0.60053  -0.59375  -0.58169  -0.57772
 Alpha  occ. eigenvalues --   -0.57371  -0.56066  -0.55157  -0.54268  -0.53786
 Alpha  occ. eigenvalues --   -0.53091  -0.52685  -0.52337  -0.50872  -0.50532
 Alpha  occ. eigenvalues --   -0.49968  -0.49816  -0.49355  -0.48820  -0.48653
 Alpha  occ. eigenvalues --   -0.47996  -0.47703  -0.47134  -0.46772  -0.46680
 Alpha  occ. eigenvalues --   -0.45889  -0.45334  -0.44975  -0.44098  -0.43746
 Alpha  occ. eigenvalues --   -0.43036  -0.42769  -0.42674  -0.42404  -0.42330
 Alpha  occ. eigenvalues --   -0.42153  -0.41844  -0.41626  -0.41152  -0.40482
 Alpha  occ. eigenvalues --   -0.40312  -0.39994  -0.39754  -0.39500  -0.39276
 Alpha  occ. eigenvalues --   -0.38779  -0.38716  -0.38219  -0.37895  -0.37309
 Alpha  occ. eigenvalues --   -0.36869  -0.36828  -0.36532  -0.36258  -0.36004
 Alpha  occ. eigenvalues --   -0.35519  -0.35133  -0.34887  -0.34429  -0.34210
 Alpha  occ. eigenvalues --   -0.33838  -0.33736  -0.33658  -0.33585  -0.33293
 Alpha  occ. eigenvalues --   -0.32667  -0.32290  -0.31926  -0.31722  -0.31425
 Alpha  occ. eigenvalues --   -0.30820  -0.29027  -0.27677  -0.27477  -0.26927
 Alpha  occ. eigenvalues --   -0.25445  -0.25157  -0.24765  -0.24718  -0.23221
 Alpha  occ. eigenvalues --   -0.23040  -0.22267
 Alpha virt. eigenvalues --   -0.08833  -0.01111  -0.00606  -0.00359   0.00547
 Alpha virt. eigenvalues --    0.00653   0.02936   0.04273   0.06202   0.07003
 Alpha virt. eigenvalues --    0.07339   0.08055   0.08737   0.08814   0.09381

 Mulliken charges:
               1
     1  C   -0.335994
     2  C   -0.055906
     3  C   -0.182449
     4  N   -0.481171
     5  C    0.819437
     6  O   -0.533398
     7  O   -0.504160
     8  C   -0.106062
     9  C    0.126171
    10  C   -0.172953
    11  C   -0.137252
    12  C    0.283138
    13  N   -0.230354
    14  O   -0.185746
    15  N   -0.235433
    16  C    0.291627
    17  C   -0.206741
    18  C    0.026290
    19  C   -0.301156
    20  C   -0.129591
    21  N   -0.209791
    22  O   -0.449578
    23  C    0.219074
    24  C    0.156009
    25  C   -0.192005
    26  C   -0.133827
    27  C   -0.125500
    28  C   -0.137073
    29  C   -0.186370
    30  C   -0.125012
    31  N   -0.465179
    32  C    0.571877
    33  O   -0.536668
    34  C   -0.164775
    35  C   -0.285463
    36  C   -0.268322
    37  C   -0.274159
    38  C   -0.287838
    39  C   -0.115732
    40  C   -0.128874
    41  C   -0.464933
    42  C   -0.140167
    43  C   -0.318165
    44  H    0.150625
    45  H    0.145616
    46  H    0.134499
    47  H    0.184037
    48  H    0.163847
    49  H    0.169999
    50  H    0.181049
    51  H    0.166160
    52  H    0.163368
    53  H    0.162127
    54  H    0.180159
    55  H    0.164592
    56  H    0.146202
    57  H    0.175452
    58  H    0.141602
    59  H    0.136455
    60  H    0.133017
    61  H    0.131154
    62  H    0.130437
    63  H    0.144710
    64  H    0.207469
    65  H    0.150350
    66  H    0.161827
    67  H    0.141947
    68  H    0.149087
    69  H    0.136650
    70  H    0.138864
    71  H    0.138959
    72  H    0.133919
    73  H    0.149241
    74  H    0.143730
    75  H    0.151278
    76  H    0.160177
    77  H    0.144955
    78  H    0.157509
    79  H    0.163956
    80  H    0.144527
    81  H    0.148139
    82  H    0.167058
    83  H    0.159884
    84  H    0.159544
 Sum of Mulliken charges =  -0.00000

 Dipole moment (field-independent basis, Debye):
    X=             -4.2981    Y=              1.6702    Z=             -5.2077  Tot=              6.9558
 Quadrupole moment (field-independent basis, Debye-Ang):
   XX=           -306.3881   YY=           -243.7726   ZZ=           -261.6037
   XY=             17.5680   XZ=            -15.0663   YZ=             -4.7394

 Normal termination of Gaussian 16 at Fri Nov  4 23:08:43 2022.
