 Gaussian 16, Revision B.01,
 Gaussian 16:  ES64L-G16RevB.01 20-Dec-2017

 -------------------------------------------------------------------
 #p b3lyp/6-31g(d) 6D 10F nosymm GFInput td=(50-50,nstate=2) SCF=XQC
 -------------------------------------------------------------------

 ------------------------------
 Gaussian input prepared by ASE
 ------------------------------
 Symbolic Z-matrix:
 Charge =  0 Multiplicity = 1

                          Input orientation:
 ---------------------------------------------------------------------
 Center     Atomic      Atomic             Coordinates (Angstroms)
 Number     Number       Type             X           Y           Z
 ---------------------------------------------------------------------
      1          6           0       -8.100754    1.190214    1.386309
      2          8           0       -6.787795    0.664260    1.480397
      3          6           0       -6.067197    0.521750    0.326905
      4          6           0       -6.535446    0.840420   -0.950333
      5          6           0       -5.692386    0.644620   -2.050430
      6          6           0       -4.407657    0.139659   -1.892339
      7          6           0       -3.936049   -0.182622   -0.609846
      8          6           0       -2.554221   -0.764208   -0.411742
      9          6           0       -1.416062    0.214749   -0.756704
     10          8           0       -1.635540    1.305256   -1.267105
     11          7           0       -0.130286   -0.204432   -0.477400
     12          6           0        0.256528   -1.475068    0.127639
     13          6           0        1.349494   -2.152264   -0.720877
     14          7           0        2.473576   -1.252280   -0.952178
     15          6           0        3.586803   -1.263786   -0.147382
     16          7           0        4.434561   -0.277448   -0.055312
     17          6           0        5.511597   -0.599589    0.758645
     18          6           0        6.558529    0.411692    0.958022
     19          6           0        6.451936    1.750900    0.447120
     20          6           0        7.530254    2.528930    0.749123
     21         16           0        8.714920    1.649589    1.665758
     22          6           0        7.739480    0.221135    1.637523
     23          6           0        5.473660   -1.848762    1.311187
     24         16           0        4.040867   -2.703766    0.798076
     25          6           0        2.067704    0.017441   -1.568793
     26          6           0        0.988215    0.709586   -0.729655
     27          6           0       -4.770474    0.010504    0.487587
     28          1           0       -8.483639    1.226349    2.408077
     29          1           0       -8.101310    2.203740    0.963325
     30          1           0       -8.752219    0.547745    0.778515
     31          1           0       -7.533615    1.235212   -1.101087
     32          1           0       -6.054782    0.896338   -3.043754
     33          1           0       -3.761865    0.008668   -2.754882
     34          1           0       -2.445083   -1.100193    0.625838
     35          1           0       -2.435118   -1.661093   -1.036760
     36          1           0        0.645522   -1.303044    1.143165
     37          1           0       -0.603706   -2.139770    0.206345
     38          1           0        1.692818   -3.069750   -0.236005
     39          1           0        0.929718   -2.429959   -1.696178
     40          1           0        5.593533    2.090879   -0.118207
     41          1           0        7.703262    3.564869    0.490783
     42          1           0        8.097435   -0.680943    2.114820
     43          1           0        6.167910   -2.312851    1.996440
     44          1           0        1.675046   -0.206869   -2.568496
     45          1           0        2.950389    0.649009   -1.666275
     46          1           0        0.586729    1.584587   -1.241254
     47          1           0        1.422802    1.029175    0.228417
     48          1           0       -4.438086   -0.228575    1.494081
 ---------------------------------------------------------------------

 SCF Done:  E(RB3LYP) =  -1885.83855951     A.U. after   15 cycles

 Excitation energies and oscillator strengths:

 Excited state symmetry could not be determined.
 Excited State   1:      Triplet-?Sym    2.6116 eV  474.74 nm  f=0.0000  <S**2>=2.000
     103 ->106        -0.17886
     105 ->106         0.65345
 This state for optimization and/or second-order correction.
 Total Energy, E(TD-HF/TD-DFT) =  -1885.74258424
 Copying the excited state density for this state as the 1-particle RhoCI density.

 Excited state symmetry could not be determined.
 Excited State   2:      Triplet-?Sym    3.4945 eV  354.80 nm  f=0.0000  <S**2>=2.000
     101 ->106         0.11134
     102 ->106        -0.24500
     102 ->109        -0.11572
     103 ->106         0.41029
     103 ->109         0.12688
     105 ->108         0.20892
     105 ->109        -0.32522

 Excited state symmetry could not be determined.
 Excited State   3:      Singlet-?Sym    4.1422 eV  299.32 nm  f=0.0444  <S**2>=0.000
     105 ->106         0.69067

 Excited state symmetry could not be determined.
 Excited State   4:      Singlet-?Sym    4.4466 eV  278.83 nm  f=0.0013  <S**2>=0.000
     105 ->108         0.62474
     105 ->109         0.24312
     105 ->110        -0.17109

 Alpha  occ. eigenvalues --  -88.91118 -88.90574 -19.17353 -19.11195 -14.37598
 Alpha  occ. eigenvalues --  -14.36906 -14.32183 -10.28991 -10.28754 -10.24525
 Alpha  occ. eigenvalues --  -10.24275 -10.24148 -10.23843 -10.22821 -10.22623
 Alpha  occ. eigenvalues --  -10.22223 -10.21032 -10.20976 -10.20774 -10.20476
 Alpha  occ. eigenvalues --  -10.19845 -10.19497 -10.18629 -10.18472 -10.18148
 Alpha  occ. eigenvalues --  -10.17886 -10.17487  -7.97268  -7.96693  -5.93692
 Alpha  occ. eigenvalues --   -5.93337  -5.93093  -5.92909  -5.92719  -5.92412
 Alpha  occ. eigenvalues --   -1.05913  -1.03439  -0.99526  -0.94953  -0.92002
 Alpha  occ. eigenvalues --   -0.87465  -0.84871  -0.80097  -0.78702  -0.78145
 Alpha  occ. eigenvalues --   -0.77189  -0.75016  -0.73828  -0.72341  -0.70712
 Alpha  occ. eigenvalues --   -0.69038  -0.68595  -0.67177  -0.63997  -0.60082
 Alpha  occ. eigenvalues --   -0.59884  -0.58910  -0.57240  -0.55952  -0.54105
 Alpha  occ. eigenvalues --   -0.52783  -0.52120  -0.51666  -0.50287  -0.48827
 Alpha  occ. eigenvalues --   -0.48640  -0.48279  -0.47973  -0.47689  -0.47004
 Alpha  occ. eigenvalues --   -0.46487  -0.46053  -0.43914  -0.43234  -0.42702
 Alpha  occ. eigenvalues --   -0.41943  -0.41635  -0.41177  -0.40774  -0.40288
 Alpha  occ. eigenvalues --   -0.39965  -0.39767  -0.38776  -0.38104  -0.37606
 Alpha  occ. eigenvalues --   -0.37465  -0.37128  -0.36610  -0.36424  -0.35710
 Alpha  occ. eigenvalues --   -0.35247  -0.34701  -0.33901  -0.32150  -0.31029
 Alpha  occ. eigenvalues --   -0.30830  -0.28546  -0.27443  -0.25318  -0.25244
 Alpha  occ. eigenvalues --   -0.24036  -0.23860  -0.23041  -0.21207  -0.19261
 Alpha virt. eigenvalues --   -0.02822   0.00499   0.00954   0.01097   0.01590
 Alpha virt. eigenvalues --    0.02625   0.03470   0.03860   0.07318   0.08340
 Alpha virt. eigenvalues --    0.09213   0.09803   0.10242   0.10910   0.11138

 Mulliken charges:
               1
     1  C   -0.213625
     2  O   -0.510180
     3  C    0.380720
     4  C   -0.197086
     5  C   -0.142249
     6  C   -0.150338
     7  C    0.205503
     8  C   -0.496416
     9  C    0.600083
    10  O   -0.498586
    11  N   -0.436264
    12  C   -0.144392
    13  C   -0.170001
    14  N   -0.433414
    15  C    0.319264
    16  N   -0.538408
    17  C    0.317445
    18  C    0.116911
    19  C   -0.096520
    20  C   -0.357835
    21  S    0.257089
    22  C   -0.411215
    23  C   -0.421354
    24  S    0.196574
    25  C   -0.160158
    26  C   -0.154994
    27  C   -0.237618
    28  H    0.167625
    29  H    0.152632
    30  H    0.149701
    31  H    0.128394
    32  H    0.128385
    33  H    0.123765
    34  H    0.170512
    35  H    0.172669
    36  H    0.163190
    37  H    0.168207
    38  H    0.177538
    39  H    0.162183
    40  H    0.156413
    41  H    0.174001
    42  H    0.167444
    43  H    0.168812
    44  H    0.157517
    45  H    0.197875
    46  H    0.200988
    47  H    0.162546
    48  H    0.126667
 Sum of Mulliken charges =  -0.00000

 Dipole moment (field-independent basis, Debye):
    X=             -1.8686    Y=             -2.5566    Z=              0.3995  Tot=              3.1918
 Quadrupole moment (field-independent basis, Debye-Ang):
   XX=           -161.3385   YY=           -165.3616   ZZ=           -169.0631
   XY=             -2.5195   XZ=              1.2390   YZ=             -1.2253

 Normal termination of Gaussian 16 at Sat Nov  5 11:43:58 2022.
