 Gaussian 16, Revision B.01,
 Gaussian 16:  ES64L-G16RevB.01 20-Dec-2017

 -----------------------------
 #p b3lyp/6-31g(d) opt SCF=XQC
 -----------------------------

 ------------------------------
 Gaussian input prepared by ASE
 ------------------------------
 Symbolic Z-matrix:
 Charge =  0 Multiplicity = 1

 SCF Done:  E(RB3LYP) =  -1885.83150540     A.U. after   15 cycles
 SCF Done:  E(RB3LYP) =  -1885.83773663     A.U. after   12 cycles
 SCF Done:  E(RB3LYP) =  -1885.83814185     A.U. after   11 cycles
 SCF Done:  E(RB3LYP) =  -1885.83818392     A.U. after   11 cycles
 SCF Done:  E(RB3LYP) =  -1885.83829083     A.U. after   11 cycles
 SCF Done:  E(RB3LYP) =  -1885.83836146     A.U. after   12 cycles
 SCF Done:  E(RB3LYP) =  -1885.83841878     A.U. after   12 cycles
 SCF Done:  E(RB3LYP) =  -1885.83844297     A.U. after   11 cycles
 SCF Done:  E(RB3LYP) =  -1885.83846462     A.U. after   11 cycles
 SCF Done:  E(RB3LYP) =  -1885.83849905     A.U. after   10 cycles
 SCF Done:  E(RB3LYP) =  -1885.83855915     A.U. after    8 cycles
 SCF Done:  E(RB3LYP) =  -1885.83855967     A.U. after    9 cycles
 SCF Done:  E(RB3LYP) =  -1885.83855996     A.U. after    9 cycles
 SCF Done:  E(RB3LYP) =  -1885.83856004     A.U. after    7 cycles
 SCF Done:  E(RB3LYP) =  -1885.83856021     A.U. after    7 cycles
 SCF Done:  E(RB3LYP) =  -1885.83856069     A.U. after    9 cycles
 SCF Done:  E(RB3LYP) =  -1885.83856098     A.U. after    9 cycles
 SCF Done:  E(RB3LYP) =  -1885.83856124     A.U. after    9 cycles
 SCF Done:  E(RB3LYP) =  -1885.83856136     A.U. after    8 cycles
 SCF Done:  E(RB3LYP) =  -1885.83856139     A.U. after    8 cycles
 Optimization completed.
    -- Stationary point found.

                         Standard orientation:
 ---------------------------------------------------------------------
 Center     Atomic      Atomic             Coordinates (Angstroms)
 Number     Number       Type             X           Y           Z
 ---------------------------------------------------------------------
      1          6           0       -8.880103   -1.402948   -1.936766
      2          8           0       -7.556308   -0.898513   -1.986311
      3          6           0       -6.942902   -0.583262   -0.805438
      4          6           0       -7.531478   -0.704032    0.455966
      5          6           0       -6.790427   -0.344318    1.587669
      6          6           0       -5.489163    0.129681    1.475673
      7          6           0       -4.896705    0.253219    0.208866
      8          6           0       -3.493932    0.796799    0.054978
      9          6           0       -2.407191   -0.119479    0.648436
     10          8           0       -2.689075   -1.119721    1.294921
     11          7           0       -1.095015    0.251340    0.430201
     12          6           0       -0.635107    1.415118   -0.321009
     13          6           0        0.385149    2.212263    0.513729
     14          7           0        1.469523    1.356809    0.982094
     15          6           0        2.652158    1.245089    0.292170
     16          7           0        3.489884    0.255458    0.429562
     17          6           0        4.641995    0.449419   -0.319656
     18          6           0        5.687531   -0.581324   -0.265523
     19          6           0        5.514260   -1.827410    0.429534
     20          6           0        6.603996   -2.643202    0.350378
     21         16           0        7.881086   -1.914167   -0.573982
     22          6           0        6.928750   -0.497112   -0.852860
     23          6           0        4.673848    1.600322   -1.055579
     24         16           0        3.212905    2.524540   -0.813352
     25          6           0        0.989588    0.195707    1.742780
     26          6           0       -0.018337   -0.614801    0.920785
     27          6           0       -5.629364   -0.103456   -0.919814
     28          1           0       -9.167798   -1.593366   -2.972570
     29          1           0       -8.934817   -2.340557   -1.367515
     30          1           0       -9.575033   -0.675124   -1.496391
     31          1           0       -8.545101   -1.070502    0.570836
     32          1           0       -7.246468   -0.442082    2.569430
     33          1           0       -4.923625    0.389465    2.364978
     34          1           0       -3.284705    0.971362   -1.006681
     35          1           0       -3.419418    1.778031    0.545761
     36          1           0       -0.156903    1.090656   -1.258157
     37          1           0       -1.474364    2.060937   -0.579066
     38          1           0        0.785390    3.045252   -0.069955
     39          1           0       -0.118413    2.635097    1.392464
     40          1           0        4.602450   -2.076920    0.957156
     41          1           0        6.736911   -3.628099    0.777172
     42          1           0        7.342631    0.321784   -1.425398
     43          1           0        5.435125    1.954453   -1.735273
     44          1           0        0.509978    0.569454    2.656120
     45          1           0        1.849967   -0.414531    2.016406
     46          1           0       -0.478310   -1.401691    1.518933
     47          1           0        0.497756   -1.076443    0.066712
     48          1           0       -5.202177   -0.020156   -1.915426
 ---------------------------------------------------------------------

 The electronic state is 1-A.
 Alpha  occ. eigenvalues --  -88.91118 -88.90574 -19.17353 -19.11195 -14.37598
 Alpha  occ. eigenvalues --  -14.36906 -14.32182 -10.28991 -10.28754 -10.24525
 Alpha  occ. eigenvalues --  -10.24275 -10.24148 -10.23843 -10.22821 -10.22623
 Alpha  occ. eigenvalues --  -10.22223 -10.21032 -10.20976 -10.20774 -10.20476
 Alpha  occ. eigenvalues --  -10.19845 -10.19497 -10.18629 -10.18472 -10.18148
 Alpha  occ. eigenvalues --  -10.17886 -10.17487  -7.97268  -7.96693  -5.93692
 Alpha  occ. eigenvalues --   -5.93337  -5.93093  -5.92909  -5.92719  -5.92412
 Alpha  occ. eigenvalues --   -1.05913  -1.03439  -0.99525  -0.94953  -0.92002
 Alpha  occ. eigenvalues --   -0.87465  -0.84871  -0.80097  -0.78702  -0.78145
 Alpha  occ. eigenvalues --   -0.77189  -0.75016  -0.73828  -0.72341  -0.70712
 Alpha  occ. eigenvalues --   -0.69038  -0.68595  -0.67177  -0.63997  -0.60082
 Alpha  occ. eigenvalues --   -0.59884  -0.58910  -0.57240  -0.55952  -0.54105
 Alpha  occ. eigenvalues --   -0.52783  -0.52120  -0.51666  -0.50287  -0.48827
 Alpha  occ. eigenvalues --   -0.48640  -0.48279  -0.47973  -0.47689  -0.47004
 Alpha  occ. eigenvalues --   -0.46487  -0.46053  -0.43914  -0.43234  -0.42702
 Alpha  occ. eigenvalues --   -0.41943  -0.41635  -0.41177  -0.40774  -0.40288
 Alpha  occ. eigenvalues --   -0.39965  -0.39767  -0.38776  -0.38104  -0.37606
 Alpha  occ. eigenvalues --   -0.37465  -0.37128  -0.36610  -0.36424  -0.35710
 Alpha  occ. eigenvalues --   -0.35247  -0.34701  -0.33901  -0.32150  -0.31029
 Alpha  occ. eigenvalues --   -0.30830  -0.28546  -0.27443  -0.25318  -0.25244
 Alpha  occ. eigenvalues --   -0.24036  -0.23860  -0.23041  -0.21207  -0.19261
 Alpha virt. eigenvalues --   -0.02822   0.00499   0.00954   0.01097   0.01590
 Alpha virt. eigenvalues --    0.02625   0.03470   0.03860   0.07318   0.08340
 Alpha virt. eigenvalues --    0.09213   0.09803   0.10242   0.10910   0.11138

 Mulliken charges:
               1
     1  C   -0.213625
     2  O   -0.510178
     3  C    0.380715
     4  C   -0.197086
     5  C   -0.142245
     6  C   -0.150342
     7  C    0.205503
     8  C   -0.496410
     9  C    0.600066
    10  O   -0.498582
    11  N   -0.436246
    12  C   -0.144392
    13  C   -0.170009
    14  N   -0.433410
    15  C    0.319280
    16  N   -0.538409
    17  C    0.317439
    18  C    0.116916
    19  C   -0.096522
    20  C   -0.357842
    21  S    0.257096
    22  C   -0.411226
    23  C   -0.421344
    24  S    0.196559
    25  C   -0.160160
    26  C   -0.154999
    27  C   -0.237620
    28  H    0.167625
    29  H    0.152633
    30  H    0.149701
    31  H    0.128394
    32  H    0.128385
    33  H    0.123765
    34  H    0.170513
    35  H    0.172668
    36  H    0.163188
    37  H    0.168207
    38  H    0.177540
    39  H    0.162184
    40  H    0.156418
    41  H    0.174002
    42  H    0.167444
    43  H    0.168813
    44  H    0.157517
    45  H    0.197873
    46  H    0.200989
    47  H    0.162546
    48  H    0.126666
 Sum of Mulliken charges =  -0.00000

 Dipole moment (field-independent basis, Debye):
    X=             -1.7852    Y=              2.4680    Z=             -0.9534  Tot=              3.1917
 Quadrupole moment (field-independent basis, Debye-Ang):
   XX=           -157.7979   YY=           -165.9332   ZZ=           -168.8523
   XY=              0.2089   XZ=             -0.0295   YZ=             -1.4700

 Normal termination of Gaussian 16 at Fri Nov  4 06:29:27 2022.
