 Gaussian 16, Revision B.01,
 Gaussian 16:  ES64L-G16RevB.01 20-Dec-2017

 -----------------------------
 #p b3lyp/6-31g(d) opt SCF=XQC
 -----------------------------

 ------------------------------
 Gaussian input prepared by ASE
 ------------------------------
 Symbolic Z-matrix:
 Charge =  0 Multiplicity = 1

 SCF Done:  E(RB3LYP) =  -1658.71804701     A.U. after   15 cycles
 SCF Done:  E(RB3LYP) =  -1658.72645352     A.U. after   14 cycles
 SCF Done:  E(RB3LYP) =  -1658.72609597     A.U. after   15 cycles
 SCF Done:  E(RB3LYP) =  -1658.73070363     A.U. after   13 cycles
 SCF Done:  E(RB3LYP) =  -1658.73141845     A.U. after   13 cycles
 SCF Done:  E(RB3LYP) =  -1658.73029022     A.U. after   15 cycles
 SCF Done:  E(RB3LYP) =  -1658.73211468     A.U. after   12 cycles
 SCF Done:  E(RB3LYP) =  -1658.73257180     A.U. after   12 cycles
 SCF Done:  E(RB3LYP) =  -1658.73289784     A.U. after   12 cycles
 SCF Done:  E(RB3LYP) =  -1658.73302971     A.U. after   12 cycles
 SCF Done:  E(RB3LYP) =  -1658.73405414     A.U. after   10 cycles
 SCF Done:  E(RB3LYP) =  -1658.73406015     A.U. after    9 cycles
 SCF Done:  E(RB3LYP) =  -1658.73406255     A.U. after    9 cycles
 SCF Done:  E(RB3LYP) =  -1658.73406396     A.U. after    8 cycles
 SCF Done:  E(RB3LYP) =  -1658.73406449     A.U. after    8 cycles
 SCF Done:  E(RB3LYP) =  -1658.73406466     A.U. after    7 cycles
 SCF Done:  E(RB3LYP) =  -1658.73406482     A.U. after    7 cycles
 SCF Done:  E(RB3LYP) =  -1658.73406488     A.U. after    7 cycles
 SCF Done:  E(RB3LYP) =  -1658.73406493     A.U. after    7 cycles
 SCF Done:  E(RB3LYP) =  -1658.73406494     A.U. after    6 cycles
 Optimization completed.
    -- Stationary point found.

                         Standard orientation:
 ---------------------------------------------------------------------
 Center     Atomic      Atomic             Coordinates (Angstroms)
 Number     Number       Type             X           Y           Z
 ---------------------------------------------------------------------
      1          6           0       -3.496223   -4.074712   -0.872322
      2          6           0       -4.073387   -2.839603   -0.277567
      3          8           0       -5.376160   -2.907683    0.118020
      4          6           0       -5.719857   -1.689493    0.634198
      5          6           0       -4.669450   -0.836009    0.575427
      6          6           0       -3.582407   -1.577675   -0.021864
      7          6           0       -2.217966   -1.142594   -0.289789
      8          7           0       -1.179764   -1.958020   -0.426669
      9          7           0       -0.070647   -1.201350   -0.675197
     10          6           0       -0.436346    0.063623   -0.676029
     11         16           0        0.645869    1.402650   -1.040989
     12          6           0        1.131220    2.027726    0.647161
     13          6           0        1.004256    0.987853    1.756160
     14          8           0        0.047166    1.031272    2.529423
     15          7           0        1.975255    0.043076    1.872323
     16          6           0        3.008775   -0.321390    0.903229
     17          6           0        4.176708   -1.021845    1.602086
     18          6           0        5.283513   -1.409084    0.626593
     19          8           0        5.794428   -0.222727    0.042511
     20          6           0        6.701016   -0.413736   -1.047663
     21          6           0        6.766696    0.918840   -1.787002
     22          6           0        8.079279   -0.876072   -0.564684
     23          7           0       -1.799424    0.162224   -0.443358
     24          6           0       -2.580082    1.365854   -0.397453
     25          6           0       -2.521627    2.180807    0.736333
     26          6           0       -3.294671    3.342984    0.773280
     27          6           0       -4.115928    3.680867   -0.304756
     28          6           0       -4.163813    2.857611   -1.432054
     29          6           0       -3.393065    1.696480   -1.483660
     30          1           0       -2.476700   -3.878402   -1.206358
     31          1           0       -4.105621   -4.424091   -1.714799
     32          1           0       -3.461378   -4.884742   -0.132707
     33          1           0       -6.732221   -1.601747    0.997079
     34          1           0       -4.652103    0.185107    0.923562
     35          1           0        2.158028    2.385073    0.526092
     36          1           0        0.486853    2.864105    0.916919
     37          1           0        1.734179   -0.663125    2.560096
     38          1           0        3.380462    0.581178    0.415025
     39          1           0        2.581356   -0.967080    0.124569
     40          1           0        3.823410   -1.934935    2.101717
     41          1           0        4.590358   -0.365383    2.377100
     42          1           0        6.069743   -1.962538    1.162786
     43          1           0        4.886136   -2.077435   -0.156683
     44          1           0        6.281031   -1.179612   -1.722061
     45          1           0        7.157523    1.700561   -1.125813
     46          1           0        5.769336    1.219500   -2.122650
     47          1           0        7.422547    0.845637   -2.661264
     48          1           0        8.762528   -0.997373   -1.413003
     49          1           0        8.027241   -1.837150   -0.042214
     50          1           0        8.506906   -0.135590    0.120892
     51          1           0       -1.875165    1.900658    1.564431
     52          1           0       -3.255586    3.982675    1.650566
     53          1           0       -4.717017    4.585227   -0.267752
     54          1           0       -4.799042    3.118964   -2.273555
     55          1           0       -3.417975    1.047120   -2.353200
 ---------------------------------------------------------------------

 The electronic state is 1-A.
 Alpha  occ. eigenvalues --  -88.89411 -19.21307 -19.14465 -19.11375 -14.40640
 Alpha  occ. eigenvalues --  -14.35796 -14.34492 -14.33664 -10.29248 -10.26531
 Alpha  occ. eigenvalues --  -10.25825 -10.24639 -10.24400 -10.23726 -10.23398
 Alpha  occ. eigenvalues --  -10.23366 -10.22754 -10.21747 -10.20671 -10.20482
 Alpha  occ. eigenvalues --  -10.20417 -10.20320 -10.19953 -10.19937 -10.19148
 Alpha  occ. eigenvalues --  -10.18751 -10.18170 -10.17654 -10.17440  -7.95409
 Alpha  occ. eigenvalues --   -5.91968  -5.91577  -5.90821  -1.10796  -1.06059
 Alpha  occ. eigenvalues --   -1.03169  -1.02823  -0.93426  -0.91942  -0.85871
 Alpha  occ. eigenvalues --   -0.84290  -0.80465  -0.79720  -0.77911  -0.76936
 Alpha  occ. eigenvalues --   -0.75949  -0.75856  -0.75746  -0.69573  -0.69140
 Alpha  occ. eigenvalues --   -0.68441  -0.67666  -0.64668  -0.63105  -0.62111
 Alpha  occ. eigenvalues --   -0.60368  -0.60232  -0.58209  -0.57874  -0.56828
 Alpha  occ. eigenvalues --   -0.54795  -0.53395  -0.51477  -0.50637  -0.49766
 Alpha  occ. eigenvalues --   -0.49653  -0.49163  -0.48369  -0.46187  -0.45960
 Alpha  occ. eigenvalues --   -0.45589  -0.45173  -0.44693  -0.44503  -0.44066
 Alpha  occ. eigenvalues --   -0.43350  -0.43006  -0.42295  -0.42047  -0.41739
 Alpha  occ. eigenvalues --   -0.40955  -0.39999  -0.39625  -0.39123  -0.38959
 Alpha  occ. eigenvalues --   -0.38707  -0.38682  -0.37646  -0.37398  -0.37320
 Alpha  occ. eigenvalues --   -0.36608  -0.36372  -0.36038  -0.35777  -0.35088
 Alpha  occ. eigenvalues --   -0.34123  -0.33824  -0.31127  -0.30863  -0.30159
 Alpha  occ. eigenvalues --   -0.29503  -0.27183  -0.26395  -0.25596  -0.25320
 Alpha  occ. eigenvalues --   -0.25117  -0.24608  -0.24515  -0.24012  -0.21105
 Alpha virt. eigenvalues --   -0.02639  -0.01743  -0.01509  -0.00104   0.01868
 Alpha virt. eigenvalues --    0.03500   0.05809   0.08076   0.08597   0.09029
 Alpha virt. eigenvalues --    0.09618   0.11000   0.11183   0.11362   0.11813

 Mulliken charges:
               1
     1  C   -0.534447
     2  C    0.323636
     3  O   -0.432495
     4  C    0.068488
     5  C   -0.208433
     6  C    0.033393
     7  C    0.453178
     8  N   -0.386706
     9  N   -0.289721
    10  C    0.213680
    11  S    0.162267
    12  C   -0.525370
    13  C    0.593633
    14  O   -0.510451
    15  N   -0.572124
    16  C   -0.125960
    17  C   -0.297778
    18  C   -0.015465
    19  O   -0.486906
    20  C    0.163085
    21  C   -0.449787
    22  C   -0.457409
    23  N   -0.550672
    24  C    0.209939
    25  C   -0.150180
    26  C   -0.155863
    27  C   -0.114511
    28  C   -0.145387
    29  C   -0.115242
    30  H    0.209579
    31  H    0.163226
    32  H    0.172207
    33  H    0.157698
    34  H    0.161681
    35  H    0.195870
    36  H    0.206608
    37  H    0.331926
    38  H    0.173236
    39  H    0.192470
    40  H    0.137999
    41  H    0.157363
    42  H    0.126765
    43  H    0.126246
    44  H    0.114461
    45  H    0.151467
    46  H    0.155804
    47  H    0.141785
    48  H    0.143976
    49  H    0.147192
    50  H    0.152291
    51  H    0.207927
    52  H    0.144830
    53  H    0.138157
    54  H    0.141743
    55  H    0.151100
 Sum of Mulliken charges =  -0.00000

 Dipole moment (field-independent basis, Debye):
    X=              0.2769    Y=              1.8146    Z=             -0.6695  Tot=              1.9538
 Quadrupole moment (field-independent basis, Debye-Ang):
   XX=           -145.6592   YY=           -168.4815   ZZ=           -178.4715
   XY=            -12.6620   XZ=              2.9812   YZ=             -2.1855

 Normal termination of Gaussian 16 at Fri Nov  4 20:12:45 2022.
