 Gaussian 16, Revision B.01,
 Gaussian 16:  ES64L-G16RevB.01 20-Dec-2017

 -------------------------------------------------------------------
 #p b3lyp/6-31g(d) 6D 10F nosymm GFInput td=(50-50,nstate=2) SCF=XQC
 -------------------------------------------------------------------

 ------------------------------
 Gaussian input prepared by ASE
 ------------------------------
 Symbolic Z-matrix:
 Charge =  0 Multiplicity = 1

                          Input orientation:
 ---------------------------------------------------------------------
 Center     Atomic      Atomic             Coordinates (Angstroms)
 Number     Number       Type             X           Y           Z
 ---------------------------------------------------------------------
      1          6           0       -4.211435    2.975903    2.638714
      2          6           0       -4.778647    2.051240    1.621063
      3          8           0       -6.112362    2.172788    1.366558
      4          6           0       -6.441276    1.249668    0.413554
      5          6           0       -5.350594    0.532186    0.051785
      6          6           0       -4.252451    1.047259    0.837450
      7          6           0       -2.851018    0.649174    0.820418
      8          7           0       -1.844544    1.415886    1.221271
      9          7           0       -0.683691    0.713363    1.068500
     10          6           0       -0.987845   -0.465594    0.567056
     11         16           0        0.183734   -1.747265    0.280527
     12          6           0        0.551119   -1.586544   -1.540278
     13          6           0        0.280340   -0.197368   -2.109666
     14          8           0       -0.736565    0.004509   -2.773740
     15          7           0        1.192075    0.785212   -1.881163
     16          6           0        2.286723    0.801037   -0.910782
     17          6           0        3.355880    1.815432   -1.324319
     18          6           0        4.522934    1.855091   -0.343008
     19          8           0        5.137600    0.577699   -0.333674
     20          6           0        6.124523    0.376333    0.682346
     21          6           0        6.316350   -1.132454    0.798370
     22          6           0        7.432796    1.102425    0.353948
     23          7           0       -2.359700   -0.566969    0.395079
     24          6           0       -3.083726   -1.703597   -0.099008
     25          6           0       -3.084558   -1.975849   -1.469744
     26          6           0       -3.802193   -3.077863   -1.938980
     27          6           0       -4.510862   -3.890634   -1.051297
     28          6           0       -4.500461   -3.607349    0.316361
     29          6           0       -3.783801   -2.512466    0.798614
     30          1           0       -3.158843    2.740751    2.800883
     31          1           0       -4.761957    2.900911    3.584493
     32          1           0       -4.278579    4.017673    2.300184
     33          1           0       -7.475815    1.238967    0.107159
     34          1           0       -5.315061   -0.252224   -0.688225
     35          1           0        1.600252   -1.880361   -1.638661
     36          1           0       -0.073854   -2.287019   -2.093679
     37          1           0        0.859698    1.689728   -2.199354
     38          1           0        2.741192   -0.190065   -0.862856
     39          1           0        1.897828    1.035801    0.088999
     40          1           0        2.918230    2.822218   -1.379350
     41          1           0        3.731894    1.568304   -2.324437
     42          1           0        5.233152    2.639333   -0.647189
     43          1           0        4.163264    2.110923    0.668580
     44          1           0        5.728391    0.763603    1.636739
     45          1           0        6.685349   -1.541820   -0.148870
     46          1           0        5.366846   -1.621391    1.037463
     47          1           0        7.040745   -1.372226    1.584241
     48          1           0        8.179956    0.919142    1.134555
     49          1           0        7.290726    2.185822    0.280314
     50          1           0        7.834374    0.743414   -0.600536
     51          1           0       -2.525629   -1.331562   -2.144009
     52          1           0       -3.808523   -3.297284   -3.003018
     53          1           0       -5.069547   -4.744764   -1.423962
     54          1           0       -5.047947   -4.239154    1.009923
     55          1           0       -3.764487   -2.279973    1.858786
 ---------------------------------------------------------------------

 SCF Done:  E(RB3LYP) =  -1658.73405618     A.U. after   15 cycles

 Excitation energies and oscillator strengths:

 Excited state symmetry could not be determined.
 Excited State   1:      Triplet-?Sym    3.3178 eV  373.69 nm  f=0.0000  <S**2>=2.000
     110 ->111         0.42582
     110 ->113        -0.31898
     110 ->114        -0.38184
     110 ->115        -0.15594
 This state for optimization and/or second-order correction.
 Total Energy, E(TD-HF/TD-DFT) =  -1658.61212776
 Copying the excited state density for this state as the 1-particle RhoCI density.

 Excited state symmetry could not be determined.
 Excited State   2:      Triplet-?Sym    3.7302 eV  332.38 nm  f=0.0000  <S**2>=2.000
     102 ->111         0.22770
     102 ->112         0.15812
     102 ->113         0.19532
     103 ->112        -0.36576
     103 ->113         0.22924
     103 ->114        -0.10706
     106 ->111         0.10856
     106 ->112         0.10562
     108 ->111        -0.24951
     108 ->112        -0.10810
     108 ->113        -0.20260

 Excited state symmetry could not be determined.
 Excited State   3:      Singlet-?Sym    4.4583 eV  278.10 nm  f=0.0901  <S**2>=0.000
     110 ->111         0.68050
     110 ->113         0.16610

 Excited state symmetry could not be determined.
 Excited State   4:      Singlet-?Sym    4.6789 eV  264.99 nm  f=0.0235  <S**2>=0.000
     110 ->112         0.69099

 Alpha  occ. eigenvalues --  -88.89411 -19.21307 -19.14465 -19.11375 -14.40640
 Alpha  occ. eigenvalues --  -14.35796 -14.34492 -14.33664 -10.29248 -10.26531
 Alpha  occ. eigenvalues --  -10.25825 -10.24638 -10.24400 -10.23726 -10.23398
 Alpha  occ. eigenvalues --  -10.23366 -10.22754 -10.21747 -10.20671 -10.20482
 Alpha  occ. eigenvalues --  -10.20417 -10.20321 -10.19953 -10.19937 -10.19148
 Alpha  occ. eigenvalues --  -10.18751 -10.18170 -10.17654 -10.17440  -7.95409
 Alpha  occ. eigenvalues --   -5.91969  -5.91578  -5.90821  -1.10796  -1.06059
 Alpha  occ. eigenvalues --   -1.03169  -1.02822  -0.93426  -0.91941  -0.85871
 Alpha  occ. eigenvalues --   -0.84290  -0.80465  -0.79720  -0.77911  -0.76936
 Alpha  occ. eigenvalues --   -0.75949  -0.75856  -0.75746  -0.69573  -0.69140
 Alpha  occ. eigenvalues --   -0.68441  -0.67666  -0.64668  -0.63105  -0.62111
 Alpha  occ. eigenvalues --   -0.60368  -0.60232  -0.58209  -0.57874  -0.56828
 Alpha  occ. eigenvalues --   -0.54795  -0.53395  -0.51477  -0.50637  -0.49766
 Alpha  occ. eigenvalues --   -0.49653  -0.49163  -0.48369  -0.46187  -0.45960
 Alpha  occ. eigenvalues --   -0.45589  -0.45173  -0.44693  -0.44503  -0.44066
 Alpha  occ. eigenvalues --   -0.43350  -0.43006  -0.42295  -0.42047  -0.41739
 Alpha  occ. eigenvalues --   -0.40955  -0.39999  -0.39625  -0.39123  -0.38959
 Alpha  occ. eigenvalues --   -0.38707  -0.38682  -0.37646  -0.37398  -0.37320
 Alpha  occ. eigenvalues --   -0.36608  -0.36372  -0.36038  -0.35777  -0.35088
 Alpha  occ. eigenvalues --   -0.34123  -0.33824  -0.31127  -0.30863  -0.30159
 Alpha  occ. eigenvalues --   -0.29503  -0.27183  -0.26396  -0.25596  -0.25320
 Alpha  occ. eigenvalues --   -0.25117  -0.24608  -0.24515  -0.24012  -0.21105
 Alpha virt. eigenvalues --   -0.02639  -0.01743  -0.01509  -0.00104   0.01868
 Alpha virt. eigenvalues --    0.03500   0.05809   0.08076   0.08597   0.09030
 Alpha virt. eigenvalues --    0.09618   0.11000   0.11183   0.11362   0.11813

 Mulliken charges:
               1
     1  C   -0.534446
     2  C    0.323639
     3  O   -0.432497
     4  C    0.068488
     5  C   -0.208434
     6  C    0.033391
     7  C    0.453192
     8  N   -0.386712
     9  N   -0.289726
    10  C    0.213696
    11  S    0.162246
    12  C   -0.525386
    13  C    0.593658
    14  O   -0.510451
    15  N   -0.572137
    16  C   -0.125943
    17  C   -0.297791
    18  C   -0.015445
    19  O   -0.486916
    20  C    0.163089
    21  C   -0.449794
    22  C   -0.457402
    23  N   -0.550655
    24  C    0.209914
    25  C   -0.150179
    26  C   -0.155860
    27  C   -0.114506
    28  C   -0.145398
    29  C   -0.115227
    30  H    0.209579
    31  H    0.163226
    32  H    0.172207
    33  H    0.157698
    34  H    0.161681
    35  H    0.195872
    36  H    0.206610
    37  H    0.331925
    38  H    0.173238
    39  H    0.192466
    40  H    0.137999
    41  H    0.157363
    42  H    0.126763
    43  H    0.126243
    44  H    0.114461
    45  H    0.151467
    46  H    0.155806
    47  H    0.141787
    48  H    0.143974
    49  H    0.147190
    50  H    0.152288
    51  H    0.207919
    52  H    0.144830
    53  H    0.138158
    54  H    0.141745
    55  H    0.151099
 Sum of Mulliken charges =  -0.00000

 Dipole moment (field-independent basis, Debye):
    X=              0.4187    Y=             -1.9018    Z=             -0.1594  Tot=              1.9538
 Quadrupole moment (field-independent basis, Debye-Ang):
   XX=           -148.1497   YY=           -166.0217   ZZ=           -178.5727
   XY=             15.6516   XZ=              0.5504   YZ=              1.7275

 Normal termination of Gaussian 16 at Sat Nov  5 11:50:14 2022.
