 Gaussian 16, Revision B.01,
 Gaussian 16:  ES64L-G16RevB.01 20-Dec-2017

 -----------------------------
 #p b3lyp/6-31g(d) opt SCF=XQC
 -----------------------------

 ------------------------------
 Gaussian input prepared by ASE
 ------------------------------
 Symbolic Z-matrix:
 Charge =  0 Multiplicity = 1

 SCF Done:  E(RB3LYP) =  -1430.92898180     A.U. after   15 cycles
 SCF Done:  E(RB3LYP) =  -1430.92608494     A.U. after   15 cycles
 SCF Done:  E(RB3LYP) =  -1430.93397508     A.U. after   13 cycles
 SCF Done:  E(RB3LYP) =  -1430.93097518     A.U. after   16 cycles
 SCF Done:  E(RB3LYP) =  -1430.93568211     A.U. after   13 cycles
 SCF Done:  E(RB3LYP) =  -1430.93666133     A.U. after   13 cycles
 SCF Done:  E(RB3LYP) =  -1430.93506172     A.U. after   12 cycles
 SCF Done:  E(RB3LYP) =  -1430.93654360     A.U. after   12 cycles
 SCF Done:  E(RB3LYP) =  -1430.93697964     A.U. after    9 cycles
 SCF Done:  E(RB3LYP) =  -1430.93716903     A.U. after   12 cycles
 SCF Done:  E(RB3LYP) =  -1430.94050306     A.U. after   11 cycles
 SCF Done:  E(RB3LYP) =  -1430.94062312     A.U. after   11 cycles
 SCF Done:  E(RB3LYP) =  -1430.94055933     A.U. after   11 cycles
 SCF Done:  E(RB3LYP) =  -1430.94063404     A.U. after   11 cycles
 SCF Done:  E(RB3LYP) =  -1430.94063748     A.U. after    9 cycles
 SCF Done:  E(RB3LYP) =  -1430.94064466     A.U. after    9 cycles
 SCF Done:  E(RB3LYP) =  -1430.94065127     A.U. after   10 cycles
 SCF Done:  E(RB3LYP) =  -1430.94065156     A.U. after    9 cycles
 SCF Done:  E(RB3LYP) =  -1430.94065163     A.U. after    7 cycles
 SCF Done:  E(RB3LYP) =  -1430.94065166     A.U. after    7 cycles
 Optimization completed.
    -- Stationary point found.

                         Standard orientation:
 ---------------------------------------------------------------------
 Center     Atomic      Atomic             Coordinates (Angstroms)
 Number     Number       Type             X           Y           Z
 ---------------------------------------------------------------------
      1          6           0       -6.930993    3.073038    0.938158
      2          6           0       -5.887353    2.032432    0.604727
      3          6           0       -4.648538    2.393655    0.060013
      4          6           0       -3.698702    1.433963   -0.274893
      5          6           0       -3.959132    0.069613   -0.072244
      6          7           0       -2.950961   -0.843856   -0.438924
      7          6           0       -2.936065   -2.202083   -0.287755
      8          8           0       -3.843457   -2.885289    0.170664
      9          6           0       -1.640144   -2.857437   -0.783050
     10         16           0       -0.183167   -2.627088    0.319641
     11          6           0        0.592909   -1.167900   -0.340919
     12          6           0        1.898874   -0.896516    0.050299
     13          6           0        2.494706    0.282485   -0.456907
     14          7           0        3.755371    0.664261   -0.115661
     15          6           0        4.404854    1.826321   -0.736083
     16          6           0        5.831580    1.471185   -1.166600
     17          6           0        6.679979    0.911127    0.007047
     18          6           0        5.827527    0.598364    1.252548
     19          6           0        6.602711   -0.228964    2.283238
     20          6           0        4.528390   -0.116150    0.856987
     21          7           0        1.809730    1.071652   -1.326574
     22          6           0        0.581091    0.694239   -1.633651
     23          7           0       -0.095055   -0.372037   -1.182407
     24          6           0       -5.193243   -0.310896    0.476946
     25          6           0       -6.129575    0.668174    0.805652
     26          1           0       -6.471991    4.033961    1.195842
     27          1           0       -7.606171    3.253735    0.090338
     28          1           0       -7.552893    2.760161    1.784117
     29          1           0       -4.419299    3.444540   -0.103840
     30          1           0       -2.741393    1.741565   -0.690029
     31          1           0       -2.088641   -0.446311   -0.818863
     32          1           0       -1.360762   -2.506848   -1.780110
     33          1           0       -1.813341   -3.934233   -0.806440
     34          1           0        2.430101   -1.582165    0.697024
     35          1           0        4.411462    2.670076   -0.031287
     36          1           0        3.795866    2.124913   -1.587823
     37          1           0        6.299876    2.364105   -1.596146
     38          1           0        5.770315    0.732168   -1.973996
     39          1           0        7.468469    1.618597    0.289816
     40          1           0        7.192525   -0.006105   -0.311406
     41          1           0        5.546989    1.548821    1.727447
     42          1           0        6.012176   -0.397191    3.191395
     43          1           0        6.880346   -1.208790    1.874788
     44          1           0        7.526529    0.282681    2.575150
     45          1           0        3.916990   -0.285516    1.753495
     46          1           0        4.770066   -1.108414    0.441074
     47          1           0        0.043647    1.331980   -2.334439
     48          1           0       -5.399953   -1.358747    0.644047
     49          1           0       -7.079429    0.354702    1.234169
 ---------------------------------------------------------------------

 The electronic state is 1-A.
 Alpha  occ. eigenvalues --  -88.89619 -19.10960 -14.37614 -14.35569 -14.34209
 Alpha  occ. eigenvalues --  -14.33449 -10.28473 -10.28165 -10.27227 -10.26439
 Alpha  occ. eigenvalues --  -10.23745 -10.22643 -10.22414 -10.21999 -10.21185
 Alpha  occ. eigenvalues --  -10.20446 -10.19895 -10.19836 -10.19331 -10.18118
 Alpha  occ. eigenvalues --  -10.17893 -10.17705 -10.17454 -10.17357 -10.16851
 Alpha  occ. eigenvalues --   -7.95733  -5.92250  -5.91829  -5.91241  -1.02685
 Alpha  occ. eigenvalues --   -1.00329  -0.96328  -0.92617  -0.89160  -0.83752
 Alpha  occ. eigenvalues --   -0.83165  -0.81016  -0.79055  -0.77481  -0.75329
 Alpha  occ. eigenvalues --   -0.73165  -0.71336  -0.70685  -0.68588  -0.66951
 Alpha  occ. eigenvalues --   -0.65089  -0.63493  -0.61204  -0.60146  -0.58788
 Alpha  occ. eigenvalues --   -0.55561  -0.55149  -0.54122  -0.53464  -0.52275
 Alpha  occ. eigenvalues --   -0.50949  -0.48408  -0.47591  -0.47139  -0.46775
 Alpha  occ. eigenvalues --   -0.45677  -0.45009  -0.44474  -0.44267  -0.43486
 Alpha  occ. eigenvalues --   -0.42643  -0.42523  -0.41994  -0.40972  -0.40889
 Alpha  occ. eigenvalues --   -0.40765  -0.40579  -0.40477  -0.39597  -0.39021
 Alpha  occ. eigenvalues --   -0.38117  -0.37292  -0.36908  -0.35535  -0.34967
 Alpha  occ. eigenvalues --   -0.34384  -0.34152  -0.33397  -0.33093  -0.32881
 Alpha  occ. eigenvalues --   -0.32798  -0.31021  -0.30621  -0.28571  -0.26679
 Alpha  occ. eigenvalues --   -0.25316  -0.23695  -0.23514  -0.22250  -0.19992
 Alpha virt. eigenvalues --   -0.03100  -0.01912  -0.00745   0.01231   0.02872
 Alpha virt. eigenvalues --    0.04925   0.06127   0.08566   0.09356   0.09996
 Alpha virt. eigenvalues --    0.10095   0.11308   0.11762   0.12036   0.12747

 Mulliken charges:
               1
     1  C   -0.529886
     2  C    0.184835
     3  C   -0.187247
     4  C   -0.197522
     5  C    0.352094
     6  N   -0.731265
     7  C    0.598506
     8  O   -0.496125
     9  C   -0.535893
    10  S    0.166964
    11  C    0.125736
    12  C   -0.221917
    13  C    0.548153
    14  N   -0.488677
    15  C   -0.146316
    16  C   -0.283542
    17  C   -0.264379
    18  C   -0.112612
    19  C   -0.452154
    20  C   -0.116678
    21  N   -0.495942
    22  C    0.191251
    23  N   -0.496145
    24  C   -0.160950
    25  C   -0.198535
    26  H    0.151825
    27  H    0.161353
    28  H    0.155165
    29  H    0.117371
    30  H    0.124207
    31  H    0.386392
    32  H    0.209909
    33  H    0.211286
    34  H    0.155626
    35  H    0.147866
    36  H    0.197600
    37  H    0.147318
    38  H    0.150824
    39  H    0.143013
    40  H    0.139701
    41  H    0.142792
    42  H    0.149442
    43  H    0.147341
    44  H    0.153396
    45  H    0.155680
    46  H    0.146513
    47  H    0.152198
    48  H    0.180336
    49  H    0.121091
 Sum of Mulliken charges =  -0.00000

 Dipole moment (field-independent basis, Debye):
    X=              7.1360    Y=              2.6099    Z=             -0.4011  Tot=              7.6089
 Quadrupole moment (field-independent basis, Debye-Ang):
   XX=           -138.9136   YY=           -156.7066   ZZ=           -154.2989
   XY=             -9.0589   XZ=              5.2043   YZ=              3.0028

 Normal termination of Gaussian 16 at Fri Nov  4 20:05:47 2022.
