 Gaussian 16, Revision B.01,
 Gaussian 16:  ES64L-G16RevB.01 20-Dec-2017

 -------------------------------------------------------------------
 #p b3lyp/6-31g(d) 6D 10F nosymm GFInput td=(50-50,nstate=2) SCF=XQC
 -------------------------------------------------------------------

 ------------------------------
 Gaussian input prepared by ASE
 ------------------------------
 Symbolic Z-matrix:
 Charge =  0 Multiplicity = 1

                          Input orientation:
 ---------------------------------------------------------------------
 Center     Atomic      Atomic             Coordinates (Angstroms)
 Number     Number       Type             X           Y           Z
 ---------------------------------------------------------------------
      1          6           0        7.602024   -2.142427   -0.103471
      2          6           0        6.469758   -1.142620   -0.063693
      3          6           0        5.250696   -1.398890   -0.704060
      4          6           0        4.218385   -0.466382   -0.693066
      5          6           0        4.373007    0.763086   -0.033638
      6          7           0        3.285492    1.658284   -0.068572
      7          6           0        3.164961    2.876387    0.539336
      8          8           0        4.025637    3.435524    1.207828
      9          6           0        1.808279    3.549741    0.293928
     10         16           0        0.403042    2.833854    1.245025
     11          6           0       -0.269341    1.628772    0.120951
     12          6           0       -1.538833    1.130671    0.390267
     13          6           0       -2.050321    0.150549   -0.492940
     14          7           0       -3.267041   -0.429940   -0.308260
     15          6           0       -3.836224   -1.360001   -1.292206
     16          6           0       -5.297394   -1.000813   -1.580270
     17          6           0       -6.158166   -0.949896   -0.289003
     18          6           0       -5.302412   -1.011379    0.991494
     19          6           0       -6.115406   -0.655244    2.240458
     20          6           0       -4.075565   -0.097669    0.870098
     21          7           0       -1.326208   -0.232587   -1.577912
     22          6           0       -0.140182    0.329423   -1.732118
     23          7           0        0.459004    1.229982   -0.939838
     24          6           0        5.585941    1.035476    0.617531
     25          6           0        6.606201    0.085813    0.594013
     26          1           0        7.228680   -3.168623   -0.192870
     27          1           0        8.267865   -1.964433   -0.959210
     28          1           0        8.217914   -2.086564    0.800884
     29          1           0        5.102861   -2.345644   -1.219385
     30          1           0        3.278782   -0.693037   -1.192235
     31          1           0        2.448683    1.343433   -0.565170
     32          1           0        1.532892    3.539206   -0.763969
     33          1           0        1.893437    4.580078    0.642048
     34          1           0       -2.107051    1.506193    1.230910
     35          1           0       -3.756908   -2.391331   -0.919687
     36          1           0       -3.226930   -1.296586   -2.192330
     37          1           0       -5.702903   -1.729013   -2.291891
     38          1           0       -5.316405   -0.027781   -2.084884
     39          1           0       -6.879620   -1.775304   -0.269161
     40          1           0       -6.750911   -0.025828   -0.275430
     41          1           0       -4.934200   -2.039659    1.112575
     42          1           0       -5.517528   -0.758681    3.153489
     43          1           0       -6.481408    0.378029    2.191880
     44          1           0       -6.987262   -1.311946    2.335547
     45          1           0       -3.457284   -0.194292    1.772658
     46          1           0       -4.406930    0.952834    0.818916
     47          1           0        0.428998    0.017758   -2.607082
     48          1           0        5.711654    1.976377    1.134780
     49          1           0        7.538241    0.312755    1.107737
 ---------------------------------------------------------------------

 SCF Done:  E(RB3LYP) =  -1430.94066301     A.U. after   15 cycles

 Excitation energies and oscillator strengths:

 Excited state symmetry could not be determined.
 Excited State   1:      Triplet-?Sym    3.3994 eV  364.73 nm  f=0.0000  <S**2>=2.000
      92 -> 99        -0.28457
      95 -> 97        -0.12569
      95 -> 98         0.57236
      95 ->100         0.23417
 This state for optimization and/or second-order correction.
 Total Energy, E(TD-HF/TD-DFT) =  -1430.81573854
 Copying the excited state density for this state as the 1-particle RhoCI density.

 Excited state symmetry could not be determined.
 Excited State   2:      Triplet-?Sym    3.6802 eV  336.89 nm  f=0.0000  <S**2>=2.000
      87 -> 96         0.13771
      91 -> 96         0.19613
      93 -> 97         0.15374
      94 -> 96         0.56788
      94 -> 97         0.22474
      95 -> 96         0.13325

 Excited state symmetry could not be determined.
 Excited State   3:      Singlet-?Sym    4.0775 eV  304.07 nm  f=0.0017  <S**2>=0.000
      95 -> 96         0.70621

 Excited state symmetry could not be determined.
 Excited State   4:      Singlet-?Sym    4.4152 eV  280.82 nm  f=0.0054  <S**2>=0.000
      95 -> 97         0.70414

 Alpha  occ. eigenvalues --  -88.89618 -19.10960 -14.37614 -14.35569 -14.34209
 Alpha  occ. eigenvalues --  -14.33449 -10.28473 -10.28165 -10.27227 -10.26439
 Alpha  occ. eigenvalues --  -10.23745 -10.22643 -10.22414 -10.21999 -10.21185
 Alpha  occ. eigenvalues --  -10.20446 -10.19895 -10.19836 -10.19331 -10.18118
 Alpha  occ. eigenvalues --  -10.17893 -10.17705 -10.17454 -10.17357 -10.16851
 Alpha  occ. eigenvalues --   -7.95733  -5.92249  -5.91829  -5.91241  -1.02685
 Alpha  occ. eigenvalues --   -1.00329  -0.96328  -0.92617  -0.89160  -0.83752
 Alpha  occ. eigenvalues --   -0.83165  -0.81016  -0.79055  -0.77481  -0.75329
 Alpha  occ. eigenvalues --   -0.73165  -0.71336  -0.70685  -0.68588  -0.66951
 Alpha  occ. eigenvalues --   -0.65089  -0.63493  -0.61204  -0.60146  -0.58788
 Alpha  occ. eigenvalues --   -0.55561  -0.55149  -0.54122  -0.53464  -0.52275
 Alpha  occ. eigenvalues --   -0.50949  -0.48408  -0.47591  -0.47139  -0.46775
 Alpha  occ. eigenvalues --   -0.45677  -0.45009  -0.44474  -0.44267  -0.43486
 Alpha  occ. eigenvalues --   -0.42643  -0.42523  -0.41994  -0.40972  -0.40889
 Alpha  occ. eigenvalues --   -0.40765  -0.40579  -0.40477  -0.39597  -0.39021
 Alpha  occ. eigenvalues --   -0.38117  -0.37292  -0.36908  -0.35535  -0.34967
 Alpha  occ. eigenvalues --   -0.34385  -0.34152  -0.33397  -0.33093  -0.32881
 Alpha  occ. eigenvalues --   -0.32798  -0.31021  -0.30621  -0.28571  -0.26679
 Alpha  occ. eigenvalues --   -0.25316  -0.23695  -0.23514  -0.22250  -0.19992
 Alpha virt. eigenvalues --   -0.03100  -0.01912  -0.00745   0.01231   0.02872
 Alpha virt. eigenvalues --    0.04925   0.06127   0.08566   0.09356   0.09996
 Alpha virt. eigenvalues --    0.10095   0.11308   0.11762   0.12036   0.12747

 Mulliken charges:
               1
     1  C   -0.529886
     2  C    0.184832
     3  C   -0.187248
     4  C   -0.197511
     5  C    0.352083
     6  N   -0.731257
     7  C    0.598500
     8  O   -0.496123
     9  C   -0.535883
    10  S    0.166970
    11  C    0.125720
    12  C   -0.221909
    13  C    0.548124
    14  N   -0.488659
    15  C   -0.146327
    16  C   -0.283546
    17  C   -0.264389
    18  C   -0.112593
    19  C   -0.452164
    20  C   -0.116691
    21  N   -0.495917
    22  C    0.191236
    23  N   -0.496138
    24  C   -0.160947
    25  C   -0.198534
    26  H    0.151826
    27  H    0.161353
    28  H    0.155165
    29  H    0.117371
    30  H    0.124200
    31  H    0.386393
    32  H    0.209907
    33  H    0.211284
    34  H    0.155624
    35  H    0.147869
    36  H    0.197601
    37  H    0.147319
    38  H    0.150829
    39  H    0.143014
    40  H    0.139703
    41  H    0.142789
    42  H    0.149444
    43  H    0.147344
    44  H    0.153398
    45  H    0.155682
    46  H    0.146515
    47  H    0.152200
    48  H    0.180337
    49  H    0.121091
 Sum of Mulliken charges =  -0.00000

 Dipole moment (field-independent basis, Debye):
    X=             -6.9102    Y=             -2.9077    Z=             -1.2998  Tot=              7.6089
 Quadrupole moment (field-independent basis, Debye-Ang):
   XX=           -143.6970   YY=           -158.2346   ZZ=           -156.6903
   XY=             -9.7764   XZ=             -8.4852   YZ=             -4.4904

 Normal termination of Gaussian 16 at Sat Nov  5 11:50:07 2022.
