 Gaussian 16, Revision B.01,
 Gaussian 16:  ES64L-G16RevB.01 20-Dec-2017

 -------------------------------------------------------------------
 #p b3lyp/6-31g(d) 6D 10F nosymm GFInput td=(50-50,nstate=2) SCF=XQC
 -------------------------------------------------------------------

 ------------------------------
 Gaussian input prepared by ASE
 ------------------------------
 Symbolic Z-matrix:
 Charge =  0 Multiplicity = 1

                          Input orientation:
 ---------------------------------------------------------------------
 Center     Atomic      Atomic             Coordinates (Angstroms)
 Number     Number       Type             X           Y           Z
 ---------------------------------------------------------------------
      1          7           0        4.453295    0.076329    3.346234
      2          6           0        4.546653    0.183541    1.979194
      3          7           0        5.722962    0.627418    1.497379
      4          6           0        5.747519    0.776707    0.167122
      5          6           0        4.682224    0.502303   -0.674139
      6          6           0        3.501897    0.016482   -0.055068
      7          7           0        2.386349   -0.315889   -0.776504
      8          6           0        2.383028   -0.195625   -2.235751
      9          6           0        1.122938   -0.833422   -2.822603
     10          6           0       -0.167784   -0.211420   -2.256745
     11          6           0       -0.052253    0.102691   -0.737832
     12          6           0       -1.353110   -0.177938    0.032425
     13          6           0       -2.542785    0.700109   -0.408885
     14          6           0       -3.804362    0.414539    0.378553
     15          6           0       -4.725427   -0.545517   -0.061709
     16          6           0       -5.870304   -0.837384    0.681006
     17          6           0       -6.114753   -0.169708    1.882283
     18          6           0       -5.206900    0.790670    2.332358
     19          6           0       -4.063748    1.078096    1.585569
     20          6           0        1.125534   -0.664412   -0.114072
     21          7           0        3.449442   -0.139263    1.281330
     22          1           0        3.715230   -0.517585    3.695527
     23          1           0        5.333961    0.047232    3.839730
     24          1           0        6.685504    1.142769   -0.250145
     25          1           0        4.764828    0.661953   -1.740414
     26          1           0        2.442994    0.863365   -2.537320
     27          1           0        3.270803   -0.694168   -2.644813
     28          1           0        1.144707   -1.909244   -2.609771
     29          1           0        1.151742   -0.733665   -3.913597
     30          1           0       -1.000073   -0.904475   -2.436898
     31          1           0       -0.408502    0.705941   -2.807530
     32          1           0        0.182869    1.170820   -0.622673
     33          1           0       -1.625731   -1.237244   -0.081964
     34          1           0       -1.181665   -0.019912    1.105853
     35          1           0       -2.736767    0.545612   -1.477612
     36          1           0       -2.264582    1.756103   -0.291316
     37          1           0       -4.544903   -1.066629   -0.999961
     38          1           0       -6.573694   -1.582871    0.318714
     39          1           0       -7.007432   -0.392596    2.460617
     40          1           0       -5.390824    1.320451    3.263595
     41          1           0       -3.363769    1.831873    1.940721
     42          1           0        1.238306   -0.416519    0.940999
     43          1           0        0.946581   -1.749513   -0.171883
 ---------------------------------------------------------------------

 SCF Done:  E(RB3LYP) =  -880.090971132     A.U. after   14 cycles

 Excitation energies and oscillator strengths:

 Excited state symmetry could not be determined.
 Excited State   1:      Triplet-?Sym    3.7514 eV  330.50 nm  f=0.0000  <S**2>=2.000
      72 -> 78        -0.47289
      73 -> 77        -0.23788
      73 -> 79        -0.45660
 This state for optimization and/or second-order correction.
 Total Energy, E(TD-HF/TD-DFT) =  -879.953109350
 Copying the excited state density for this state as the 1-particle RhoCI density.

 Excited state symmetry could not be determined.
 Excited State   2:      Triplet-?Sym    3.7713 eV  328.76 nm  f=0.0000  <S**2>=2.000
      76 -> 77         0.62335
      76 -> 79        -0.30212

 Excited state symmetry could not be determined.
 Excited State   3:      Singlet-?Sym    4.7797 eV  259.40 nm  f=0.1387  <S**2>=0.000
      75 -> 80         0.17660
      76 -> 77         0.61500
      76 -> 79        -0.25148
      76 -> 80        -0.10300

 Excited state symmetry could not be determined.
 Excited State   4:      Singlet-?Sym    4.9727 eV  249.33 nm  f=0.0032  <S**2>=0.000
      74 -> 77         0.63121
      74 -> 79        -0.30142

 Alpha  occ. eigenvalues --  -14.35328 -14.33242 -14.30350 -14.29901 -10.26929
 Alpha  occ. eigenvalues --  -10.25605 -10.22400 -10.21419 -10.20953 -10.19462
 Alpha  occ. eigenvalues --  -10.19321 -10.19280 -10.18906 -10.18889 -10.18748
 Alpha  occ. eigenvalues --  -10.18727 -10.18637 -10.18583 -10.18546 -10.18509
 Alpha  occ. eigenvalues --  -10.17037  -0.98454  -0.94794  -0.87933  -0.85982
 Alpha  occ. eigenvalues --   -0.85237  -0.81595  -0.78379  -0.76483  -0.74729
 Alpha  occ. eigenvalues --   -0.73998  -0.71196  -0.67849  -0.65517  -0.62694
 Alpha  occ. eigenvalues --   -0.61795  -0.60154  -0.59435  -0.57404  -0.54600
 Alpha  occ. eigenvalues --   -0.53345  -0.52738  -0.50806  -0.49943  -0.47419
 Alpha  occ. eigenvalues --   -0.47008  -0.46304  -0.45733  -0.45086  -0.44183
 Alpha  occ. eigenvalues --   -0.43275  -0.43030  -0.41737  -0.41632  -0.40832
 Alpha  occ. eigenvalues --   -0.40687  -0.39693  -0.39360  -0.38566  -0.37690
 Alpha  occ. eigenvalues --   -0.36310  -0.35594  -0.35016  -0.34025  -0.33624
 Alpha  occ. eigenvalues --   -0.33259  -0.31788  -0.31666  -0.31280  -0.29789
 Alpha  occ. eigenvalues --   -0.28747  -0.24648  -0.23876  -0.23127  -0.22458
 Alpha  occ. eigenvalues --   -0.19857
 Alpha virt. eigenvalues --    0.00059   0.00234   0.00316   0.02800   0.07175
 Alpha virt. eigenvalues --    0.09164   0.09762   0.10353   0.11030   0.11678
 Alpha virt. eigenvalues --    0.12471   0.13371   0.14128   0.14522   0.15156

 Mulliken charges:
               1
     1  N   -0.756877
     2  C    0.611291
     3  N   -0.487036
     4  C    0.050081
     5  C   -0.223387
     6  C    0.558869
     7  N   -0.498559
     8  C   -0.118735
     9  C   -0.297187
    10  C   -0.273731
    11  C   -0.087166
    12  C   -0.262017
    13  C   -0.357053
    14  C    0.173605
    15  C   -0.180903
    16  C   -0.127892
    17  C   -0.131522
    18  C   -0.128093
    19  C   -0.180113
    20  C   -0.139543
    21  N   -0.578534
    22  H    0.329127
    23  H    0.334123
    24  H    0.132788
    25  H    0.125995
    26  H    0.142681
    27  H    0.151990
    28  H    0.150863
    29  H    0.144900
    30  H    0.136988
    31  H    0.141083
    32  H    0.133386
    33  H    0.134792
    34  H    0.140283
    35  H    0.145569
    36  H    0.141487
    37  H    0.119273
    38  H    0.127481
    39  H    0.127484
    40  H    0.128421
    41  H    0.122970
    42  H    0.187807
    43  H    0.135013
 Sum of Mulliken charges =  -0.00000

 Dipole moment (field-independent basis, Debye):
    X=             -1.9749    Y=             -1.2106    Z=             -1.7155  Tot=              2.8825
 Quadrupole moment (field-independent basis, Debye-Ang):
   XX=           -136.7492   YY=           -125.2075   ZZ=           -111.8342
   XY=             -2.3359   XZ=             -6.3824   YZ=             -2.0730

 Normal termination of Gaussian 16 at Sat Nov  5 11:47:40 2022.
