 Gaussian 16, Revision B.01,
 Gaussian 16:  ES64L-G16RevB.01 20-Dec-2017

 -----------------------------
 #p b3lyp/6-31g(d) opt SCF=XQC
 -----------------------------

 ------------------------------
 Gaussian input prepared by ASE
 ------------------------------
 Symbolic Z-matrix:
 Charge =  0 Multiplicity = 1

 SCF Done:  E(RB3LYP) =  -880.085802327     A.U. after   14 cycles
 SCF Done:  E(RB3LYP) =  -880.090346480     A.U. after   12 cycles
 SCF Done:  E(RB3LYP) =  -880.090798054     A.U. after   11 cycles
 SCF Done:  E(RB3LYP) =  -880.090912819     A.U. after   10 cycles
 SCF Done:  E(RB3LYP) =  -880.090939405     A.U. after    9 cycles
 SCF Done:  E(RB3LYP) =  -880.090955733     A.U. after   10 cycles
 SCF Done:  E(RB3LYP) =  -880.090964343     A.U. after    9 cycles
 SCF Done:  E(RB3LYP) =  -880.090965757     A.U. after    8 cycles
 SCF Done:  E(RB3LYP) =  -880.090966045     A.U. after    7 cycles
 SCF Done:  E(RB3LYP) =  -880.090966292     A.U. after    7 cycles
 SCF Done:  E(RB3LYP) =  -880.090966387     A.U. after    7 cycles
 SCF Done:  E(RB3LYP) =  -880.090966433     A.U. after    7 cycles
 Optimization completed.
    -- Stationary point found.

                         Standard orientation:
 ---------------------------------------------------------------------
 Center     Atomic      Atomic             Coordinates (Angstroms)
 Number     Number       Type             X           Y           Z
 ---------------------------------------------------------------------
      1          7           0        4.058842   -3.255127   -0.518538
      2          6           0        4.203659   -1.923136   -0.212210
      3          7           0        5.403684   -1.552537    0.273045
      4          6           0        5.479087   -0.260838    0.616992
      5          6           0        4.440914    0.647255    0.492747
      6          6           0        3.231202    0.147373   -0.054208
      7          7           0        2.137525    0.947348   -0.252437
      8          6           0        2.189308    2.371784    0.082491
      9          6           0        0.941421    3.089013   -0.434585
     10          6           0       -0.358971    2.480775    0.124050
     11          6           0       -0.293872    0.929026    0.207407
     12          6           0       -1.626252    0.253283   -0.156479
     13          6           0       -2.784882    0.598985    0.802226
     14          6           0       -4.078719   -0.094326    0.430079
     15          6           0       -4.998337    0.514510   -0.434513
     16          6           0       -6.174036   -0.137595   -0.808742
     17          6           0       -6.451412   -1.415849   -0.321157
     18          6           0       -5.545347   -2.033987    0.542581
     19          6           0       -4.371294   -1.377138    0.913058
     20          6           0        0.848000    0.386915   -0.668347
     21          7           0        3.127597   -1.148497   -0.404856
     22          1           0        3.299148   -3.487208   -1.141823
     23          1           0        4.920360   -3.768188   -0.639005
     24          1           0        6.437381    0.065559    1.020807
     25          1           0        4.564863    1.674561    0.806643
     26          1           0        2.277126    2.510403    1.172937
     27          1           0        3.083329    2.820276   -0.368733
     28          1           0        0.938239    3.037844   -1.530274
     29          1           0        1.011557    4.151465   -0.175110
     30          1           0       -1.195100    2.789863   -0.516915
     31          1           0       -0.564778    2.896875    1.117712
     32          1           0       -0.046080    0.648529    1.241509
     33          1           0       -1.911402    0.532970   -1.181174
     34          1           0       -1.491542   -0.836867   -0.162713
     35          1           0       -2.942228    1.684723    0.811731
     36          1           0       -2.494324    0.316459    1.823057
     37          1           0       -4.792081    1.513180   -0.814749
     38          1           0       -6.875568    0.354959   -1.477328
     39          1           0       -7.368021   -1.924239   -0.608202
     40          1           0       -5.754606   -3.026898    0.932500
     41          1           0       -3.672778   -1.863752    1.590971
     42          1           0        0.926189   -0.696475   -0.581764
     43          1           0        0.653971    0.611364   -1.728906
 ---------------------------------------------------------------------

 The electronic state is 1-A.
 Alpha  occ. eigenvalues --  -14.35328 -14.33242 -14.30350 -14.29901 -10.26929
 Alpha  occ. eigenvalues --  -10.25605 -10.22400 -10.21419 -10.20953 -10.19462
 Alpha  occ. eigenvalues --  -10.19321 -10.19280 -10.18906 -10.18889 -10.18748
 Alpha  occ. eigenvalues --  -10.18727 -10.18637 -10.18583 -10.18546 -10.18509
 Alpha  occ. eigenvalues --  -10.17037  -0.98454  -0.94794  -0.87933  -0.85982
 Alpha  occ. eigenvalues --   -0.85237  -0.81595  -0.78379  -0.76483  -0.74729
 Alpha  occ. eigenvalues --   -0.73998  -0.71195  -0.67849  -0.65517  -0.62694
 Alpha  occ. eigenvalues --   -0.61795  -0.60154  -0.59435  -0.57404  -0.54600
 Alpha  occ. eigenvalues --   -0.53345  -0.52738  -0.50806  -0.49943  -0.47419
 Alpha  occ. eigenvalues --   -0.47008  -0.46304  -0.45733  -0.45086  -0.44183
 Alpha  occ. eigenvalues --   -0.43275  -0.43030  -0.41737  -0.41632  -0.40832
 Alpha  occ. eigenvalues --   -0.40687  -0.39693  -0.39360  -0.38566  -0.37690
 Alpha  occ. eigenvalues --   -0.36310  -0.35594  -0.35016  -0.34025  -0.33624
 Alpha  occ. eigenvalues --   -0.33259  -0.31788  -0.31666  -0.31280  -0.29789
 Alpha  occ. eigenvalues --   -0.28747  -0.24648  -0.23876  -0.23127  -0.22458
 Alpha  occ. eigenvalues --   -0.19857
 Alpha virt. eigenvalues --    0.00059   0.00234   0.00316   0.02800   0.07175
 Alpha virt. eigenvalues --    0.09163   0.09762   0.10353   0.11030   0.11678
 Alpha virt. eigenvalues --    0.12471   0.13371   0.14128   0.14522   0.15156

 Mulliken charges:
               1
     1  N   -0.756875
     2  C    0.611260
     3  N   -0.487019
     4  C    0.050069
     5  C   -0.223371
     6  C    0.558902
     7  N   -0.498581
     8  C   -0.118746
     9  C   -0.297170
    10  C   -0.273747
    11  C   -0.087139
    12  C   -0.262032
    13  C   -0.357032
    14  C    0.173602
    15  C   -0.180888
    16  C   -0.127917
    17  C   -0.131506
    18  C   -0.128090
    19  C   -0.180130
    20  C   -0.139548
    21  N   -0.578535
    22  H    0.329125
    23  H    0.334122
    24  H    0.132788
    25  H    0.125994
    26  H    0.142681
    27  H    0.151990
    28  H    0.150862
    29  H    0.144899
    30  H    0.136987
    31  H    0.141084
    32  H    0.133380
    33  H    0.134794
    34  H    0.140284
    35  H    0.145566
    36  H    0.141484
    37  H    0.119271
    38  H    0.127484
    39  H    0.127483
    40  H    0.128421
    41  H    0.122972
    42  H    0.187808
    43  H    0.135013
 Sum of Mulliken charges =  -0.00000

 Dipole moment (field-independent basis, Debye):
    X=             -1.9301    Y=              1.9419    Z=             -0.9013  Tot=              2.8825
 Quadrupole moment (field-independent basis, Debye-Ang):
   XX=           -135.2773   YY=           -112.3867   ZZ=           -124.2473
   XY=              6.5984   XZ=             -0.7200   YZ=              3.6318

 Normal termination of Gaussian 16 at Fri Nov  4 19:16:34 2022.
