 Gaussian 16, Revision B.01,
 Gaussian 16:  ES64L-G16RevB.01 20-Dec-2017

 -------------------------------------------------------------------
 #p b3lyp/6-31g(d) 6D 10F nosymm GFInput td=(50-50,nstate=2) SCF=XQC
 -------------------------------------------------------------------

 ------------------------------
 Gaussian input prepared by ASE
 ------------------------------
 Symbolic Z-matrix:
 Charge =  0 Multiplicity = 1

                          Input orientation:
 ---------------------------------------------------------------------
 Center     Atomic      Atomic             Coordinates (Angstroms)
 Number     Number       Type             X           Y           Z
 ---------------------------------------------------------------------
      1          6           0      -11.658870   -2.115522    2.560671
      2          6           0      -11.078649   -2.083518    1.291229
      3          6           0       -9.699909   -1.931580    1.152915
      4          6           0       -8.869937   -1.806519    2.280275
      5          6           0       -7.401493   -1.641337    2.135366
      6          6           0       -6.509694   -2.267296    3.034166
      7          6           0       -5.145171   -2.109486    2.894487
      8          6           0       -4.608011   -1.323713    1.855868
      9          6           0       -5.480402   -0.682392    0.937848
     10          6           0       -6.866981   -0.861971    1.109576
     11          6           0       -4.921729    0.143751   -0.143199
     12          6           0       -5.738241    0.802488   -1.083713
     13          6           0       -5.216679    1.580654   -2.116760
     14          6           0       -6.113218    2.259944   -3.086168
     15          6           0       -7.325661    2.836520   -2.670493
     16          6           0       -8.167168    3.471352   -3.582657
     17          6           0       -7.814374    3.545277   -4.931438
     18          6           0       -6.612027    2.979136   -5.359126
     19          6           0       -5.770744    2.344488   -4.446592
     20          6           0       -3.813605    1.702511   -2.219079
     21          6           0       -2.986049    1.067874   -1.313929
     22          6           0       -3.514894    0.286903   -0.268418
     23          6           0       -2.627153   -0.375585    0.679778
     24          7           0       -1.296353   -0.228783    0.541008
     25          6           0       -0.490937   -0.844510    1.409455
     26          6           0        0.970751   -0.676760    1.246297
     27          6           0        1.477832    0.410665    0.515333
     28          6           0        2.846128    0.591792    0.359133
     29          6           0        3.771832   -0.309102    0.916702
     30          6           0        5.232447   -0.115847    0.745438
     31          6           0        6.124089   -0.429812    1.792859
     32          6           0        7.503031   -0.263620    1.672657
     33          6           0        8.000361    0.229582    0.471150
     34          6           0        7.122784    0.561848   -0.620492
     35          6           0        5.751085    0.382763   -0.462118
     36          6           0        7.957830    1.041465   -1.730379
     37          6           0        7.899335    1.522233   -3.046724
     38          6           0        9.107099    1.863272   -3.692129
     39          6           0       10.383459    1.752966   -3.099551
     40          6           0       10.471400    1.275047   -1.783894
     41          6           0       11.427733    0.959413   -0.714258
     42          6           0       12.817090    1.037700   -0.610162
     43          6           0       13.439939    0.649886    0.577696
     44          6           0       12.688242    0.183885    1.664634
     45          6           0       11.295773    0.091317    1.598442
     46          6           0       10.675502    0.477628    0.415052
     47          7           0        9.315332    0.494484    0.061790
     48          6           0        9.244135    0.963247   -1.220521
     49          6           0        3.260434   -1.401910    1.637347
     50          6           0        1.890857   -1.582216    1.800761
     51          6           0       -1.051368   -1.610274    2.462257
     52          7           0       -2.354342   -1.770550    2.613830
     53          6           0       -3.168687   -1.164741    1.722190
     54          6           0       -9.468509   -1.842949    3.551391
     55          6           0      -10.847225   -1.994891    3.690171
     56          1           0      -12.733480   -2.234999    2.668756
     57          1           0      -11.699499   -2.187208    0.405170
     58          1           0       -9.255622   -1.937764    0.161432
     59          1           0       -6.901446   -2.899408    3.825690
     60          1           0       -4.455760   -2.594147    3.576621
     61          1           0       -7.559152   -0.359446    0.444509
     62          1           0       -6.814302    0.686746   -1.032947
     63          1           0       -7.595840    2.810382   -1.618453
     64          1           0       -9.095772    3.917752   -3.236668
     65          1           0       -8.469743    4.040895   -5.642488
     66          1           0       -6.330793    3.024379   -6.408007
     67          1           0       -4.849780    1.885275   -4.794987
     68          1           0       -3.384203    2.321626   -3.001289
     69          1           0       -1.908581    1.162711   -1.385668
     70          1           0        0.779124    1.120400    0.085983
     71          1           0        3.208011    1.463092   -0.179556
     72          1           0        5.722280   -0.787507    2.736051
     73          1           0        8.162039   -0.504816    2.500519
     74          1           0        5.079197    0.603599   -1.286479
     75          1           0        6.958938    1.637532   -3.578303
     76          1           0        9.050909    2.234380   -4.711816
     77          1           0       11.262888    2.037740   -3.670323
     78          1           0       13.408365    1.397812   -1.447733
     79          1           0       14.521234    0.709998    0.660960
     80          1           0       13.194627   -0.112332    2.579001
     81          1           0       10.720463   -0.270537    2.444636
     82          1           0        3.944306   -2.140476    2.045709
     83          1           0        1.540447   -2.460194    2.335114
     84          1           0       -0.416599   -2.081352    3.208888
     85          1           0       -8.849796   -1.724444    4.436573
     86          1           0      -11.288875   -2.011222    4.683136
 ---------------------------------------------------------------------

 SCF Done:  E(RB3LYP) =  -2164.55752902     A.U. after   15 cycles

 Excitation energies and oscillator strengths:

 Excited state symmetry could not be determined.
 Excited State   1:      Triplet-?Sym    2.4771 eV  500.52 nm  f=0.0000  <S**2>=2.000
     176 ->183        -0.10878
     180 ->183         0.11100
     181 ->183        -0.27227
     181 ->184        -0.15967
     182 ->183         0.49015
     182 ->184         0.18145
 This state for optimization and/or second-order correction.
 Total Energy, E(TD-HF/TD-DFT) =  -2164.46649691
 Copying the excited state density for this state as the 1-particle RhoCI density.

 Excited state symmetry could not be determined.
 Excited State   2:      Triplet-?Sym    2.7677 eV  447.96 nm  f=0.0000  <S**2>=2.000
     177 ->184        -0.10155
     177 ->186         0.14642
     178 ->183        -0.12295
     180 ->183        -0.14307
     180 ->184         0.20550
     181 ->183        -0.17583
     181 ->184         0.35463
     182 ->183         0.26747
     182 ->184        -0.24044

 Excited state symmetry could not be determined.
 Excited State   3:      Singlet-?Sym    3.1404 eV  394.81 nm  f=1.2274  <S**2>=0.000
     181 ->183        -0.13418
     182 ->183         0.68354

 Excited state symmetry could not be determined.
 Excited State   4:      Singlet-?Sym    3.4607 eV  358.26 nm  f=0.0400  <S**2>=0.000
     178 ->183         0.12986
     180 ->183         0.17025
     181 ->183         0.50063
     182 ->183         0.11312
     182 ->184         0.32986
     182 ->185        -0.16853

 Alpha  occ. eigenvalues --  -14.39233 -14.34425 -14.34105 -10.24182 -10.24072
 Alpha  occ. eigenvalues --  -10.23896 -10.23445 -10.23199 -10.23001 -10.20827
 Alpha  occ. eigenvalues --  -10.20783 -10.20714 -10.20700 -10.20549 -10.20433
 Alpha  occ. eigenvalues --  -10.20374 -10.20309 -10.20219 -10.20188 -10.20123
 Alpha  occ. eigenvalues --  -10.20119 -10.20086 -10.20083 -10.20082 -10.20076
 Alpha  occ. eigenvalues --  -10.20046 -10.19934 -10.19805 -10.19790 -10.19774
 Alpha  occ. eigenvalues --  -10.19762 -10.19693 -10.19687 -10.19635 -10.19332
 Alpha  occ. eigenvalues --  -10.19240 -10.19235 -10.19221 -10.19216 -10.19201
 Alpha  occ. eigenvalues --  -10.19197 -10.19192 -10.19178 -10.19158 -10.19141
 Alpha  occ. eigenvalues --  -10.19135 -10.19128 -10.19114 -10.19091 -10.19089
 Alpha  occ. eigenvalues --  -10.19083 -10.19079 -10.19076 -10.18940 -10.18844
 Alpha  occ. eigenvalues --   -1.01671  -0.98087  -0.90998  -0.88334  -0.88085
 Alpha  occ. eigenvalues --   -0.86631  -0.86431  -0.85614  -0.85282  -0.84435
 Alpha  occ. eigenvalues --   -0.84166  -0.81540  -0.80602  -0.78656  -0.77836
 Alpha  occ. eigenvalues --   -0.77393  -0.77000  -0.76101  -0.75027  -0.74892
 Alpha  occ. eigenvalues --   -0.74662  -0.74534  -0.72984  -0.72811  -0.72540
 Alpha  occ. eigenvalues --   -0.72522  -0.72317  -0.70674  -0.67089  -0.66414
 Alpha  occ. eigenvalues --   -0.65277  -0.63926  -0.63113  -0.62430  -0.61870
 Alpha  occ. eigenvalues --   -0.61400  -0.61078  -0.60415  -0.60034  -0.59418
 Alpha  occ. eigenvalues --   -0.58943  -0.58305  -0.57998  -0.57725  -0.56673
 Alpha  occ. eigenvalues --   -0.55701  -0.54169  -0.53488  -0.52958  -0.52354
 Alpha  occ. eigenvalues --   -0.51664  -0.51628  -0.51541  -0.50724  -0.49534
 Alpha  occ. eigenvalues --   -0.48452  -0.47644  -0.47334  -0.46680  -0.46600
 Alpha  occ. eigenvalues --   -0.46110  -0.45896  -0.45795  -0.45427  -0.45282
 Alpha  occ. eigenvalues --   -0.44922  -0.44489  -0.44233  -0.43886  -0.43820
 Alpha  occ. eigenvalues --   -0.43734  -0.43321  -0.43197  -0.42905  -0.42644
 Alpha  occ. eigenvalues --   -0.42423  -0.42283  -0.42179  -0.42136  -0.41940
 Alpha  occ. eigenvalues --   -0.41825  -0.41769  -0.40828  -0.39290  -0.39058
 Alpha  occ. eigenvalues --   -0.38327  -0.37862  -0.37759  -0.37479  -0.37240
 Alpha  occ. eigenvalues --   -0.37108  -0.36736  -0.36367  -0.35969  -0.35830
 Alpha  occ. eigenvalues --   -0.35712  -0.35449  -0.35383  -0.35177  -0.34708
 Alpha  occ. eigenvalues --   -0.34281  -0.34184  -0.34126  -0.33928  -0.33630
 Alpha  occ. eigenvalues --   -0.33386  -0.32903  -0.32723  -0.31088  -0.30060
 Alpha  occ. eigenvalues --   -0.29839  -0.28775  -0.27552  -0.27313  -0.26933
 Alpha  occ. eigenvalues --   -0.25733  -0.25455  -0.25195  -0.25150  -0.24421
 Alpha  occ. eigenvalues --   -0.24153  -0.23283  -0.22334  -0.22287  -0.22100
 Alpha  occ. eigenvalues --   -0.21149  -0.19987
 Alpha virt. eigenvalues --   -0.06974  -0.05577  -0.04951  -0.03442  -0.02921
 Alpha virt. eigenvalues --   -0.01474  -0.00985  -0.00701  -0.00308  -0.00288
 Alpha virt. eigenvalues --   -0.00234   0.00769   0.01825   0.03104   0.03567

 Mulliken charges:
               1
     1  C   -0.125887
     2  C   -0.134864
     3  C   -0.171669
     4  C    0.082015
     5  C    0.111126
     6  C   -0.180668
     7  C   -0.188577
     8  C    0.085717
     9  C    0.070452
    10  C   -0.278163
    11  C    0.077491
    12  C   -0.280605
    13  C    0.112888
    14  C    0.081738
    15  C   -0.171571
    16  C   -0.134839
    17  C   -0.125811
    18  C   -0.133997
    19  C   -0.172939
    20  C   -0.182653
    21  C   -0.186642
    22  C    0.072914
    23  C    0.261319
    24  N   -0.583099
    25  C    0.251641
    26  C    0.097451
    27  C   -0.165571
    28  C   -0.181491
    29  C    0.099596
    30  C    0.087107
    31  C   -0.194729
    32  C   -0.170155
    33  C    0.362419
    34  C    0.006508
    35  C   -0.260942
    36  C    0.189214
    37  C   -0.247280
    38  C   -0.130172
    39  C   -0.247228
    40  C    0.188893
    41  C    0.002468
    42  C   -0.201502
    43  C   -0.141399
    44  C   -0.141603
    45  C   -0.169092
    46  C    0.353954
    47  N   -0.769636
    48  C    0.146741
    49  C   -0.188420
    50  C   -0.183495
    51  C    0.004928
    52  N   -0.491704
    53  C    0.224303
    54  C   -0.173018
    55  C   -0.133985
    56  H    0.130916
    57  H    0.132069
    58  H    0.134284
    59  H    0.135350
    60  H    0.161892
    61  H    0.142017
    62  H    0.142254
    63  H    0.134542
    64  H    0.132303
    65  H    0.131095
    66  H    0.132022
    67  H    0.134643
    68  H    0.134889
    69  H    0.161153
    70  H    0.155521
    71  H    0.135050
    72  H    0.135531
    73  H    0.143544
    74  H    0.140713
    75  H    0.135590
    76  H    0.127274
    77  H    0.135169
    78  H    0.135942
    79  H    0.129975
    80  H    0.132398
    81  H    0.141146
    82  H    0.134486
    83  H    0.135638
    84  H    0.148493
    85  H    0.134686
    86  H    0.131938
 Sum of Mulliken charges =  -0.00000

 Dipole moment (field-independent basis, Debye):
    X=              0.4461    Y=              0.3365    Z=             -0.2333  Tot=              0.6055
 Quadrupole moment (field-independent basis, Debye-Ang):
   XX=           -252.0578   YY=           -313.3187   ZZ=           -285.9291
   XY=             -3.5269   XZ=              7.5439   YZ=            -15.7175

 Normal termination of Gaussian 16 at Sat Nov  5 11:03:51 2022.
