 Gaussian 16, Revision B.01,
 Gaussian 16:  ES64L-G16RevB.01 20-Dec-2017

 -----------------------------
 #p b3lyp/6-31g(d) opt SCF=XQC
 -----------------------------

 ------------------------------
 Gaussian input prepared by ASE
 ------------------------------
 Symbolic Z-matrix:
 Charge =  0 Multiplicity = 1

 SCF Done:  E(RB3LYP) =  -2164.54748957     A.U. after   15 cycles
 SCF Done:  E(RB3LYP) =  -2164.55715504     A.U. after   12 cycles
 SCF Done:  E(RB3LYP) =  -2164.55747651     A.U. after   11 cycles
 SCF Done:  E(RB3LYP) =  -2164.55752503     A.U. after   10 cycles
 SCF Done:  E(RB3LYP) =  -2164.55753146     A.U. after    9 cycles
 SCF Done:  E(RB3LYP) =  -2164.55753281     A.U. after    8 cycles
 SCF Done:  E(RB3LYP) =  -2164.55753322     A.U. after    7 cycles
 SCF Done:  E(RB3LYP) =  -2164.55753337     A.U. after    7 cycles
 SCF Done:  E(RB3LYP) =  -2164.55753340     A.U. after    6 cycles
 Optimization completed.
    -- Stationary point found.

                         Standard orientation:
 ---------------------------------------------------------------------
 Center     Atomic      Atomic             Coordinates (Angstroms)
 Number     Number       Type             X           Y           Z
 ---------------------------------------------------------------------
      1          6           0      -12.052908   -2.605558   -0.198304
      2          6           0      -11.426192   -1.560762   -0.880059
      3          6           0      -10.037193   -1.444446   -0.863021
      4          6           0       -9.243110   -2.368856   -0.162784
      5          6           0       -7.763646   -2.245154   -0.140512
      6          6           0       -6.939771   -3.391103   -0.195342
      7          6           0       -5.564596   -3.269599   -0.173780
      8          6           0       -4.948881   -2.004779   -0.097399
      9          6           0       -5.751869   -0.835542   -0.040706
     10          6           0       -7.151381   -0.994398   -0.062414
     11          6           0       -5.110988    0.485476    0.045728
     12          6           0       -5.856468    1.679688    0.103301
     13          6           0       -5.256927    2.936632    0.176751
     14          6           0       -6.080119    4.170976    0.237733
     15          6           0       -7.274236    4.209524    0.977896
     16          6           0       -8.046965    5.368488    1.031588
     17          6           0       -7.642084    6.516037    0.347234
     18          6           0       -6.457048    6.493824   -0.390511
     19          6           0       -5.684546    5.334663   -0.443840
     20          6           0       -3.846558    3.005003    0.187683
     21          6           0       -3.087486    1.852844    0.130670
     22          6           0       -3.694897    0.584379    0.061868
     23          6           0       -2.878816   -0.622545    0.003573
     24          7           0       -1.537915   -0.505789    0.017263
     25          6           0       -0.798596   -1.615625   -0.043436
     26          6           0        0.674925   -1.474856   -0.028822
     27          6           0        1.265619   -0.301310    0.468976
     28          6           0        2.646406   -0.153511    0.500927
     29          6           0        3.501766   -1.165774    0.028587
     30          6           0        4.975875   -1.004269    0.060142
     31          6           0        5.810903   -2.104602    0.347691
     32          6           0        7.200210   -1.995686    0.386557
     33          6           0        7.766426   -0.751584    0.130014
     34          6           0        6.948015    0.394872   -0.166745
     35          6           0        5.563862    0.246570   -0.195714
     36          6           0        7.847194    1.534812   -0.393021
     37          6           0        7.862240    2.901324   -0.708841
     38          6           0        9.109113    3.555023   -0.806489
     39          6           0       10.355432    2.923185   -0.606785
     40          6           0       10.369947    1.557047   -0.289693
     41          6           0       11.268637    0.433366    0.006985
     42          6           0       12.655507    0.306149    0.094644
     43          6           0       13.213263   -0.935874    0.403892
     44          6           0       12.398820   -2.054164    0.626930
     45          6           0       11.006706   -1.966249    0.548119
     46          6           0       10.451281   -0.728936    0.239991
     47          7           0        9.107655   -0.343202    0.095009
     48          6           0        9.108150    0.989058   -0.211934
     49          6           0        2.906851   -2.333363   -0.479249
     50          6           0        1.524568   -2.486672   -0.506537
     51          6           0       -1.436976   -2.880025   -0.094733
     52          7           0       -2.751295   -3.016489   -0.113397
     53          6           0       -3.499215   -1.892120   -0.073456
     54          6           0       -9.888436   -3.416371    0.516642
     55          6           0      -11.277429   -3.533080    0.499854
     56          1           0      -13.135581   -2.697026   -0.212313
     57          1           0      -12.019189   -0.839027   -1.435723
     58          1           0       -9.558241   -0.644872   -1.421372
     59          1           0       -7.393208   -4.374188   -0.281845
     60          1           0       -4.927276   -4.145279   -0.223739
     61          1           0       -7.791118   -0.123100    0.011896
     62          1           0       -6.938312    1.638290    0.061118
     63          1           0       -7.583367    3.331315    1.537946
     64          1           0       -8.962277    5.377518    1.617598
     65          1           0       -8.243799    7.419847    0.389703
     66          1           0       -6.135977    7.379138   -0.933119
     67          1           0       -4.777456    5.321124   -1.041699
     68          1           0       -3.356584    3.970976    0.267458
     69          1           0       -2.004597    1.900316    0.143856
     70          1           0        0.621905    0.486051    0.845743
     71          1           0        3.073674    0.750125    0.926594
     72          1           0        5.356619   -3.064500    0.574031
     73          1           0        7.814939   -2.858856    0.620796
     74          1           0        4.935063    1.096490   -0.444757
     75          1           0        6.949239    3.464836   -0.879426
     76          1           0        9.109845    4.613504   -1.051960
     77          1           0       11.268942    3.503367   -0.702503
     78          1           0       13.295163    1.167720   -0.076670
     79          1           0       14.292498   -1.037209    0.472661
     80          1           0       12.855166   -3.010574    0.866233
     81          1           0       10.382576   -2.836934    0.722290
     82          1           0        3.534977   -3.117985   -0.891250
     83          1           0        1.108548   -3.391002   -0.940451
     84          1           0       -0.855793   -3.799007   -0.096695
     85          1           0       -9.296747   -4.129175    1.084279
     86          1           0      -11.755006   -4.346313    1.040106
 ---------------------------------------------------------------------

 The electronic state is 1-A.
 Alpha  occ. eigenvalues --  -14.39233 -14.34425 -14.34105 -10.24182 -10.24072
 Alpha  occ. eigenvalues --  -10.23896 -10.23445 -10.23199 -10.23001 -10.20827
 Alpha  occ. eigenvalues --  -10.20783 -10.20714 -10.20700 -10.20549 -10.20433
 Alpha  occ. eigenvalues --  -10.20374 -10.20309 -10.20219 -10.20188 -10.20123
 Alpha  occ. eigenvalues --  -10.20119 -10.20086 -10.20083 -10.20082 -10.20076
 Alpha  occ. eigenvalues --  -10.20046 -10.19934 -10.19805 -10.19790 -10.19774
 Alpha  occ. eigenvalues --  -10.19762 -10.19693 -10.19687 -10.19635 -10.19332
 Alpha  occ. eigenvalues --  -10.19240 -10.19235 -10.19221 -10.19216 -10.19201
 Alpha  occ. eigenvalues --  -10.19197 -10.19192 -10.19178 -10.19158 -10.19141
 Alpha  occ. eigenvalues --  -10.19135 -10.19128 -10.19114 -10.19091 -10.19089
 Alpha  occ. eigenvalues --  -10.19083 -10.19079 -10.19076 -10.18939 -10.18844
 Alpha  occ. eigenvalues --   -1.01671  -0.98087  -0.90998  -0.88334  -0.88085
 Alpha  occ. eigenvalues --   -0.86631  -0.86431  -0.85614  -0.85282  -0.84435
 Alpha  occ. eigenvalues --   -0.84166  -0.81540  -0.80602  -0.78656  -0.77836
 Alpha  occ. eigenvalues --   -0.77393  -0.77000  -0.76101  -0.75027  -0.74892
 Alpha  occ. eigenvalues --   -0.74662  -0.74534  -0.72984  -0.72811  -0.72540
 Alpha  occ. eigenvalues --   -0.72522  -0.72317  -0.70674  -0.67089  -0.66414
 Alpha  occ. eigenvalues --   -0.65277  -0.63925  -0.63113  -0.62430  -0.61870
 Alpha  occ. eigenvalues --   -0.61400  -0.61078  -0.60415  -0.60034  -0.59418
 Alpha  occ. eigenvalues --   -0.58943  -0.58305  -0.57998  -0.57725  -0.56673
 Alpha  occ. eigenvalues --   -0.55701  -0.54169  -0.53488  -0.52958  -0.52354
 Alpha  occ. eigenvalues --   -0.51664  -0.51628  -0.51541  -0.50724  -0.49534
 Alpha  occ. eigenvalues --   -0.48452  -0.47644  -0.47334  -0.46680  -0.46600
 Alpha  occ. eigenvalues --   -0.46110  -0.45896  -0.45795  -0.45427  -0.45282
 Alpha  occ. eigenvalues --   -0.44922  -0.44489  -0.44233  -0.43886  -0.43820
 Alpha  occ. eigenvalues --   -0.43734  -0.43321  -0.43197  -0.42905  -0.42644
 Alpha  occ. eigenvalues --   -0.42423  -0.42283  -0.42179  -0.42136  -0.41940
 Alpha  occ. eigenvalues --   -0.41825  -0.41769  -0.40828  -0.39290  -0.39058
 Alpha  occ. eigenvalues --   -0.38327  -0.37862  -0.37759  -0.37479  -0.37240
 Alpha  occ. eigenvalues --   -0.37108  -0.36736  -0.36367  -0.35969  -0.35830
 Alpha  occ. eigenvalues --   -0.35712  -0.35449  -0.35383  -0.35177  -0.34708
 Alpha  occ. eigenvalues --   -0.34281  -0.34184  -0.34126  -0.33928  -0.33630
 Alpha  occ. eigenvalues --   -0.33386  -0.32903  -0.32723  -0.31088  -0.30060
 Alpha  occ. eigenvalues --   -0.29839  -0.28775  -0.27552  -0.27313  -0.26933
 Alpha  occ. eigenvalues --   -0.25733  -0.25455  -0.25195  -0.25150  -0.24421
 Alpha  occ. eigenvalues --   -0.24153  -0.23283  -0.22334  -0.22287  -0.22100
 Alpha  occ. eigenvalues --   -0.21149  -0.19987
 Alpha virt. eigenvalues --   -0.06974  -0.05577  -0.04951  -0.03442  -0.02921
 Alpha virt. eigenvalues --   -0.01474  -0.00985  -0.00701  -0.00308  -0.00288
 Alpha virt. eigenvalues --   -0.00234   0.00768   0.01825   0.03104   0.03567

 Mulliken charges:
               1
     1  C   -0.125894
     2  C   -0.134861
     3  C   -0.171658
     4  C    0.082004
     5  C    0.111117
     6  C   -0.180665
     7  C   -0.188574
     8  C    0.085707
     9  C    0.070456
    10  C   -0.278162
    11  C    0.077490
    12  C   -0.280606
    13  C    0.112901
    14  C    0.081729
    15  C   -0.171563
    16  C   -0.134844
    17  C   -0.125811
    18  C   -0.133989
    19  C   -0.172946
    20  C   -0.182659
    21  C   -0.186641
    22  C    0.072916
    23  C    0.261340
    24  N   -0.583090
    25  C    0.251627
    26  C    0.097444
    27  C   -0.165569
    28  C   -0.181492
    29  C    0.099597
    30  C    0.087106
    31  C   -0.194729
    32  C   -0.170160
    33  C    0.362412
    34  C    0.006516
    35  C   -0.260940
    36  C    0.189196
    37  C   -0.247272
    38  C   -0.130180
    39  C   -0.247221
    40  C    0.188877
    41  C    0.002472
    42  C   -0.201506
    43  C   -0.141400
    44  C   -0.141599
    45  C   -0.169092
    46  C    0.353947
    47  N   -0.769621
    48  C    0.146761
    49  C   -0.188422
    50  C   -0.183496
    51  C    0.004933
    52  N   -0.491690
    53  C    0.224276
    54  C   -0.173014
    55  C   -0.133984
    56  H    0.130916
    57  H    0.132069
    58  H    0.134281
    59  H    0.135349
    60  H    0.161893
    61  H    0.142016
    62  H    0.142255
    63  H    0.134541
    64  H    0.132303
    65  H    0.131094
    66  H    0.132022
    67  H    0.134644
    68  H    0.134889
    69  H    0.161152
    70  H    0.155521
    71  H    0.135051
    72  H    0.135531
    73  H    0.143546
    74  H    0.140713
    75  H    0.135590
    76  H    0.127275
    77  H    0.135168
    78  H    0.135943
    79  H    0.129975
    80  H    0.132398
    81  H    0.141145
    82  H    0.134487
    83  H    0.135638
    84  H    0.148493
    85  H    0.134688
    86  H    0.131938
 Sum of Mulliken charges =  -0.00000

 Dipole moment (field-independent basis, Debye):
    X=              0.4716    Y=              0.3519    Z=              0.1429  Tot=              0.6055
 Quadrupole moment (field-independent basis, Debye-Ang):
   XX=           -253.3394   YY=           -278.6345   ZZ=           -319.5702
   XY=            -10.0628   XZ=             -0.9608   YZ=             -6.0177

 1\1\GINC-NODE58\FOpt\RB3LYP\6-31G(d)\C52H31N3\WYKGROUP\05-Nov-2022\0\\
 #p b3lyp/6-31g(d) opt SCF=XQC\\Gaussian input prepared by ASE\\0,1\C,-
 11.6588701804,-2.1155215898,2.5606705688\C,-11.0786489824,-2.083517520
 3,1.2912294456\C,-9.6999092765,-1.931579532,1.1529152421\C,-8.86993688
 ,-1.806518601,2.2802745471\C,-7.4014931013,-1.6413366494,2.135365996\C
 ,-6.5096935373,-2.2672964512,3.0341664224\C,-5.1451714649,-2.109486334
 6,2.8944865267\C,-4.6080114514,-1.3237131168,1.855867899\C,-5.48040205
 16,-0.6823917249,0.9378478835\C,-6.8669813163,-0.8619706793,1.10957619

 Normal termination of Gaussian 16 at Sat Nov  5 01:13:10 2022.
