 Gaussian 16, Revision B.01,
 Gaussian 16:  ES64L-G16RevB.01 20-Dec-2017

 -------------------------------------------------------------------
 #p b3lyp/6-31g(d) 6D 10F nosymm GFInput td=(50-50,nstate=2) SCF=XQC
 -------------------------------------------------------------------

 ------------------------------
 Gaussian input prepared by ASE
 ------------------------------
 Symbolic Z-matrix:
 Charge =  0 Multiplicity = 1

                          Input orientation:
 ---------------------------------------------------------------------
 Center     Atomic      Atomic             Coordinates (Angstroms)
 Number     Number       Type             X           Y           Z
 ---------------------------------------------------------------------
      1          6           0       -8.287752    7.649470   -2.271664
      2          6           0       -7.056570    7.703198   -2.927782
      3          6           0       -6.091586    6.725722   -2.690946
      4          6           0       -6.336047    5.671596   -1.793864
      5          6           0       -5.308892    4.630731   -1.542722
      6          6           0       -3.941473    4.956817   -1.494570
      7          6           0       -2.977259    3.983208   -1.262880
      8          6           0       -3.348112    2.643805   -1.065717
      9          6           0       -2.325730    1.602391   -0.816637
     10          7           0       -2.750551    0.381443   -0.453769
     11          6           0       -1.783825   -0.521271   -0.226077
     12          6           0       -2.191887   -1.891321    0.158980
     13          6           0       -3.529112   -2.175021    0.475831
     14          6           0       -3.911077   -3.459869    0.842956
     15          6           0       -2.976991   -4.509915    0.898210
     16          6           0       -3.388205   -5.881634    1.286583
     17          6           0       -2.544226   -6.696469    2.060808
     18          6           0       -2.930532   -7.984711    2.426732
     19          6           0       -4.169405   -8.488018    2.025418
     20          6           0       -5.018384   -7.690965    1.255256
     21          6           0       -4.632334   -6.402284    0.890594
     22          6           0       -1.640497   -4.218057    0.570485
     23          6           0       -1.252306   -2.933171    0.210000
     24          7           0       -0.470626   -0.270899   -0.328970
     25          6           0       -0.151131    0.976214   -0.702361
     26          7           0        1.195488    1.283520   -0.826221
     27          6           0        1.739440    2.388538   -1.536434
     28          6           0        1.114247    3.383673   -2.292997
     29          6           0        1.921870    4.332438   -2.922120
     30          6           0        3.318627    4.302344   -2.809684
     31          6           0        3.937943    3.302165   -2.066052
     32          6           0        3.148356    2.338989   -1.431864
     33          6           0        3.492654    1.184871   -0.627936
     34          6           0        4.731428    0.702584   -0.202850
     35          6           0        4.722977   -0.438131    0.595375
     36          6           0        3.508567   -1.069088    0.985775
     37          6           0        2.269435   -0.583300    0.554460
     38          6           0        2.277831    0.540385   -0.267307
     39          6           0        3.872117   -2.181302    1.838233
     40          6           0        3.132019   -3.163124    2.507216
     41          6           0        3.803674   -4.129656    3.250366
     42          6           0        5.207181   -4.126495    3.323771
     43          6           0        5.967533   -3.159850    2.668212
     44          6           0        5.287321   -2.183977    1.934858
     45          7           0        5.797633   -1.123827    1.176763
     46          6           0        7.171149   -0.795724    1.021813
     47          6           0        7.970097   -0.562431    2.148625
     48          6           0        9.320376   -0.250417    1.992015
     49          6           0        9.877662   -0.148693    0.715824
     50          6           0        9.078044   -0.371155   -0.407055
     51          6           0        7.731695   -0.703444   -0.258796
     52          7           0       -1.038173    1.947189   -0.962421
     53          6           0       -4.710743    2.310300   -1.104575
     54          6           0       -5.670808    3.286396   -1.342888
     55          6           0       -7.580411    5.630851   -1.141473
     56          6           0       -8.545086    6.608927   -1.377088
     57          1           0       -9.039916    8.411750   -2.455749
     58          1           0       -6.848891    8.503978   -3.632648
     59          1           0       -5.147272    6.762724   -3.226804
     60          1           0       -3.635031    5.992333   -1.611024
     61          1           0       -1.928542    4.253566   -1.208902
     62          1           0       -4.256720   -1.371921    0.443859
     63          1           0       -4.944634   -3.649859    1.117663
     64          1           0       -1.589186   -6.305667    2.400500
     65          1           0       -2.265279   -8.593495    3.033375
     66          1           0       -4.470447   -9.492529    2.310086
     67          1           0       -5.981199   -8.076020    0.929780
     68          1           0       -5.289470   -5.800913    0.268706
     69          1           0       -0.904178   -5.016560    0.568876
     70          1           0       -0.222334   -2.728411   -0.060689
     71          1           0        0.039394    3.417969   -2.385457
     72          1           0        1.448201    5.112832   -3.511593
     73          1           0        3.918405    5.058860   -3.307845
     74          1           0        5.020810    3.263729   -1.982451
     75          1           0        5.653560    1.205746   -0.473484
     76          1           0        1.345837   -1.060033    0.846385
     77          1           0        2.046903   -3.170863    2.443075
     78          1           0        3.240537   -4.895506    3.776117
     79          1           0        5.714325   -4.894486    3.901637
     80          1           0        7.051080   -3.169991    2.722589
     81          1           0        7.525504   -0.616590    3.137461
     82          1           0        9.933982   -0.072580    2.870960
     83          1           0       10.927909    0.102308    0.597120
     84          1           0        9.505205   -0.300321   -1.403660
     85          1           0        7.111870   -0.903229   -1.127350
     86          1           0       -5.000970    1.275812   -0.960005
     87          1           0       -6.717078    3.000742   -1.402385
     88          1           0       -7.781279    4.840774   -0.423378
     89          1           0       -9.496734    6.562306   -0.854201
 ---------------------------------------------------------------------

 SCF Done:  E(RB3LYP) =  -2237.16930818     A.U. after   15 cycles

 Excitation energies and oscillator strengths:

 Excited state symmetry could not be determined.
 Excited State   1:      Triplet-?Sym    2.6488 eV  468.07 nm  f=0.0000  <S**2>=2.000
     185 ->188        -0.11740
     187 ->188         0.68831
 This state for optimization and/or second-order correction.
 Total Energy, E(TD-HF/TD-DFT) =  -2237.07196600
 Copying the excited state density for this state as the 1-particle RhoCI density.

 Excited state symmetry could not be determined.
 Excited State   2:      Singlet-?Sym    2.7298 eV  454.19 nm  f=0.0008  <S**2>=0.000
     187 ->188         0.70103

 Excited state symmetry could not be determined.
 Excited State   3:      Triplet-?Sym    2.7605 eV  449.14 nm  f=0.0000  <S**2>=2.000
     182 ->199         0.11046
     186 ->189         0.20713
     186 ->190        -0.58529
     187 ->190         0.17333
     187 ->200        -0.14340

 Excited state symmetry could not be determined.
 Excited State   4:      Singlet-?Sym    3.0315 eV  408.98 nm  f=0.0001  <S**2>=0.000
     186 ->188         0.70505

 Alpha  occ. eigenvalues --  -14.39480 -14.38016 -14.33531 -14.33511 -14.33134
 Alpha  occ. eigenvalues --  -10.30691 -10.27520 -10.27517 -10.23930 -10.22736
 Alpha  occ. eigenvalues --  -10.22496 -10.22366 -10.22281 -10.20675 -10.20666
 Alpha  occ. eigenvalues --  -10.20237 -10.20232 -10.20115 -10.20109 -10.20033
 Alpha  occ. eigenvalues --  -10.20019 -10.20001 -10.19999 -10.19864 -10.19418
 Alpha  occ. eigenvalues --  -10.19402 -10.19369 -10.19355 -10.19350 -10.19342
 Alpha  occ. eigenvalues --  -10.19333 -10.19319 -10.19311 -10.19301 -10.19290
 Alpha  occ. eigenvalues --  -10.19286 -10.19275 -10.19271 -10.19268 -10.19253
 Alpha  occ. eigenvalues --  -10.19246 -10.19242 -10.19234 -10.19065 -10.19031
 Alpha  occ. eigenvalues --  -10.18898 -10.18864 -10.18676 -10.18656 -10.18646
 Alpha  occ. eigenvalues --  -10.18605 -10.18587 -10.18583 -10.18429 -10.18397
 Alpha  occ. eigenvalues --  -10.17990  -1.03343  -0.98811  -0.98219  -0.90859
 Alpha  occ. eigenvalues --   -0.89889  -0.86964  -0.86907  -0.86866  -0.84736
 Alpha  occ. eigenvalues --   -0.84720  -0.84365  -0.84118  -0.83841  -0.79305
 Alpha  occ. eigenvalues --   -0.78560  -0.78245  -0.76446  -0.75830  -0.75294
 Alpha  occ. eigenvalues --   -0.75207  -0.75059  -0.74779  -0.74428  -0.74416
 Alpha  occ. eigenvalues --   -0.74090  -0.73590  -0.72908  -0.71614  -0.70378
 Alpha  occ. eigenvalues --   -0.67816  -0.67572  -0.65218  -0.63405  -0.62468
 Alpha  occ. eigenvalues --   -0.62393  -0.62101  -0.61929  -0.61142  -0.60299
 Alpha  occ. eigenvalues --   -0.60080  -0.59478  -0.59118  -0.58710  -0.57564
 Alpha  occ. eigenvalues --   -0.57420  -0.57142  -0.56800  -0.54868  -0.54493
 Alpha  occ. eigenvalues --   -0.53668  -0.52950  -0.52741  -0.52323  -0.50875
 Alpha  occ. eigenvalues --   -0.49949  -0.49568  -0.48963  -0.47704  -0.47387
 Alpha  occ. eigenvalues --   -0.47168  -0.46737  -0.46678  -0.46620  -0.46167
 Alpha  occ. eigenvalues --   -0.45927  -0.45723  -0.45054  -0.44489  -0.44280
 Alpha  occ. eigenvalues --   -0.43894  -0.43675  -0.43559  -0.43425  -0.43274
 Alpha  occ. eigenvalues --   -0.43091  -0.43002  -0.42856  -0.42654  -0.42613
 Alpha  occ. eigenvalues --   -0.42476  -0.41870  -0.41742  -0.41664  -0.41338
 Alpha  occ. eigenvalues --   -0.41100  -0.40952  -0.39809  -0.38396  -0.38209
 Alpha  occ. eigenvalues --   -0.37773  -0.37598  -0.37224  -0.37052  -0.36904
 Alpha  occ. eigenvalues --   -0.36694  -0.36395  -0.36304  -0.35856  -0.35508
 Alpha  occ. eigenvalues --   -0.35383  -0.35303  -0.34797  -0.34662  -0.34246
 Alpha  occ. eigenvalues --   -0.34190  -0.34024  -0.33863  -0.33617  -0.33476
 Alpha  occ. eigenvalues --   -0.33274  -0.32783  -0.32447  -0.29843  -0.28723
 Alpha  occ. eigenvalues --   -0.27252  -0.27036  -0.26395  -0.26326  -0.26116
 Alpha  occ. eigenvalues --   -0.25960  -0.25486  -0.25468  -0.25281  -0.25273
 Alpha  occ. eigenvalues --   -0.25081  -0.24688  -0.22596  -0.22554  -0.22191
 Alpha  occ. eigenvalues --   -0.19833  -0.18806
 Alpha virt. eigenvalues --   -0.07117  -0.05607  -0.03942  -0.02022  -0.01499
 Alpha virt. eigenvalues --   -0.01184  -0.00910  -0.00527  -0.00520  -0.00098
 Alpha virt. eigenvalues --   -0.00062   0.00742   0.00904   0.01963   0.03396

 Mulliken charges:
               1
     1  C   -0.125321
     2  C   -0.133750
     3  C   -0.172024
     4  C    0.087699
     5  C    0.104235
     6  C   -0.187428
     7  C   -0.168580
     8  C    0.082624
     9  C    0.454289
    10  N   -0.546481
    11  C    0.453069
    12  C    0.084371
    13  C   -0.163838
    14  C   -0.186405
    15  C    0.104338
    16  C    0.087958
    17  C   -0.171736
    18  C   -0.133655
    19  C   -0.125271
    20  C   -0.133783
    21  C   -0.172156
    22  C   -0.189159
    23  C   -0.171047
    24  N   -0.555018
    25  C    0.713272
    26  N   -0.769239
    27  C    0.310170
    28  C   -0.147471
    29  C   -0.146674
    30  C   -0.138516
    31  C   -0.196462
    32  C    0.045423
    33  C    0.064658
    34  C   -0.263437
    35  C    0.322791
    36  C    0.057123
    37  C   -0.224606
    38  C    0.295251
    39  C    0.054036
    40  C   -0.200114
    41  C   -0.144963
    42  C   -0.141463
    43  C   -0.177877
    44  C    0.314844
    45  N   -0.747939
    46  C    0.266066
    47  C   -0.149745
    48  C   -0.142828
    49  C   -0.121572
    50  C   -0.143059
    51  C   -0.150385
    52  N   -0.555986
    53  C   -0.163949
    54  C   -0.186407
    55  C   -0.172122
    56  C   -0.133790
    57  H    0.131893
    58  H    0.132676
    59  H    0.134659
    60  H    0.137172
    61  H    0.164639
    62  H    0.161038
    63  H    0.136521
    64  H    0.134351
    65  H    0.132787
    66  H    0.131936
    67  H    0.132672
    68  H    0.134946
    69  H    0.139167
    70  H    0.165814
    71  H    0.173408
    72  H    0.127337
    73  H    0.126315
    74  H    0.130371
    75  H    0.145217
    76  H    0.175603
    77  H    0.132861
    78  H    0.122453
    79  H    0.126150
    80  H    0.139165
    81  H    0.152695
    82  H    0.138451
    83  H    0.135091
    84  H    0.138479
    85  H    0.152897
    86  H    0.161202
    87  H    0.136397
    88  H    0.134996
    89  H    0.132678
 Sum of Mulliken charges =  -0.00000

 Dipole moment (field-independent basis, Debye):
    X=              0.5557    Y=             -0.0323    Z=              0.0407  Tot=              0.5582
 Quadrupole moment (field-independent basis, Debye-Ang):
   XX=           -255.0808   YY=           -286.3470   ZZ=           -313.9118
   XY=             -0.6952   XZ=              2.5406   YZ=            -17.6082

 Normal termination of Gaussian 16 at Sat Nov  5 11:02:52 2022.
