 Gaussian 16, Revision B.01,
 Gaussian 16:  ES64L-G16RevB.01 20-Dec-2017

 -----------------------------
 #p b3lyp/6-31g(d) opt SCF=XQC
 -----------------------------

 ------------------------------
 Gaussian input prepared by ASE
 ------------------------------
 Symbolic Z-matrix:
 Charge =  0 Multiplicity = 1

 SCF Done:  E(RB3LYP) =  -2237.15722088     A.U. after   15 cycles
 SCF Done:  E(RB3LYP) =  -2237.16837127     A.U. after   12 cycles
 SCF Done:  E(RB3LYP) =  -2237.16881509     A.U. after   12 cycles
 SCF Done:  E(RB3LYP) =  -2237.16919528     A.U. after   12 cycles
 SCF Done:  E(RB3LYP) =  -2237.16928953     A.U. after   10 cycles
 SCF Done:  E(RB3LYP) =  -2237.16930500     A.U. after    9 cycles
 SCF Done:  E(RB3LYP) =  -2237.16930851     A.U. after    9 cycles
 SCF Done:  E(RB3LYP) =  -2237.16930955     A.U. after    9 cycles
 SCF Done:  E(RB3LYP) =  -2237.16930985     A.U. after    7 cycles
 SCF Done:  E(RB3LYP) =  -2237.16930990     A.U. after    6 cycles
 Optimization completed.
    -- Stationary point found.

                         Standard orientation:
 ---------------------------------------------------------------------
 Center     Atomic      Atomic             Coordinates (Angstroms)
 Number     Number       Type             X           Y           Z
 ---------------------------------------------------------------------
      1          6           0       11.172455   -2.709697    0.877214
      2          6           0       10.274066   -3.531316    0.193820
      3          6           0        8.944678   -3.142022    0.039145
      4          6           0        8.483584   -1.921891    0.562948
      5          6           0        7.068565   -1.507409    0.397275
      6          6           0        6.024634   -2.448171    0.457762
      7          6           0        4.698778   -2.062984    0.299523
      8          6           0        4.367907   -0.716809    0.078746
      9          6           0        2.957207   -0.300004   -0.088738
     10          7           0        2.691158    1.015886   -0.111315
     11          6           0        1.396223    1.339956   -0.250661
     12          6           0        1.043126    2.776816   -0.301408
     13          6           0        2.001651    3.758004   -0.005515
     14          6           0        1.668595    5.106642   -0.047474
     15          6           0        0.372011    5.526496   -0.394979
     16          6           0        0.020165    6.967137   -0.442924
     17          6           0       -1.246393    7.415226   -0.029729
     18          6           0       -1.576981    8.768549   -0.073630
     19          6           0       -0.648688    9.704632   -0.533192
     20          6           0        0.613232    9.274813   -0.947948
     21          6           0        0.943970    7.921566   -0.902697
     22          6           0       -0.579832    4.536197   -0.698466
     23          6           0       -0.253569    3.186072   -0.650634
     24          7           0        0.397248    0.451582   -0.353641
     25          6           0        0.768488   -0.836124   -0.325641
     26          7           0       -0.228972   -1.793652   -0.432285
     27          6           0       -0.043810   -3.158978   -0.782927
     28          6           0        1.111826   -3.861510   -1.135774
     29          6           0        0.980609   -5.208432   -1.477517
     30          6           0       -0.264450   -5.852083   -1.472969
     31          6           0       -1.414516   -5.145644   -1.133572
     32          6           0       -1.306529   -3.794491   -0.792874
     33          6           0       -2.301875   -2.808087   -0.428010
     34          6           0       -3.683286   -2.919773   -0.263430
     35          6           0       -4.366441   -1.769998    0.123585
     36          6           0       -3.687770   -0.543424    0.369010
     37          6           0       -2.303116   -0.436014    0.199699
     38          6           0       -1.622588   -1.577468   -0.215032
     39          6           0       -4.691150    0.410638    0.791936
     40          6           0       -4.641903    1.761239    1.156232
     41          6           0       -5.821804    2.413516    1.502565
     42          6           0       -7.049174    1.729189    1.480518
     43          6           0       -7.125717    0.384425    1.122679
     44          6           0       -5.936283   -0.268908    0.789170
     45          7           0       -5.732137   -1.592095    0.381069
     46          6           0       -6.736696   -2.588030    0.249991
     47          6           0       -7.563726   -2.900259    1.336722
     48          6           0       -8.555158   -3.871659    1.200423
     49          6           0       -8.715807   -4.551105   -0.008760
     50          6           0       -7.884121   -4.246559   -1.088244
     51          6           0       -6.903504   -3.262357   -0.966622
     52          7           0        2.032558   -1.264659   -0.200123
     53          6           0        5.402326    0.230036    0.024332
     54          6           0        6.727153   -0.160932    0.176843
     55          6           0        9.400071   -1.105405    1.247870
     56          6           0       10.729201   -1.495047    1.403872
     57          1           0       12.208716   -3.013320    0.998388
     58          1           0       10.610388   -4.474970   -0.227626
     59          1           0        8.260725   -3.776811   -0.517175
     60          1           0        6.255641   -3.489825    0.661127
     61          1           0        3.903700   -2.797083    0.368544
     62          1           0        3.002500    3.446027    0.270849
     63          1           0        2.416347    5.848100    0.218810
     64          1           0       -1.967260    6.698808    0.354084
     65          1           0       -2.559315    9.093031    0.259427
     66          1           0       -0.906479   10.759635   -0.568062
     67          1           0        1.340372    9.993868   -1.315973
     68          1           0        1.919201    7.595405   -1.253074
     69          1           0       -1.578890    4.831670   -1.005638
     70          1           0       -0.992373    2.435135   -0.908130
     71          1           0        2.076283   -3.376924   -1.141294
     72          1           0        1.871686   -5.766699   -1.751698
     73          1           0       -0.331632   -6.903171   -1.739266
     74          1           0       -2.385875   -5.632990   -1.138279
     75          1           0       -4.193235   -3.864710   -0.417666
     76          1           0       -1.784468    0.492998    0.382652
     77          1           0       -3.693783    2.292886    1.164594
     78          1           0       -5.796473    3.460936    1.789500
     79          1           0       -7.961045    2.257577    1.745528
     80          1           0       -8.078507   -0.134018    1.099440
     81          1           0       -7.416985   -2.387902    2.282422
     82          1           0       -9.193852   -4.106985    2.047403
     83          1           0       -9.483831   -5.312793   -0.109159
     84          1           0       -8.006542   -4.765999   -2.034764
     85          1           0       -6.271651   -3.003123   -1.810448
     86          1           0        5.151720    1.269733   -0.153216
     87          1           0        7.514350    0.583277    0.097523
     88          1           0        9.059881   -0.170747    1.684809
     89          1           0       11.417913   -0.851835    1.945326
 ---------------------------------------------------------------------

 The electronic state is 1-A.
 Alpha  occ. eigenvalues --  -14.39480 -14.38016 -14.33531 -14.33511 -14.33134
 Alpha  occ. eigenvalues --  -10.30691 -10.27520 -10.27517 -10.23930 -10.22736
 Alpha  occ. eigenvalues --  -10.22496 -10.22366 -10.22281 -10.20675 -10.20666
 Alpha  occ. eigenvalues --  -10.20237 -10.20232 -10.20115 -10.20109 -10.20033
 Alpha  occ. eigenvalues --  -10.20019 -10.20002 -10.19999 -10.19864 -10.19418
 Alpha  occ. eigenvalues --  -10.19402 -10.19369 -10.19355 -10.19350 -10.19342
 Alpha  occ. eigenvalues --  -10.19333 -10.19319 -10.19311 -10.19301 -10.19290
 Alpha  occ. eigenvalues --  -10.19286 -10.19275 -10.19271 -10.19268 -10.19253
 Alpha  occ. eigenvalues --  -10.19246 -10.19242 -10.19234 -10.19065 -10.19031
 Alpha  occ. eigenvalues --  -10.18898 -10.18864 -10.18676 -10.18656 -10.18646
 Alpha  occ. eigenvalues --  -10.18605 -10.18587 -10.18583 -10.18429 -10.18397
 Alpha  occ. eigenvalues --  -10.17990  -1.03343  -0.98811  -0.98219  -0.90859
 Alpha  occ. eigenvalues --   -0.89889  -0.86964  -0.86907  -0.86866  -0.84736
 Alpha  occ. eigenvalues --   -0.84720  -0.84365  -0.84118  -0.83841  -0.79305
 Alpha  occ. eigenvalues --   -0.78560  -0.78245  -0.76446  -0.75830  -0.75294
 Alpha  occ. eigenvalues --   -0.75207  -0.75059  -0.74779  -0.74428  -0.74416
 Alpha  occ. eigenvalues --   -0.74090  -0.73590  -0.72908  -0.71614  -0.70378
 Alpha  occ. eigenvalues --   -0.67816  -0.67572  -0.65218  -0.63405  -0.62468
 Alpha  occ. eigenvalues --   -0.62393  -0.62101  -0.61929  -0.61142  -0.60299
 Alpha  occ. eigenvalues --   -0.60080  -0.59478  -0.59118  -0.58710  -0.57564
 Alpha  occ. eigenvalues --   -0.57420  -0.57142  -0.56800  -0.54868  -0.54493
 Alpha  occ. eigenvalues --   -0.53668  -0.52950  -0.52741  -0.52323  -0.50875
 Alpha  occ. eigenvalues --   -0.49949  -0.49568  -0.48963  -0.47704  -0.47387
 Alpha  occ. eigenvalues --   -0.47168  -0.46737  -0.46678  -0.46620  -0.46167
 Alpha  occ. eigenvalues --   -0.45927  -0.45723  -0.45054  -0.44489  -0.44280
 Alpha  occ. eigenvalues --   -0.43894  -0.43675  -0.43559  -0.43425  -0.43274
 Alpha  occ. eigenvalues --   -0.43091  -0.43002  -0.42856  -0.42654  -0.42613
 Alpha  occ. eigenvalues --   -0.42476  -0.41870  -0.41742  -0.41664  -0.41338
 Alpha  occ. eigenvalues --   -0.41100  -0.40952  -0.39809  -0.38396  -0.38209
 Alpha  occ. eigenvalues --   -0.37773  -0.37598  -0.37224  -0.37052  -0.36904
 Alpha  occ. eigenvalues --   -0.36694  -0.36395  -0.36304  -0.35856  -0.35508
 Alpha  occ. eigenvalues --   -0.35383  -0.35303  -0.34797  -0.34662  -0.34246
 Alpha  occ. eigenvalues --   -0.34190  -0.34024  -0.33863  -0.33617  -0.33476
 Alpha  occ. eigenvalues --   -0.33274  -0.32783  -0.32447  -0.29843  -0.28723
 Alpha  occ. eigenvalues --   -0.27252  -0.27036  -0.26395  -0.26326  -0.26116
 Alpha  occ. eigenvalues --   -0.25960  -0.25486  -0.25468  -0.25281  -0.25273
 Alpha  occ. eigenvalues --   -0.25081  -0.24688  -0.22596  -0.22554  -0.22191
 Alpha  occ. eigenvalues --   -0.19833  -0.18806
 Alpha virt. eigenvalues --   -0.07117  -0.05607  -0.03942  -0.02022  -0.01500
 Alpha virt. eigenvalues --   -0.01184  -0.00910  -0.00527  -0.00520  -0.00098
 Alpha virt. eigenvalues --   -0.00062   0.00742   0.00904   0.01963   0.03396

 Mulliken charges:
               1
     1  C   -0.125320
     2  C   -0.133748
     3  C   -0.172022
     4  C    0.087688
     5  C    0.104247
     6  C   -0.187433
     7  C   -0.168584
     8  C    0.082646
     9  C    0.454280
    10  N   -0.546491
    11  C    0.453064
    12  C    0.084378
    13  C   -0.163837
    14  C   -0.186402
    15  C    0.104334
    16  C    0.087948
    17  C   -0.171730
    18  C   -0.133649
    19  C   -0.125278
    20  C   -0.133776
    21  C   -0.172155
    22  C   -0.189161
    23  C   -0.171048
    24  N   -0.555030
    25  C    0.713336
    26  N   -0.769256
    27  C    0.310185
    28  C   -0.147487
    29  C   -0.146667
    30  C   -0.138517
    31  C   -0.196473
    32  C    0.045438
    33  C    0.064676
    34  C   -0.263439
    35  C    0.322773
    36  C    0.057136
    37  C   -0.224590
    38  C    0.295209
    39  C    0.054023
    40  C   -0.200091
    41  C   -0.144962
    42  C   -0.141469
    43  C   -0.177887
    44  C    0.314856
    45  N   -0.747928
    46  C    0.266044
    47  C   -0.149721
    48  C   -0.142845
    49  C   -0.121562
    50  C   -0.143059
    51  C   -0.150389
    52  N   -0.556006
    53  C   -0.163962
    54  C   -0.186408
    55  C   -0.172115
    56  C   -0.133796
    57  H    0.131893
    58  H    0.132675
    59  H    0.134659
    60  H    0.137172
    61  H    0.164639
    62  H    0.161039
    63  H    0.136521
    64  H    0.134349
    65  H    0.132786
    66  H    0.131936
    67  H    0.132671
    68  H    0.134946
    69  H    0.139169
    70  H    0.165814
    71  H    0.173412
    72  H    0.127337
    73  H    0.126315
    74  H    0.130372
    75  H    0.145216
    76  H    0.175598
    77  H    0.132850
    78  H    0.122453
    79  H    0.126151
    80  H    0.139168
    81  H    0.152695
    82  H    0.138452
    83  H    0.135091
    84  H    0.138479
    85  H    0.152898
    86  H    0.161202
    87  H    0.136396
    88  H    0.134996
    89  H    0.132679
 Sum of Mulliken charges =  -0.00000

 Dipole moment (field-independent basis, Debye):
    X=             -0.5038    Y=             -0.2403    Z=             -0.0086  Tot=              0.5582
 Quadrupole moment (field-independent basis, Debye-Ang):
   XX=           -259.3742   YY=           -274.2478   ZZ=           -321.7961
   XY=              9.1524   XZ=             -0.7866   YZ=              5.7912

 1\1\GINC-NODE32\FOpt\RB3LYP\6-31G(d)\C51H33N5\WYKGROUP\05-Nov-2022\0\\
 #p b3lyp/6-31g(d) opt SCF=XQC\\Gaussian input prepared by ASE\\0,1\C,-
 8.287751936,7.6494702799,-2.2716637787\C,-7.0565695241,7.7031981491,-2
 .9277823712\C,-6.0915855104,6.7257216234,-2.6909462878\C,-6.3360466201
 ,5.6715964516,-1.793864153\C,-5.3088922253,4.6307308902,-1.5427216841\
 C,-3.9414734952,4.956816514,-1.4945702997\C,-2.9772585577,3.9832076699
 ,-1.2628799854\C,-3.3481123791,2.6438049372,-1.065717429\C,-2.32573003
 57,1.6023907491,-0.8166374124\N,-2.7505509771,0.3814427074,-0.45376903

 Normal termination of Gaussian 16 at Sat Nov  5 01:46:00 2022.
