 Gaussian 16, Revision B.01,
 Gaussian 16:  ES64L-G16RevB.01 20-Dec-2017

 -------------------------------------------------------------------
 #p b3lyp/6-31g(d) 6D 10F nosymm GFInput td=(50-50,nstate=2) SCF=XQC
 -------------------------------------------------------------------

 ------------------------------
 Gaussian input prepared by ASE
 ------------------------------
 Symbolic Z-matrix:
 Charge =  0 Multiplicity = 1

                          Input orientation:
 ---------------------------------------------------------------------
 Center     Atomic      Atomic             Coordinates (Angstroms)
 Number     Number       Type             X           Y           Z
 ---------------------------------------------------------------------
      1          6           0       -6.076568    7.360740   -2.907751
      2          6           0       -4.909211    8.056601   -3.229114
      3          6           0       -3.709232    7.765437   -2.583085
      4          6           0       -3.663257    6.778493   -1.585275
      5          7           0       -2.442697    6.486801   -0.915449
      6          6           0       -1.589394    7.550312   -0.508667
      7          6           0       -0.200493    7.461913   -0.695110
      8          6           0        0.630898    8.503981   -0.288860
      9          6           0        0.094773    9.655813    0.290992
     10          6           0       -1.287124    9.750366    0.468823
     11          6           0       -2.124901    8.705866    0.082394
     12          6           0       -2.077576    5.142112   -0.653344
     13          6           0       -1.466109    4.785098    0.560007
     14          6           0       -1.103408    3.466104    0.808856
     15          6           0       -1.346530    2.446147   -0.127150
     16          6           0       -0.965323    1.038638    0.145796
     17          6           0       -1.770146   -0.022616   -0.294340
     18          6           0       -1.429450   -1.359417   -0.039154
     19          6           0       -2.295526   -2.470827   -0.509466
     20          6           0       -2.945878   -2.398845   -1.763726
     21          6           0       -3.765591   -3.419621   -2.225079
     22          6           0       -3.964533   -4.568338   -1.440116
     23          6           0       -4.735186   -5.788591   -1.568197
     24          6           0       -5.597353   -6.322271   -2.579316
     25          6           0       -5.912519   -5.656246   -3.791101
     26          6           0       -6.753346   -6.227585   -4.724814
     27          6           0       -7.323971   -7.498215   -4.496704
     28          6           0       -7.038120   -8.173030   -3.329434
     29          6           0       -6.179025   -7.615633   -2.348902
     30          6           0       -5.886347   -8.327412   -1.146328
     31          6           0       -5.062855   -7.810693   -0.177491
     32          6           0       -4.501821   -6.532637   -0.396648
     33          7           0       -3.631408   -5.834767    0.439340
     34          6           0       -3.181116   -6.257225    1.721719
     35          6           0       -4.107170   -6.537919    2.733979
     36          6           0       -3.660501   -6.954454    3.987962
     37          6           0       -2.293207   -7.071816    4.245795
     38          6           0       -1.370719   -6.780694    3.238809
     39          6           0       -1.810044   -6.384787    1.975589
     40          6           0       -3.293382   -4.635786   -0.188092
     41          6           0       -2.479113   -3.607723    0.285642
     42          6           0       -0.254126   -1.624088    0.679838
     43          6           0        0.567978   -0.586771    1.142646
     44          6           0        1.853641   -0.876734    1.842709
     45          6           0        3.015359   -0.360213    1.303893
     46          6           0        4.252940   -0.650765    1.910282
     47          6           0        4.366789   -1.439932    3.065188
     48          6           0        3.178076   -1.970490    3.659847
     49          6           0        3.190552   -2.759923    4.838264
     50          6           0        2.024532   -3.230357    5.404646
     51          6           0        0.779386   -2.919559    4.822819
     52          6           0        0.729748   -2.158503    3.673885
     53          6           0        1.908822   -1.677514    3.045051
     54          6           0        5.780102   -1.498788    3.389701
     55          6           0        6.552071   -2.118693    4.387990
     56          6           0        7.934762   -1.970318    4.382602
     57          6           0        8.577000   -1.213802    3.387891
     58          6           0        7.846472   -0.586033    2.384296
     59          6           0        6.456573   -0.727888    2.402795
     60          7           0        5.516213   -0.218015    1.506548
     61          6           0        5.801334    0.598219    0.378791
     62          6           0        6.469704    1.817568    0.541652
     63          6           0        6.759108    2.610291   -0.565453
     64          6           0        6.372368    2.222046   -1.859404
     65          6           0        6.669177    3.075540   -3.034204
     66          6           0        7.041667    2.534534   -4.273641
     67          6           0        7.307201    3.386914   -5.341364
     68          6           0        7.198684    4.763526   -5.140393
     69          7           0        6.840136    5.308683   -3.971342
     70          6           0        6.582344    4.477167   -2.958658
     71          6           0        5.694446    1.000105   -2.004928
     72          6           0        5.420966    0.191016   -0.905709
     73          6           0        0.202971    0.736730    0.863949
     74          6           0       -1.965473    2.814381   -1.334126
     75          6           0       -2.317913    4.132632   -1.600374
     76          6           0       -4.840768    6.087183   -1.257174
     77          6           0       -6.031918    6.372714   -1.921771
     78          1           0       -7.008560    7.585572   -3.418461
     79          1           0       -4.926120    8.823701   -3.999000
     80          1           0       -2.801837    8.299717   -2.846140
     81          1           0        0.219629    6.575145   -1.159032
     82          1           0        1.703624    8.419080   -0.441870
     83          1           0        0.745323   10.469152    0.599598
     84          1           0       -1.718757   10.637565    0.924906
     85          1           0       -3.197090    8.778243    0.234896
     86          1           0       -1.287045    5.546505    1.312287
     87          1           0       -0.658946    3.216597    1.768329
     88          1           0       -2.705991    0.196208   -0.799314
     89          1           0       -2.777734   -1.530680   -2.393856
     90          1           0       -4.237566   -3.315030   -3.195452
     91          1           0       -5.489721   -4.678746   -3.989296
     92          1           0       -6.977769   -5.692857   -5.644095
     93          1           0       -7.984263   -7.939044   -5.238411
     94          1           0       -7.471332   -9.153074   -3.141688
     95          1           0       -6.332851   -9.308888   -1.007499
     96          1           0       -4.841833   -8.365956    0.727766
     97          1           0       -5.167613   -6.417515    2.535045
     98          1           0       -4.383889   -7.173207    4.768610
     99          1           0       -1.948428   -7.387838    5.226315
    100          1           0       -0.305321   -6.871011    3.430906
    101          1           0       -1.099197   -6.179990    1.181161
    102          1           0       -2.020099   -3.673976    1.266095
    103          1           0        0.047750   -2.653253    0.847498
    104          1           0        2.972133    0.241104    0.402376
    105          1           0        4.137209   -2.993634    5.308877
    106          1           0        2.067878   -3.831153    6.309474
    107          1           0       -0.140869   -3.271131    5.281172
    108          1           0       -0.232215   -1.904894    3.243014
    109          1           0        6.089178   -2.717906    5.163522
    110          1           0        8.526599   -2.450349    5.156879
    111          1           0        9.659286   -1.118736    3.398205
    112          1           0        8.339882   -0.009544    1.608712
    113          1           0        6.760010    2.138552    1.537132
    114          1           0        7.303055    3.539541   -0.423960
    115          1           0        7.143522    1.458867   -4.390141
    116          1           0        7.604378    2.994185   -6.309335
    117          1           0        7.407745    5.459965   -5.950590
    118          1           0        6.266352    4.947608   -2.028760
    119          1           0        5.365543    0.682663   -2.990318
    120          1           0        4.911738   -0.758606   -1.036938
    121          1           0        0.848438    1.542116    1.201669
    122          1           0       -2.138873    2.060647   -2.097252
    123          1           0       -2.773210    4.389719   -2.551339
    124          1           0       -4.814942    5.328629   -0.481307
    125          1           0       -6.933650    5.827800   -1.654587
 ---------------------------------------------------------------------

 SCF Done:  E(RB3LYP) =  -3029.79064620     A.U. after   15 cycles

 Excitation energies and oscillator strengths:

 Excited state symmetry could not be determined.
 Excited State   1:      Triplet-?Sym    2.4996 eV  496.02 nm  f=0.0000  <S**2>=2.000
     253 -> 260        0.14399
     255 -> 258        0.26093
     255 -> 260        0.41189
     256 -> 258       -0.19244
     256 -> 259        0.32547
 This state for optimization and/or second-order correction.
 Total Energy, E(TD-HF/TD-DFT) =  -3029.69878793
 Copying the excited state density for this state as the 1-particle RhoCI density.

 Excited state symmetry could not be determined.
 Excited State   2:      Triplet-?Sym    2.5284 eV  490.37 nm  f=0.0000  <S**2>=2.000
     255 -> 258       -0.19774
     255 -> 259        0.27853
     256 -> 259        0.36828
     256 -> 260        0.34236
     256 -> 261        0.11812

 Excited state symmetry could not be determined.
 Excited State   3:      Singlet-?Sym    3.3058 eV  375.05 nm  f=0.0169  <S**2>=0.000
     257 -> 258        0.68436
     257 -> 259       -0.13166

 Excited state symmetry could not be determined.
 Excited State   4:      Singlet-?Sym    3.3819 eV  366.61 nm  f=0.0163  <S**2>=0.000
     257 -> 258        0.16066
     257 -> 259        0.65009
     257 -> 260       -0.20298

 Alpha  occ. eigenvalues --  -14.38615 -14.38419 -14.36326 -14.33435 -10.24532
 Alpha  occ. eigenvalues --  -10.24138 -10.22829 -10.22780 -10.22757 -10.22726
 Alpha  occ. eigenvalues --  -10.22659 -10.22567 -10.22529 -10.22454 -10.22332
 Alpha  occ. eigenvalues --  -10.21615 -10.21478 -10.21407 -10.20776 -10.20744
 Alpha  occ. eigenvalues --  -10.20710 -10.20685 -10.20517 -10.20316 -10.20255
 Alpha  occ. eigenvalues --  -10.20251 -10.20196 -10.20088 -10.20075 -10.19873
 Alpha  occ. eigenvalues --  -10.19775 -10.19722 -10.19704 -10.19691 -10.19556
 Alpha  occ. eigenvalues --  -10.19534 -10.19306 -10.19181 -10.19144 -10.19133
 Alpha  occ. eigenvalues --  -10.19095 -10.19009 -10.19004 -10.18915 -10.18911
 Alpha  occ. eigenvalues --  -10.18900 -10.18888 -10.18886 -10.18886 -10.18851
 Alpha  occ. eigenvalues --  -10.18824 -10.18823 -10.18816 -10.18816 -10.18717
 Alpha  occ. eigenvalues --  -10.18684 -10.18635 -10.18609 -10.18602 -10.18600
 Alpha  occ. eigenvalues --  -10.18598 -10.18598 -10.18583 -10.18571 -10.18560
 Alpha  occ. eigenvalues --  -10.18532 -10.18525 -10.18496 -10.18492 -10.18479
 Alpha  occ. eigenvalues --  -10.18374 -10.18345 -10.18334 -10.18310 -10.18272
 Alpha  occ. eigenvalues --  -10.18182 -10.18124  -0.99443  -0.99260  -0.96242
 Alpha  occ. eigenvalues --   -0.94483  -0.88099  -0.87450  -0.87219  -0.86254
 Alpha  occ. eigenvalues --   -0.85979  -0.85221  -0.85165  -0.84564  -0.84078
 Alpha  occ. eigenvalues --   -0.83185  -0.82382  -0.81503  -0.81197  -0.79906
 Alpha  occ. eigenvalues --   -0.79291  -0.78070  -0.77233  -0.76420  -0.76049
 Alpha  occ. eigenvalues --   -0.75841  -0.75758  -0.75488  -0.75035  -0.74537
 Alpha  occ. eigenvalues --   -0.74384  -0.74352  -0.74218  -0.74066  -0.74000
 Alpha  occ. eigenvalues --   -0.73440  -0.72857  -0.71595  -0.71430  -0.70583
 Alpha  occ. eigenvalues --   -0.69839  -0.69609  -0.65520  -0.64644  -0.64521
 Alpha  occ. eigenvalues --   -0.63949  -0.63218  -0.62851  -0.62649  -0.62356
 Alpha  occ. eigenvalues --   -0.62245  -0.61565  -0.61318  -0.61009  -0.60576
 Alpha  occ. eigenvalues --   -0.60463  -0.60052  -0.59851  -0.59685  -0.59042
 Alpha  occ. eigenvalues --   -0.58306  -0.57999  -0.57416  -0.57190  -0.56240
 Alpha  occ. eigenvalues --   -0.56125  -0.54598  -0.54175  -0.53423  -0.53076
 Alpha  occ. eigenvalues --   -0.53023  -0.52749  -0.52024  -0.51411  -0.50700
 Alpha  occ. eigenvalues --   -0.50251  -0.49732  -0.49639  -0.49448  -0.49278
 Alpha  occ. eigenvalues --   -0.49005  -0.48728  -0.48042  -0.47777  -0.47463
 Alpha  occ. eigenvalues --   -0.47108  -0.46994  -0.46867  -0.46628  -0.45836
 Alpha  occ. eigenvalues --   -0.45783  -0.45372  -0.45169  -0.44887  -0.44727
 Alpha  occ. eigenvalues --   -0.44573  -0.44250  -0.44017  -0.43901  -0.43774
 Alpha  occ. eigenvalues --   -0.43719  -0.43565  -0.43433  -0.43191  -0.42916
 Alpha  occ. eigenvalues --   -0.42779  -0.42531  -0.42435  -0.42247  -0.41991
 Alpha  occ. eigenvalues --   -0.41903  -0.41813  -0.41766  -0.41626  -0.41175
 Alpha  occ. eigenvalues --   -0.41037  -0.40882  -0.40779  -0.40637  -0.40561
 Alpha  occ. eigenvalues --   -0.40273  -0.39598  -0.38428  -0.38238  -0.38014
 Alpha  occ. eigenvalues --   -0.37888  -0.37676  -0.37494  -0.37375  -0.37339
 Alpha  occ. eigenvalues --   -0.37088  -0.36937  -0.36701  -0.36636  -0.36420
 Alpha  occ. eigenvalues --   -0.36293  -0.36152  -0.36116  -0.35948  -0.35749
 Alpha  occ. eigenvalues --   -0.35655  -0.35417  -0.35031  -0.34801  -0.34353
 Alpha  occ. eigenvalues --   -0.34215  -0.34001  -0.33827  -0.33680  -0.33441
 Alpha  occ. eigenvalues --   -0.33386  -0.33106  -0.32182  -0.31736  -0.30963
 Alpha  occ. eigenvalues --   -0.30609  -0.30434  -0.29740  -0.29279  -0.28989
 Alpha  occ. eigenvalues --   -0.27985  -0.27004  -0.26854  -0.26305  -0.26105
 Alpha  occ. eigenvalues --   -0.25807  -0.25741  -0.25637  -0.25485  -0.24712
 Alpha  occ. eigenvalues --   -0.24613  -0.24544  -0.24494  -0.24487  -0.24278
 Alpha  occ. eigenvalues --   -0.23525  -0.22830  -0.20297  -0.20240  -0.19302
 Alpha  occ. eigenvalues --   -0.19078  -0.18006
 Alpha virt. eigenvalues --   -0.04737  -0.04457  -0.04323  -0.02830  -0.02661
 Alpha virt. eigenvalues --   -0.01937  -0.01822  -0.01602  -0.01261  -0.01157
 Alpha virt. eigenvalues --   -0.00921  -0.00408   0.00139   0.00420   0.00665

 Mulliken charges:
               1
     1  C   -0.128411
     2  C   -0.140126
     3  C   -0.162470
     4  C    0.274980
     5  N   -0.653279
     6  C    0.273526
     7  C   -0.161389
     8  C   -0.140397
     9  C   -0.128143
    10  C   -0.140108
    11  C   -0.161742
    12  C    0.291025
    13  C   -0.173188
    14  C   -0.188340
    15  C    0.093887
    16  C    0.096113
    17  C   -0.237920
    18  C    0.093319
    19  C    0.090065
    20  C   -0.193896
    21  C   -0.206639
    22  C    0.076205
    23  C   -0.065024
    24  C    0.077379
    25  C   -0.179766
    26  C   -0.145916
    27  C   -0.130028
    28  C   -0.210531
    29  C    0.149230
    30  C   -0.207833
    31  C   -0.174160
    32  C    0.317989
    33  N   -0.736840
    34  C    0.256277
    35  C   -0.146707
    36  C   -0.142939
    37  C   -0.121691
    38  C   -0.142103
    39  C   -0.147322
    40  C    0.307473
    41  C   -0.240980
    42  C   -0.228701
    43  C    0.061064
    44  C    0.022634
    45  C   -0.240877
    46  C    0.324167
    47  C   -0.048988
    48  C    0.067136
    49  C   -0.183615
    50  C   -0.144998
    51  C   -0.132252
    52  C   -0.225693
    53  C    0.102795
    54  C    0.065139
    55  C   -0.203239
    56  C   -0.141745
    57  C   -0.143211
    58  C   -0.177326
    59  C    0.302369
    60  N   -0.738449
    61  C    0.265258
    62  C   -0.151988
    63  C   -0.189495
    64  C    0.099111
    65  C    0.065426
    66  C   -0.139233
    67  C   -0.144302
    68  C    0.041851
    69  N   -0.410525
    70  C    0.000166
    71  C   -0.189135
    72  C   -0.151787
    73  C   -0.226267
    74  C   -0.187134
    75  C   -0.172803
    76  C   -0.162297
    77  C   -0.140359
    78  H    0.127466
    79  H    0.131295
    80  H    0.144639
    81  H    0.144687
    82  H    0.132927
    83  H    0.127935
    84  H    0.131335
    85  H    0.144174
    86  H    0.145983
    87  H    0.136987
    88  H    0.137512
    89  H    0.124925
    90  H    0.142139
    91  H    0.135664
    92  H    0.127142
    93  H    0.126223
    94  H    0.126735
    95  H    0.129612
    96  H    0.144216
    97  H    0.153117
    98  H    0.139542
    99  H    0.136270
   100  H    0.144937
   101  H    0.154776
   102  H    0.147797
   103  H    0.140060
   104  H    0.149953
   105  H    0.135425
   106  H    0.125412
   107  H    0.127478
   108  H    0.147509
   109  H    0.142237
   110  H    0.124068
   111  H    0.127206
   112  H    0.139041
   113  H    0.157062
   114  H    0.146225
   115  H    0.146996
   116  H    0.141401
   117  H    0.144961
   118  H    0.145362
   119  H    0.142720
   120  H    0.157498
   121  H    0.134883
   122  H    0.132145
   123  H    0.145368
   124  H    0.144908
   125  H    0.131768
 Sum of Mulliken charges =  -0.00000

 Dipole moment (field-independent basis, Debye):
    X=              0.7973    Y=             -1.3803    Z=             -0.0442  Tot=              1.5946
 Quadrupole moment (field-independent basis, Debye-Ang):
   XX=           -411.1054   YY=           -418.8742   ZZ=           -407.6484
   XY=             -0.0108   XZ=             -7.5883   YZ=            -16.3463

 Normal termination of Gaussian 16 at Sat Nov  5 11:20:27 2022.
