 Gaussian 16, Revision B.01,
 Gaussian 16:  ES64L-G16RevB.01 20-Dec-2017

 -----------------------------
 #p b3lyp/6-31g(d) opt SCF=XQC
 -----------------------------

 ------------------------------
 Gaussian input prepared by ASE
 ------------------------------
 Symbolic Z-matrix:
 Charge =  0 Multiplicity = 1

 SCF Done:  E(RB3LYP) =  -3029.77224782     A.U. after   15 cycles
 SCF Done:  E(RB3LYP) =  -3029.78895703     A.U. after   13 cycles
 SCF Done:  E(RB3LYP) =  -3029.79026452     A.U. after   12 cycles
 SCF Done:  E(RB3LYP) =  -3029.79054709     A.U. after   11 cycles
 SCF Done:  E(RB3LYP) =  -3029.79062482     A.U. after   10 cycles
 SCF Done:  E(RB3LYP) =  -3029.79064538     A.U. after   10 cycles
 SCF Done:  E(RB3LYP) =  -3029.79064998     A.U. after    9 cycles
 SCF Done:  E(RB3LYP) =  -3029.79065110     A.U. after    9 cycles
 SCF Done:  E(RB3LYP) =  -3029.79065139     A.U. after    9 cycles
 SCF Done:  E(RB3LYP) =  -3029.79065151     A.U. after    7 cycles
 SCF Done:  E(RB3LYP) =  -3029.79065154     A.U. after    6 cycles
 Optimization completed.
    -- Stationary point found.

                         Standard orientation:
 ---------------------------------------------------------------------
 Center     Atomic      Atomic             Coordinates (Angstroms)
 Number     Number       Type             X           Y           Z
 ---------------------------------------------------------------------
      1          6           0       -3.091764    9.556317   -0.672016
      2          6           0       -4.326228    9.078553   -0.226976
      3          6           0       -4.694263    7.752362   -0.445715
      4          6           0       -3.833363    6.882700   -1.134435
      5          7           0       -4.210715    5.531519   -1.369871
      6          6           0       -5.541053    5.230830   -1.775386
      7          6           0       -6.229908    4.143990   -1.213356
      8          6           0       -7.530427    3.850444   -1.619112
      9          6           0       -8.172336    4.641646   -2.574270
     10          6           0       -7.492936    5.728924   -3.127845
     11          6           0       -6.185765    6.019454   -2.741742
     12          6           0       -3.265446    4.488221   -1.201954
     13          6           0       -3.226528    3.401380   -2.091243
     14          6           0       -2.302270    2.377260   -1.917617
     15          6           0       -1.369702    2.397056   -0.866211
     16          6           0       -0.379827    1.306284   -0.689392
     17          6           0        0.920421    1.581029   -0.240408
     18          6           0        1.871899    0.563515   -0.074327
     19          6           0        3.245627    0.873046    0.398513
     20          6           0        3.464431    1.865212    1.382910
     21          6           0        4.737561    2.179126    1.838274
     22          6           0        5.854374    1.499773    1.322036
     23          6           0        7.287632    1.560245    1.525616
     24          6           0        8.143239    2.339146    2.369272
     25          6           0        7.684801    3.340722    3.262593
     26          6           0        8.564943    4.057081    4.048354
     27          6           0        9.952862    3.808850    3.983482
     28          6           0       10.431956    2.841890    3.126123
     29          6           0        9.556340    2.087764    2.304680
     30          6           0       10.064793    1.084880    1.424808
     31          6           0        9.241891    0.343273    0.614478
     32          6           0        7.853458    0.599681    0.666695
     33          7           0        6.845490   -0.044040   -0.049642
     34          6           0        7.030593   -1.058479   -1.030654
     35          6           0        7.826418   -0.810539   -2.155919
     36          6           0        8.006862   -1.809266   -3.112722
     37          6           0        7.379861   -3.048146   -2.965113
     38          6           0        6.577527   -3.289959   -1.848177
     39          6           0        6.409869   -2.304000   -0.875937
     40          6           0        5.620374    0.494013    0.344156
     41          6           0        4.344801    0.183702   -0.125942
     42          6           0        1.499245   -0.755454   -0.374058
     43          6           0        0.211032   -1.063660   -0.834047
     44          6           0       -0.201265   -2.476506   -1.080976
     45          6           0       -1.294929   -2.961952   -0.391811
     46          6           0       -1.686147   -4.304019   -0.563687
     47          6           0       -1.018726   -5.185547   -1.427985
     48          6           0        0.104579   -4.704940   -2.173203
     49          6           0        0.828490   -5.513899   -3.086202
     50          6           0        1.887436   -5.012005   -3.813138
     51          6           0        2.267202   -3.662531   -3.671001
     52          6           0        1.588931   -2.848140   -2.788710
     53          6           0        0.510428   -3.333470   -2.002401
     54          6           0       -1.715833   -6.455695   -1.344363
     55          6           0       -1.555877   -7.724686   -1.928209
     56          6           0       -2.429403   -8.753475   -1.592913
     57          6           0       -3.469563   -8.547334   -0.671063
     58          6           0       -3.658865   -7.305705   -0.073160
     59          6           0       -2.786141   -6.272536   -0.424157
     60          7           0       -2.756687   -4.958805    0.045683
     61          6           0       -3.661285   -4.391881    0.983589
     62          6           0       -5.036368   -4.383303    0.720675
     63          6           0       -5.922366   -3.838552    1.645933
     64          6           0       -5.462653   -3.268953    2.845447
     65          6           0       -6.407567   -2.676639    3.821666
     66          6           0       -6.227716   -2.807041    5.206689
     67          6           0       -7.148525   -2.227685    6.074761
     68          6           0       -8.232570   -1.535131    5.533983
     69          7           0       -8.427551   -1.389251    4.217497
     70          6           0       -7.531635   -1.945329    3.398036
     71          6           0       -4.079213   -3.277232    3.090232
     72          6           0       -3.188573   -3.839978    2.180410
     73          6           0       -0.717495   -0.025069   -0.981427
     74          6           0       -1.413609    3.493148    0.012499
     75          6           0       -2.343815    4.514787   -0.141969
     76          6           0       -2.596825    7.368451   -1.589531
     77          6           0       -2.229928    8.691310   -1.349767
     78          1           0       -2.805346   10.588818   -0.493443
     79          1           0       -5.005226    9.737496    0.308009
     80          1           0       -5.649043    7.382370   -0.085823
     81          1           0       -5.740729    3.535090   -0.459680
     82          1           0       -8.049049    3.005996   -1.172682
     83          1           0       -9.188781    4.414177   -2.882604
     84          1           0       -7.976699    6.349959   -3.877331
     85          1           0       -5.656960    6.857500   -3.184604
     86          1           0       -3.918267    3.369853   -2.926847
     87          1           0       -2.277855    1.565116   -2.638875
     88          1           0        1.214298    2.611653   -0.066803
     89          1           0        2.608597    2.377320    1.812259
     90          1           0        4.848946    2.945861    2.596585
     91          1           0        6.624514    3.552531    3.329466
     92          1           0        8.184505    4.819660    4.722978
     93          1           0       10.636961    4.378204    4.606610
     94          1           0       11.499408    2.640789    3.066873
     95          1           0       11.137796    0.910757    1.408136
     96          1           0        9.640575   -0.421784   -0.043092
     97          1           0        8.288126    0.164377   -2.278288
     98          1           0        8.627506   -1.611818   -3.982418
     99          1           0        7.515266   -3.820745   -3.716724
    100          1           0        6.087505   -4.251667   -1.725189
    101          1           0        5.806918   -2.493484    0.006621
    102          1           0        4.208869   -0.557378   -0.906132
    103          1           0        2.208648   -1.560350   -0.208805
    104          1           0       -1.828302   -2.317484    0.298375
    105          1           0        0.539242   -6.548471   -3.221309
    106          1           0        2.420500   -5.657468   -4.506512
    107          1           0        3.087085   -3.260705   -4.259973
    108          1           0        1.872093   -1.805451   -2.699503
    109          1           0       -0.757521   -7.920210   -2.634731
    110          1           0       -2.302246   -9.731820   -2.047752
    111          1           0       -4.134786   -9.368030   -0.417243
    112          1           0       -4.454692   -7.145679    0.646822
    113          1           0       -5.404826   -4.804798   -0.209309
    114          1           0       -6.988020   -3.865688    1.438452
    115          1           0       -5.387537   -3.375960    5.595839
    116          1           0       -7.036441   -2.319904    7.151075
    117          1           0       -8.977025   -1.077171    6.182993
    118          1           0       -7.700921   -1.786640    2.334064
    119          1           0       -3.692238   -2.826714    3.999752
    120          1           0       -2.124038   -3.854139    2.392258
    121          1           0       -1.722824   -0.262548   -1.316462
    122          1           0       -0.732005    3.527709    0.857937
    123          1           0       -2.368223    5.336332    0.566687
    124          1           0       -1.929475    6.704501   -2.129768
    125          1           0       -1.269057    9.050120   -1.709521
 ---------------------------------------------------------------------

 The electronic state is 1-A.
 Alpha  occ. eigenvalues --  -14.38615 -14.38419 -14.36326 -14.33435 -10.24532
 Alpha  occ. eigenvalues --  -10.24138 -10.22829 -10.22780 -10.22757 -10.22726
 Alpha  occ. eigenvalues --  -10.22659 -10.22567 -10.22529 -10.22454 -10.22332
 Alpha  occ. eigenvalues --  -10.21615 -10.21478 -10.21407 -10.20776 -10.20744
 Alpha  occ. eigenvalues --  -10.20710 -10.20685 -10.20517 -10.20316 -10.20256
 Alpha  occ. eigenvalues --  -10.20251 -10.20196 -10.20088 -10.20075 -10.19873
 Alpha  occ. eigenvalues --  -10.19775 -10.19722 -10.19704 -10.19691 -10.19556
 Alpha  occ. eigenvalues --  -10.19534 -10.19306 -10.19181 -10.19144 -10.19133
 Alpha  occ. eigenvalues --  -10.19095 -10.19009 -10.19004 -10.18915 -10.18911
 Alpha  occ. eigenvalues --  -10.18900 -10.18888 -10.18886 -10.18886 -10.18851
 Alpha  occ. eigenvalues --  -10.18824 -10.18823 -10.18816 -10.18816 -10.18717
 Alpha  occ. eigenvalues --  -10.18684 -10.18635 -10.18609 -10.18602 -10.18600
 Alpha  occ. eigenvalues --  -10.18598 -10.18598 -10.18583 -10.18571 -10.18560
 Alpha  occ. eigenvalues --  -10.18532 -10.18525 -10.18496 -10.18492 -10.18479
 Alpha  occ. eigenvalues --  -10.18374 -10.18345 -10.18334 -10.18310 -10.18272
 Alpha  occ. eigenvalues --  -10.18182 -10.18123  -0.99443  -0.99260  -0.96242
 Alpha  occ. eigenvalues --   -0.94483  -0.88099  -0.87450  -0.87219  -0.86254
 Alpha  occ. eigenvalues --   -0.85980  -0.85221  -0.85165  -0.84564  -0.84078
 Alpha  occ. eigenvalues --   -0.83185  -0.82382  -0.81503  -0.81197  -0.79906
 Alpha  occ. eigenvalues --   -0.79291  -0.78070  -0.77233  -0.76420  -0.76049
 Alpha  occ. eigenvalues --   -0.75841  -0.75758  -0.75488  -0.75035  -0.74537
 Alpha  occ. eigenvalues --   -0.74384  -0.74352  -0.74218  -0.74066  -0.74000
 Alpha  occ. eigenvalues --   -0.73440  -0.72857  -0.71595  -0.71430  -0.70583
 Alpha  occ. eigenvalues --   -0.69839  -0.69609  -0.65520  -0.64644  -0.64521
 Alpha  occ. eigenvalues --   -0.63949  -0.63218  -0.62851  -0.62649  -0.62356
 Alpha  occ. eigenvalues --   -0.62245  -0.61565  -0.61318  -0.61009  -0.60576
 Alpha  occ. eigenvalues --   -0.60463  -0.60052  -0.59851  -0.59685  -0.59042
 Alpha  occ. eigenvalues --   -0.58306  -0.57999  -0.57416  -0.57190  -0.56240
 Alpha  occ. eigenvalues --   -0.56125  -0.54598  -0.54175  -0.53423  -0.53076
 Alpha  occ. eigenvalues --   -0.53023  -0.52749  -0.52024  -0.51411  -0.50700
 Alpha  occ. eigenvalues --   -0.50251  -0.49732  -0.49639  -0.49448  -0.49278
 Alpha  occ. eigenvalues --   -0.49005  -0.48728  -0.48042  -0.47777  -0.47463
 Alpha  occ. eigenvalues --   -0.47108  -0.46994  -0.46867  -0.46628  -0.45836
 Alpha  occ. eigenvalues --   -0.45783  -0.45372  -0.45169  -0.44887  -0.44727
 Alpha  occ. eigenvalues --   -0.44573  -0.44250  -0.44017  -0.43901  -0.43774
 Alpha  occ. eigenvalues --   -0.43719  -0.43565  -0.43433  -0.43191  -0.42916
 Alpha  occ. eigenvalues --   -0.42779  -0.42531  -0.42435  -0.42247  -0.41991
 Alpha  occ. eigenvalues --   -0.41903  -0.41813  -0.41766  -0.41626  -0.41175
 Alpha  occ. eigenvalues --   -0.41037  -0.40882  -0.40779  -0.40637  -0.40561
 Alpha  occ. eigenvalues --   -0.40273  -0.39598  -0.38428  -0.38238  -0.38014
 Alpha  occ. eigenvalues --   -0.37888  -0.37676  -0.37494  -0.37375  -0.37339
 Alpha  occ. eigenvalues --   -0.37088  -0.36937  -0.36701  -0.36636  -0.36420
 Alpha  occ. eigenvalues --   -0.36293  -0.36152  -0.36116  -0.35948  -0.35749
 Alpha  occ. eigenvalues --   -0.35655  -0.35417  -0.35031  -0.34801  -0.34353
 Alpha  occ. eigenvalues --   -0.34215  -0.34001  -0.33827  -0.33680  -0.33441
 Alpha  occ. eigenvalues --   -0.33386  -0.33106  -0.32182  -0.31736  -0.30963
 Alpha  occ. eigenvalues --   -0.30609  -0.30434  -0.29740  -0.29279  -0.28989
 Alpha  occ. eigenvalues --   -0.27985  -0.27004  -0.26854  -0.26305  -0.26105
 Alpha  occ. eigenvalues --   -0.25807  -0.25741  -0.25637  -0.25485  -0.24712
 Alpha  occ. eigenvalues --   -0.24613  -0.24544  -0.24494  -0.24487  -0.24278
 Alpha  occ. eigenvalues --   -0.23525  -0.22830  -0.20297  -0.20240  -0.19302
 Alpha  occ. eigenvalues --   -0.19078  -0.18006
 Alpha virt. eigenvalues --   -0.04737  -0.04457  -0.04323  -0.02830  -0.02661
 Alpha virt. eigenvalues --   -0.01937  -0.01822  -0.01602  -0.01261  -0.01157
 Alpha virt. eigenvalues --   -0.00921  -0.00408   0.00139   0.00420   0.00665

 Mulliken charges:
               1
     1  C   -0.128411
     2  C   -0.140119
     3  C   -0.162466
     4  C    0.274959
     5  N   -0.653267
     6  C    0.273541
     7  C   -0.161398
     8  C   -0.140399
     9  C   -0.128137
    10  C   -0.140105
    11  C   -0.161753
    12  C    0.290997
    13  C   -0.173173
    14  C   -0.188334
    15  C    0.093869
    16  C    0.096121
    17  C   -0.237929
    18  C    0.093309
    19  C    0.090087
    20  C   -0.193907
    21  C   -0.206656
    22  C    0.076235
    23  C   -0.064998
    24  C    0.077390
    25  C   -0.179777
    26  C   -0.145918
    27  C   -0.130026
    28  C   -0.210535
    29  C    0.149217
    30  C   -0.207838
    31  C   -0.174145
    32  C    0.317963
    33  N   -0.736835
    34  C    0.256272
    35  C   -0.146713
    36  C   -0.142936
    37  C   -0.121685
    38  C   -0.142109
    39  C   -0.147321
    40  C    0.307460
    41  C   -0.240984
    42  C   -0.228689
    43  C    0.061053
    44  C    0.022632
    45  C   -0.240883
    46  C    0.324159
    47  C   -0.048977
    48  C    0.067143
    49  C   -0.183619
    50  C   -0.144996
    51  C   -0.132259
    52  C   -0.225691
    53  C    0.102787
    54  C    0.065146
    55  C   -0.203242
    56  C   -0.141746
    57  C   -0.143209
    58  C   -0.177325
    59  C    0.302357
    60  N   -0.738413
    61  C    0.265215
    62  C   -0.151983
    63  C   -0.189504
    64  C    0.099120
    65  C    0.065430
    66  C   -0.139234
    67  C   -0.144296
    68  C    0.041843
    69  N   -0.410519
    70  C    0.000160
    71  C   -0.189152
    72  C   -0.151764
    73  C   -0.226256
    74  C   -0.187132
    75  C   -0.172792
    76  C   -0.162292
    77  C   -0.140361
    78  H    0.127466
    79  H    0.131295
    80  H    0.144639
    81  H    0.144687
    82  H    0.132927
    83  H    0.127934
    84  H    0.131335
    85  H    0.144173
    86  H    0.145983
    87  H    0.136987
    88  H    0.137513
    89  H    0.124926
    90  H    0.142138
    91  H    0.135665
    92  H    0.127143
    93  H    0.126224
    94  H    0.126735
    95  H    0.129613
    96  H    0.144218
    97  H    0.153118
    98  H    0.139542
    99  H    0.136269
   100  H    0.144938
   101  H    0.154774
   102  H    0.147797
   103  H    0.140063
   104  H    0.149952
   105  H    0.135425
   106  H    0.125412
   107  H    0.127481
   108  H    0.147510
   109  H    0.142236
   110  H    0.124069
   111  H    0.127205
   112  H    0.139041
   113  H    0.157064
   114  H    0.146226
   115  H    0.146996
   116  H    0.141401
   117  H    0.144961
   118  H    0.145363
   119  H    0.142722
   120  H    0.157499
   121  H    0.134883
   122  H    0.132147
   123  H    0.145370
   124  H    0.144909
   125  H    0.131768
 Sum of Mulliken charges =  -0.00000

 Dipole moment (field-independent basis, Debye):
    X=              0.7232    Y=             -1.2988    Z=              0.5770  Tot=              1.5946
 Quadrupole moment (field-independent basis, Debye-Ang):
   XX=           -414.5513   YY=           -411.3719   ZZ=           -412.0233
   XY=             -3.1011   XZ=            -18.3412   YZ=              3.3376

 1\1\GINC-NODE03\FOpt\RB3LYP\6-31G(d)\C73H48N4\WYKGROUP\05-Nov-2022\0\\
 #p b3lyp/6-31g(d) opt SCF=XQC\\Gaussian input prepared by ASE\\0,1\C,-
 6.0765680986,7.360739509,-2.9077506924\C,-4.9092110333,8.0566007501,-3
 .229113879\C,-3.7092317421,7.7654367208,-2.5830847947\C,-3.6632568322,
 6.7784925661,-1.5852753385\N,-2.4426972607,6.4868011001,-0.9154490695\
 C,-1.5893936076,7.5503124148,-0.5086672284\C,-0.200493014,7.4619130193
 ,-0.6951099795\C,0.6308980764,8.5039807878,-0.2888597011\C,0.094773243
 3,9.6558130357,0.2909923416\C,-1.2871241357,9.7503659555,0.4688233762\

 Normal termination of Gaussian 16 at Sat Nov  5 02:28:59 2022.
