 Gaussian 16, Revision B.01,
 Gaussian 16:  ES64L-G16RevB.01 20-Dec-2017

 -------------------------------------------------------------------
 #p b3lyp/6-31g(d) 6D 10F nosymm GFInput td=(50-50,nstate=2) SCF=XQC
 -------------------------------------------------------------------

 ------------------------------
 Gaussian input prepared by ASE
 ------------------------------
 Symbolic Z-matrix:
 Charge =  0 Multiplicity = 1

                          Input orientation:
 ---------------------------------------------------------------------
 Center     Atomic      Atomic             Coordinates (Angstroms)
 Number     Number       Type             X           Y           Z
 ---------------------------------------------------------------------
      1          6           0        3.922135    3.961836   -0.017539
      2          6           0        3.716694    3.305260   -1.232632
      3          6           0        3.583758    1.917426   -1.269935
      4          6           0        3.636661    1.177758   -0.081473
      5          7           0        3.493173   -0.235480   -0.114379
      6          6           0        4.412219   -1.163913    0.388383
      7          6           0        5.653645   -0.946696    0.992370
      8          6           0        6.386702   -2.063761    1.388170
      9          6           0        5.902791   -3.367699    1.185456
     10          6           0        4.671291   -3.578070    0.571828
     11          6           0        3.914438   -2.473457    0.163700
     12          6           0        2.637792   -2.327553   -0.502013
     13          6           0        1.675268   -3.229633   -0.967372
     14          6           0        0.518470   -2.742842   -1.564917
     15          6           0        0.286342   -1.355525   -1.700856
     16          6           0       -0.932980   -0.878299   -2.418330
     17          6           0       -1.105751   -1.305487   -3.748381
     18          6           0       -2.152179   -0.854673   -4.545805
     19          6           0       -3.073056    0.050057   -4.012086
     20          6           0       -2.951111    0.456841   -2.689625
     21          6           0       -1.901291   -0.002539   -1.871481
     22          7           0       -1.904815    0.427001   -0.508809
     23          6           0       -1.571120   -0.441719    0.573050
     24          6           0       -0.667516   -0.012828    1.530165
     25          6           0       -0.326573   -0.820367    2.634728
     26          6           0       -0.872957   -2.073301    2.777603
     27          6           0       -1.819363   -2.550823    1.833694
     28          6           0       -2.423368   -3.827721    1.988799
     29          6           0       -3.388264   -4.272657    1.115240
     30          6           0       -3.800596   -3.444410    0.046437
     31          6           0       -3.225483   -2.206367   -0.144541
     32          6           0       -2.205810   -1.724778    0.722784
     33          6           0       -2.015507    1.831059   -0.256985
     34          6           0       -1.194188    2.718351   -0.931052
     35          6           0       -1.276234    4.109982   -0.707380
     36          6           0       -2.171791    4.615946    0.204880
     37          6           0       -3.050101    3.747523    0.906317
     38          6           0       -4.008026    4.255023    1.825493
     39          6           0       -4.891926    3.417731    2.465738
     40          6           0       -4.861151    2.027946    2.204115
     41          6           0       -3.937894    1.499448    1.329019
     42          6           0       -2.996957    2.333017    0.665990
     43          6           0        1.244342   -0.443566   -1.243601
     44          6           0        2.409169   -0.937287   -0.656339
     45          6           0        3.833026    1.836642    1.138992
     46          6           0        3.984445    3.222900    1.165474
     47          1           0        4.033180    5.042195    0.007380
     48          1           0        3.674189    3.872141   -2.158723
     49          1           0        3.449799    1.398945   -2.214235
     50          1           0        6.038211    0.056499    1.144094
     51          1           0        7.354490   -1.919929    1.861114
     52          1           0        6.498322   -4.217228    1.507522
     53          1           0        4.302219   -4.587117    0.407239
     54          1           0        1.823878   -4.300585   -0.856791
     55          1           0       -0.239899   -3.435885   -1.916306
     56          1           0       -0.363871   -1.981610   -4.164499
     57          1           0       -2.240493   -1.194298   -5.573899
     58          1           0       -3.896872    0.421431   -4.615785
     59          1           0       -3.686771    1.127258   -2.255685
     60          1           0       -0.200588    0.959572    1.414770
     61          1           0        0.391952   -0.448242    3.359972
     62          1           0       -0.601019   -2.708268    3.616891
     63          1           0       -2.110861   -4.446872    2.826616
     64          1           0       -3.842450   -5.250628    1.250800
     65          1           0       -4.581140   -3.783847   -0.629314
     66          1           0       -3.561658   -1.588364   -0.967374
     67          1           0       -0.475187    2.332805   -1.646645
     68          1           0       -0.609408    4.774137   -1.250372
     69          1           0       -2.229799    5.685142    0.392944
     70          1           0       -4.033352    5.327042    2.007167
     71          1           0       -5.620415    3.821153    3.163980
     72          1           0       -5.573974    1.371282    2.695519
     73          1           0       -3.931381    0.433890    1.134380
     74          1           0        1.081872    0.623191   -1.347436
     75          1           0        3.856681    1.259157    2.057926
     76          1           0        4.137996    3.726733    2.115848
 ---------------------------------------------------------------------

 SCF Done:  E(RB3LYP) =  -1804.29773945     A.U. after   16 cycles

 Excitation energies and oscillator strengths:

 Excited state symmetry could not be determined.
 Excited State   1:      Triplet-?Sym    2.4304 eV  510.13 nm  f=0.0000  <S**2>=2.000
     150 ->155        -0.13034
     151 ->156         0.23579
     152 ->156        -0.16440
     154 ->155         0.52303
     154 ->156        -0.24344
     154 ->157        -0.13622
 This state for optimization and/or second-order correction.
 Total Energy, E(TD-HF/TD-DFT) =  -1804.20842260
 Copying the excited state density for this state as the 1-particle RhoCI density.

 Excited state symmetry could not be determined.
 Excited State   2:      Triplet-?Sym    2.5337 eV  489.34 nm  f=0.0000  <S**2>=2.000
     150 ->156        -0.12188
     151 ->155         0.31307
     152 ->155        -0.17547
     154 ->155         0.20665
     154 ->156         0.49073

 Excited state symmetry could not be determined.
 Excited State   3:      Singlet-?Sym    3.2406 eV  382.59 nm  f=0.1314  <S**2>=0.000
     154 ->155         0.69834

 Excited state symmetry could not be determined.
 Excited State   4:      Singlet-?Sym    3.4705 eV  357.25 nm  f=0.0738  <S**2>=0.000
     154 ->156         0.67375
     154 ->157         0.15464

 Alpha  occ. eigenvalues --  -14.37903 -14.35788 -10.23887 -10.22732 -10.22641
 Alpha  occ. eigenvalues --  -10.22248 -10.22126 -10.22034 -10.20114 -10.20102
 Alpha  occ. eigenvalues --  -10.20001 -10.19988 -10.19869 -10.19593 -10.19548
 Alpha  occ. eigenvalues --  -10.19505 -10.19288 -10.19195 -10.19049 -10.18941
 Alpha  occ. eigenvalues --  -10.18758 -10.18735 -10.18685 -10.18674 -10.18638
 Alpha  occ. eigenvalues --  -10.18573 -10.18571 -10.18539 -10.18529 -10.18462
 Alpha  occ. eigenvalues --  -10.18452 -10.18427 -10.18400 -10.18377 -10.18353
 Alpha  occ. eigenvalues --  -10.18352 -10.18348 -10.18331 -10.18318 -10.18298
 Alpha  occ. eigenvalues --  -10.18237 -10.18069 -10.17869 -10.17869 -10.17803
 Alpha  occ. eigenvalues --  -10.17646  -0.98654  -0.95664  -0.86965  -0.86715
 Alpha  occ. eigenvalues --   -0.86148  -0.85024  -0.83818  -0.83481  -0.81575
 Alpha  occ. eigenvalues --   -0.80810  -0.78876  -0.76942  -0.76117  -0.75809
 Alpha  occ. eigenvalues --   -0.75640  -0.74497  -0.74299  -0.73803  -0.73493
 Alpha  occ. eigenvalues --   -0.73055  -0.71595  -0.71141  -0.70507  -0.68968
 Alpha  occ. eigenvalues --   -0.64563  -0.62809  -0.62564  -0.62108  -0.61622
 Alpha  occ. eigenvalues --   -0.61104  -0.60916  -0.60457  -0.59651  -0.59505
 Alpha  occ. eigenvalues --   -0.58881  -0.57246  -0.57027  -0.55969  -0.53628
 Alpha  occ. eigenvalues --   -0.52801  -0.52140  -0.51154  -0.50880  -0.50675
 Alpha  occ. eigenvalues --   -0.50068  -0.49230  -0.48971  -0.48533  -0.47998
 Alpha  occ. eigenvalues --   -0.46875  -0.46765  -0.46279  -0.45933  -0.45091
 Alpha  occ. eigenvalues --   -0.44812  -0.44395  -0.43636  -0.43368  -0.43179
 Alpha  occ. eigenvalues --   -0.43096  -0.42793  -0.42661  -0.42182  -0.41885
 Alpha  occ. eigenvalues --   -0.41717  -0.41327  -0.41217  -0.40994  -0.40697
 Alpha  occ. eigenvalues --   -0.39838  -0.39405  -0.38406  -0.38125  -0.37863
 Alpha  occ. eigenvalues --   -0.37464  -0.37386  -0.37280  -0.36694  -0.36388
 Alpha  occ. eigenvalues --   -0.35876  -0.35731  -0.35418  -0.34585  -0.34468
 Alpha  occ. eigenvalues --   -0.33861  -0.33566  -0.33441  -0.33217  -0.32870
 Alpha  occ. eigenvalues --   -0.32703  -0.32344  -0.32040  -0.31635  -0.29539
 Alpha  occ. eigenvalues --   -0.28413  -0.27527  -0.26410  -0.26112  -0.25917
 Alpha  occ. eigenvalues --   -0.24809  -0.24643  -0.23984  -0.23391  -0.22810
 Alpha  occ. eigenvalues --   -0.21185  -0.20134  -0.19423  -0.17935
 Alpha virt. eigenvalues --   -0.03873  -0.03089  -0.02834  -0.01572  -0.01179
 Alpha virt. eigenvalues --   -0.00893  -0.00239   0.00276   0.00666   0.01213
 Alpha virt. eigenvalues --    0.03329   0.03735   0.04804   0.05805   0.08512

 Mulliken charges:
               1
     1  C   -0.120614
     2  C   -0.143560
     3  C   -0.149318
     4  C    0.263532
     5  N   -0.741860
     6  C    0.314469
     7  C   -0.177959
     8  C   -0.141943
     9  C   -0.145419
    10  C   -0.197389
    11  C    0.056715
    12  C    0.072366
    13  C   -0.201790
    14  C   -0.177553
    15  C    0.054747
    16  C    0.033426
    17  C   -0.177273
    18  C   -0.131936
    19  C   -0.135115
    20  C   -0.162976
    21  C    0.224235
    22  N   -0.653630
    23  C    0.220114
    24  C   -0.172637
    25  C   -0.139757
    26  C   -0.184314
    27  C    0.128130
    28  C   -0.197564
    29  C   -0.132301
    30  C   -0.144024
    31  C   -0.192925
    32  C    0.112919
    33  C    0.188607
    34  C   -0.174531
    35  C   -0.144062
    36  C   -0.185554
    37  C    0.123049
    38  C   -0.197539
    39  C   -0.130424
    40  C   -0.142364
    41  C   -0.182505
    42  C    0.116243
    43  C   -0.209078
    44  C    0.319360
    45  C   -0.149198
    46  C   -0.141849
    47  H    0.134647
    48  H    0.137727
    49  H    0.152721
    50  H    0.138236
    51  H    0.125537
    52  H    0.122949
    53  H    0.129366
    54  H    0.130151
    55  H    0.132866
    56  H    0.136437
    57  H    0.127659
    58  H    0.130565
    59  H    0.144731
    60  H    0.142122
    61  H    0.127764
    62  H    0.124605
    63  H    0.127294
    64  H    0.126608
    65  H    0.127692
    66  H    0.152776
    67  H    0.144440
    68  H    0.129774
    69  H    0.126320
    70  H    0.127887
    71  H    0.128859
    72  H    0.131556
    73  H    0.154965
    74  H    0.144823
    75  H    0.151521
    76  H    0.138449
 Sum of Mulliken charges =  -0.00000

 Dipole moment (field-independent basis, Debye):
    X=              0.3777    Y=              1.7237    Z=              0.1155  Tot=              1.7684
 Quadrupole moment (field-independent basis, Debye-Ang):
   XX=           -253.2257   YY=           -237.2147   ZZ=           -250.5654
   XY=              7.7928   XZ=              4.8575   YZ=             -0.2654

 Normal termination of Gaussian 16 at Sat Nov  5 11:00:17 2022.
