 Gaussian 16, Revision B.01,
 Gaussian 16:  ES64L-G16RevB.01 20-Dec-2017

 -----------------------------
 #p b3lyp/6-31g(d) opt SCF=XQC
 -----------------------------

 ------------------------------
 Gaussian input prepared by ASE
 ------------------------------
 Symbolic Z-matrix:
 Charge =  0 Multiplicity = 1

 SCF Done:  E(RB3LYP) =  -1804.27496714     A.U. after   17 cycles
 SCF Done:  E(RB3LYP) =  -1804.28544580     A.U. after   16 cycles
 SCF Done:  E(RB3LYP) =  -1804.28958680     A.U. after   16 cycles
 SCF Done:  E(RB3LYP) =  -1804.29603494     A.U. after   16 cycles
 SCF Done:  E(RB3LYP) =  -1804.29724810     A.U. after   12 cycles
 SCF Done:  E(RB3LYP) =  -1804.29732301     A.U. after   12 cycles
 SCF Done:  E(RB3LYP) =  -1804.29766260     A.U. after   12 cycles
 SCF Done:  E(RB3LYP) =  -1804.29770576     A.U. after   11 cycles
 SCF Done:  E(RB3LYP) =  -1804.29772459     A.U. after   10 cycles
 SCF Done:  E(RB3LYP) =  -1804.29772875     A.U. after   10 cycles
 SCF Done:  E(RB3LYP) =  -1804.29773087     A.U. after   10 cycles
 SCF Done:  E(RB3LYP) =  -1804.29773229     A.U. after    9 cycles
 SCF Done:  E(RB3LYP) =  -1804.29773265     A.U. after    8 cycles
 SCF Done:  E(RB3LYP) =  -1804.29773264     A.U. after    6 cycles
 Optimization completed.
    -- Stationary point found.

                         Standard orientation:
 ---------------------------------------------------------------------
 Center     Atomic      Atomic             Coordinates (Angstroms)
 Number     Number       Type             X           Y           Z
 ---------------------------------------------------------------------
      1          6           0        2.663996    4.901505   -0.268135
      2          6           0        2.631567    4.153825   -1.446978
      3          6           0        2.880500    2.781836   -1.418237
      4          6           0        3.145403    2.144666   -0.199143
      5          7           0        3.391136    0.745618   -0.164608
      6          6           0        4.533366    0.127362    0.357380
      7          6           0        5.675491    0.702825    0.920863
      8          6           0        6.688862   -0.152516    1.349041
      9          6           0        6.575453   -1.547250    1.217240
     10          6           0        5.440914   -2.113926    0.643580
     11          6           0        4.407896   -1.277620    0.204226
     12          6           0        3.132499   -1.516659   -0.436485
     13          6           0        2.446433   -2.667946   -0.837247
     14          6           0        1.194440   -2.543406   -1.428188
     15          6           0        0.592469   -1.279517   -1.621132
     16          6           0       -0.718395   -1.187121   -2.329906
     17          6           0       -0.782992   -1.711200   -3.634722
     18          6           0       -1.921172   -1.601346   -4.426308
     19          6           0       -3.047447   -0.954461   -3.912060
     20          6           0       -3.026295   -0.464149   -2.612677
     21          6           0       -1.882297   -0.580282   -1.800093
     22          7           0       -1.987630   -0.100082   -0.458562
     23          6           0       -1.418605   -0.790555    0.653149
     24          6           0       -0.655259   -0.085473    1.567850
     25          6           0       -0.095643   -0.714033    2.699293
     26          6           0       -0.279275   -2.059360    2.911823
     27          6           0       -1.070445   -2.822128    2.013541
     28          6           0       -1.302876   -4.205492    2.240756
     29          6           0       -2.119932   -4.938423    1.411702
     30          6           0       -2.753483   -4.307511    0.316754
     31          6           0       -2.538682   -2.971123    0.056166
     32          6           0       -1.678947   -2.188426    0.876018
     33          6           0       -2.473079    1.232227   -0.267933
     34          6           0       -1.931267    2.273969   -1.001031
     35          6           0       -2.386079    3.600684   -0.838644
     36          6           0       -3.375473    3.890063    0.071080
     37          6           0       -3.976958    2.852387    0.832030
     38          6           0       -5.026710    3.126688    1.750092
     39          6           0       -5.642704    2.114358    2.448657
     40          6           0       -5.238143    0.773622    2.249520
     41          6           0       -4.215563    0.471949    1.377263
     42          6           0       -3.543921    1.495016    0.654740
     43          6           0        1.271406   -0.120365   -1.228801
     44          6           0        2.532898   -0.249907   -0.648009
     45          6           0        3.168529    2.892375    0.985179
     46          6           0        2.937692    4.267315    0.945259
     47          1           0        2.477444    5.971372   -0.294803
     48          1           0        2.426493    4.640857   -2.396478
     49          1           0        2.882263    2.199837   -2.334612
     50          1           0        5.774500    1.778987    1.017740
     51          1           0        7.586193    0.271690    1.791561
     52          1           0        7.382957   -2.186375    1.562986
     53          1           0        5.358266   -3.192158    0.533747
     54          1           0        2.881763   -3.651621   -0.681932
     55          1           0        0.649246   -3.432720   -1.729503
     56          1           0        0.110174   -2.180945   -4.037559
     57          1           0       -1.925016   -2.003242   -5.435559
     58          1           0       -3.947710   -0.850943   -4.511940
     59          1           0       -3.911730    0.002688   -2.191935
     60          1           0       -0.471529    0.970028    1.397370
     61          1           0        0.502513   -0.125285    3.389451
     62          1           0        0.164142   -2.554015    3.772192
     63          1           0       -0.824736   -4.674024    3.097964
     64          1           0       -2.289666   -5.994816    1.602266
     65          1           0       -3.419667   -4.879164   -0.323963
     66          1           0       -3.039123   -2.509358   -0.785456
     67          1           0       -1.142364    2.062351   -1.715546
     68          1           0       -1.930850    4.392628   -1.427025
     69          1           0       -3.719892    4.911559    0.211916
     70          1           0       -5.340517    4.159435    1.883633
     71          1           0       -6.445784    2.339720    3.145262
     72          1           0       -5.740231   -0.026169    2.787147
     73          1           0       -3.921758   -0.560333    1.230935
     74          1           0        0.823953    0.855859   -1.376855
     75          1           0        3.358268    2.389683    1.928466
     76          1           0        2.958829    4.840847    1.867891
 ---------------------------------------------------------------------

 The electronic state is 1-A.
 Alpha  occ. eigenvalues --  -14.37903 -14.35788 -10.23886 -10.22732 -10.22641
 Alpha  occ. eigenvalues --  -10.22248 -10.22126 -10.22034 -10.20114 -10.20102
 Alpha  occ. eigenvalues --  -10.20000 -10.19988 -10.19869 -10.19593 -10.19548
 Alpha  occ. eigenvalues --  -10.19505 -10.19288 -10.19195 -10.19049 -10.18941
 Alpha  occ. eigenvalues --  -10.18758 -10.18734 -10.18685 -10.18674 -10.18637
 Alpha  occ. eigenvalues --  -10.18573 -10.18571 -10.18539 -10.18529 -10.18462
 Alpha  occ. eigenvalues --  -10.18452 -10.18427 -10.18400 -10.18377 -10.18352
 Alpha  occ. eigenvalues --  -10.18352 -10.18347 -10.18331 -10.18319 -10.18298
 Alpha  occ. eigenvalues --  -10.18237 -10.18069 -10.17869 -10.17869 -10.17803
 Alpha  occ. eigenvalues --  -10.17646  -0.98654  -0.95664  -0.86965  -0.86715
 Alpha  occ. eigenvalues --   -0.86148  -0.85024  -0.83818  -0.83481  -0.81575
 Alpha  occ. eigenvalues --   -0.80811  -0.78876  -0.76942  -0.76117  -0.75809
 Alpha  occ. eigenvalues --   -0.75640  -0.74497  -0.74299  -0.73803  -0.73493
 Alpha  occ. eigenvalues --   -0.73055  -0.71595  -0.71141  -0.70507  -0.68968
 Alpha  occ. eigenvalues --   -0.64563  -0.62809  -0.62564  -0.62108  -0.61622
 Alpha  occ. eigenvalues --   -0.61104  -0.60916  -0.60457  -0.59651  -0.59505
 Alpha  occ. eigenvalues --   -0.58881  -0.57246  -0.57026  -0.55969  -0.53628
 Alpha  occ. eigenvalues --   -0.52801  -0.52140  -0.51154  -0.50880  -0.50675
 Alpha  occ. eigenvalues --   -0.50068  -0.49230  -0.48971  -0.48534  -0.47998
 Alpha  occ. eigenvalues --   -0.46875  -0.46765  -0.46279  -0.45933  -0.45091
 Alpha  occ. eigenvalues --   -0.44812  -0.44395  -0.43636  -0.43368  -0.43179
 Alpha  occ. eigenvalues --   -0.43096  -0.42792  -0.42661  -0.42182  -0.41885
 Alpha  occ. eigenvalues --   -0.41717  -0.41327  -0.41217  -0.40994  -0.40697
 Alpha  occ. eigenvalues --   -0.39838  -0.39405  -0.38406  -0.38125  -0.37863
 Alpha  occ. eigenvalues --   -0.37464  -0.37386  -0.37280  -0.36694  -0.36388
 Alpha  occ. eigenvalues --   -0.35876  -0.35731  -0.35418  -0.34585  -0.34468
 Alpha  occ. eigenvalues --   -0.33861  -0.33566  -0.33441  -0.33217  -0.32870
 Alpha  occ. eigenvalues --   -0.32703  -0.32344  -0.32040  -0.31635  -0.29539
 Alpha  occ. eigenvalues --   -0.28413  -0.27527  -0.26410  -0.26112  -0.25917
 Alpha  occ. eigenvalues --   -0.24809  -0.24643  -0.23984  -0.23391  -0.22810
 Alpha  occ. eigenvalues --   -0.21185  -0.20134  -0.19423  -0.17935
 Alpha virt. eigenvalues --   -0.03873  -0.03089  -0.02834  -0.01572  -0.01179
 Alpha virt. eigenvalues --   -0.00893  -0.00239   0.00276   0.00666   0.01213
 Alpha virt. eigenvalues --    0.03329   0.03736   0.04804   0.05805   0.08512

 Mulliken charges:
               1
     1  C   -0.120619
     2  C   -0.143549
     3  C   -0.149323
     4  C    0.263517
     5  N   -0.741868
     6  C    0.314471
     7  C   -0.177953
     8  C   -0.141944
     9  C   -0.145418
    10  C   -0.197390
    11  C    0.056711
    12  C    0.072331
    13  C   -0.201768
    14  C   -0.177578
    15  C    0.054777
    16  C    0.033427
    17  C   -0.177276
    18  C   -0.131932
    19  C   -0.135117
    20  C   -0.162978
    21  C    0.224233
    22  N   -0.653650
    23  C    0.220149
    24  C   -0.172645
    25  C   -0.139771
    26  C   -0.184296
    27  C    0.128130
    28  C   -0.197564
    29  C   -0.132314
    30  C   -0.144020
    31  C   -0.192918
    32  C    0.112904
    33  C    0.188604
    34  C   -0.174521
    35  C   -0.144062
    36  C   -0.185547
    37  C    0.123035
    38  C   -0.197536
    39  C   -0.130425
    40  C   -0.142365
    41  C   -0.182507
    42  C    0.116242
    43  C   -0.209078
    44  C    0.319387
    45  C   -0.149174
    46  C   -0.141855
    47  H    0.134647
    48  H    0.137727
    49  H    0.152721
    50  H    0.138234
    51  H    0.125537
    52  H    0.122949
    53  H    0.129366
    54  H    0.130150
    55  H    0.132867
    56  H    0.136437
    57  H    0.127659
    58  H    0.130566
    59  H    0.144730
    60  H    0.142120
    61  H    0.127767
    62  H    0.124604
    63  H    0.127294
    64  H    0.126611
    65  H    0.127694
    66  H    0.152778
    67  H    0.144438
    68  H    0.129777
    69  H    0.126320
    70  H    0.127887
    71  H    0.128858
    72  H    0.131556
    73  H    0.154969
    74  H    0.144820
    75  H    0.151511
    76  H    0.138449
 Sum of Mulliken charges =  -0.00000

 Dipole moment (field-independent basis, Debye):
    X=             -0.1038    Y=              1.7650    Z=              0.0284  Tot=              1.7683
 Quadrupole moment (field-independent basis, Debye-Ang):
   XX=           -256.0090   YY=           -234.1479   ZZ=           -250.7311
   XY=              2.6398   XZ=              4.6733   YZ=              0.2568

 1\1\GINC-NODE03\FOpt\RB3LYP\6-31G(d)\C44H30N2\WYKGROUP\05-Nov-2022\0\\
 #p b3lyp/6-31g(d) opt SCF=XQC\\Gaussian input prepared by ASE\\0,1\C,3
 .9221347905,3.9618362873,-0.0175394492\C,3.716694185,3.3052598491,-1.2
 326320462\C,3.5837578384,1.917425526,-1.2699350993\C,3.6366610889,1.17
 77575609,-0.0814733062\N,3.493173245,-0.2354798253,-0.1143789172\C,4.4
 122188574,-1.1639126161,0.3883832631\C,5.6536445695,-0.9466964416,0.99
 23702703\C,6.3867017507,-2.0637612992,1.3881699636\C,5.9027913641,-3.3
 676992013,1.1854563056\C,4.6712914656,-3.5780698061,0.5718283464\C,3.9

 Normal termination of Gaussian 16 at Sat Nov  5 02:23:05 2022.
