 Gaussian 16, Revision B.01,
 Gaussian 16:  ES64L-G16RevB.01 20-Dec-2017

 -------------------------------------------------------------------
 #p b3lyp/6-31g(d) 6D 10F nosymm GFInput td=(50-50,nstate=2) SCF=XQC
 -------------------------------------------------------------------

 ------------------------------
 Gaussian input prepared by ASE
 ------------------------------
 Symbolic Z-matrix:
 Charge =  0 Multiplicity = 1

                          Input orientation:
 ---------------------------------------------------------------------
 Center     Atomic      Atomic             Coordinates (Angstroms)
 Number     Number       Type             X           Y           Z
 ---------------------------------------------------------------------
      1          6           0        7.201236    2.476958    0.639195
      2          6           0        7.674109    1.228061    0.233265
      3          6           0        6.808900    0.136547    0.172528
      4          6           0        5.454245    0.273538    0.516340
      5          6           0        4.514118   -0.878488    0.464854
      6          6           0        4.961175   -2.208085    0.552964
      7          6           0        4.026314   -3.234911    0.477402
      8          6           0        2.676989   -2.924282    0.337677
      9          6           0        2.300041   -1.572396    0.296622
     10          6           0        0.876736   -1.154655    0.168859
     11          6           0       -0.180127   -1.998374    0.547125
     12          6           0       -1.505298   -1.588918    0.414946
     13          6           0       -1.801791   -0.323069   -0.099547
     14          7           0       -3.163558    0.097085   -0.236926
     15          6           0       -3.799926    0.801611    0.805059
     16          6           0       -3.156677    1.125806    2.004479
     17          6           0       -3.829430    1.824572    3.012147
     18          6           0       -5.154372    2.210407    2.837669
     19          6           0       -5.808734    1.891924    1.643268
     20          6           0       -5.141264    1.197990    0.644687
     21          8           0       -5.855780    0.915303   -0.503580
     22          6           0       -5.215400    0.245964   -1.528531
     23          6           0       -5.955591    0.000900   -2.675831
     24          6           0       -5.377725   -0.673754   -3.756190
     25          6           0       -4.054657   -1.093792   -3.667829
     26          6           0       -3.308590   -0.845544   -2.511094
     27          6           0       -3.875669   -0.173649   -1.422742
     28          6           0       -0.756657    0.529419   -0.473008
     29          6           0        0.566127    0.118787   -0.336262
     30          7           0        3.208529   -0.585133    0.349537
     31          6           0        4.988221    1.538008    0.912243
     32          6           0        5.853994    2.626990    0.976475
     33          1           0        7.876017    3.327394    0.687950
     34          1           0        8.717240    1.103338   -0.044909
     35          1           0        7.189179   -0.820636   -0.172212
     36          1           0        6.012689   -2.431975    0.693879
     37          1           0        4.346792   -4.272142    0.527748
     38          1           0        1.938218   -3.712764    0.246457
     39          1           0        0.026618   -2.974672    0.974765
     40          1           0       -2.317964   -2.242680    0.717271
     41          1           0       -2.124079    0.829308    2.149301
     42          1           0       -3.303331    2.061776    3.932356
     43          1           0       -5.682929    2.753260    3.615338
     44          1           0       -6.842257    2.173403    1.466838
     45          1           0       -6.984372    0.346371   -2.703824
     46          1           0       -5.963028   -0.862724   -4.650918
     47          1           0       -3.586806   -1.618039   -4.496167
     48          1           0       -2.277535   -1.175021   -2.451733
     49          1           0       -0.991300    1.511922   -0.872071
     50          1           0        1.379920    0.776223   -0.620790
     51          1           0        3.940612    1.646811    1.170463
     52          1           0        5.476822    3.596028    1.292696
 ---------------------------------------------------------------------

 SCF Done:  E(RB3LYP) =  -1301.86966488     A.U. after   16 cycles

 Excitation energies and oscillator strengths:

 Excited state symmetry could not be determined.
 Excited State   1:      Triplet-?Sym    2.6055 eV  475.86 nm  f=0.0000  <S**2>=2.000
     108 ->109         0.69682
 This state for optimization and/or second-order correction.
 Total Energy, E(TD-HF/TD-DFT) =  -1301.77391616
 Copying the excited state density for this state as the 1-particle RhoCI density.

 Excited state symmetry could not be determined.
 Excited State   2:      Singlet-?Sym    2.6146 eV  474.19 nm  f=0.0003  <S**2>=0.000
     108 ->109         0.69757

 Excited state symmetry could not be determined.
 Excited State   3:      Triplet-?Sym    2.8025 eV  442.41 nm  f=0.0000  <S**2>=2.000
     103 ->118        -0.12138
     107 ->115         0.11875
     108 ->110        -0.11230
     108 ->111        -0.39932
     108 ->112         0.42156
     108 ->113        -0.30944

 Excited state symmetry could not be determined.
 Excited State   4:      Singlet-?Sym    3.0091 eV  412.03 nm  f=0.0000  <S**2>=0.000
     108 ->110         0.69959

 Alpha  occ. eigenvalues --  -19.18700 -14.37110 -14.33224 -10.24500 -10.24490
 Alpha  occ. eigenvalues --  -10.23952 -10.23812 -10.23507 -10.23315 -10.23303
 Alpha  occ. eigenvalues --  -10.21446 -10.20909 -10.20421 -10.20360 -10.20336
 Alpha  occ. eigenvalues --  -10.20197 -10.20027 -10.20010 -10.19682 -10.19478
 Alpha  occ. eigenvalues --  -10.19350 -10.19291 -10.19117 -10.18825 -10.18383
 Alpha  occ. eigenvalues --  -10.18359 -10.18292 -10.18280 -10.18192 -10.18170
 Alpha  occ. eigenvalues --  -10.18049 -10.18033  -1.07961  -0.96843  -0.95143
 Alpha  occ. eigenvalues --   -0.86606  -0.85963  -0.85514  -0.83020  -0.80917
 Alpha  occ. eigenvalues --   -0.79839  -0.76186  -0.76035  -0.75663  -0.75238
 Alpha  occ. eigenvalues --   -0.74581  -0.73161  -0.72623  -0.69996  -0.65563
 Alpha  occ. eigenvalues --   -0.64902  -0.64007  -0.62742  -0.61726  -0.60177
 Alpha  occ. eigenvalues --   -0.59502  -0.58988  -0.58052  -0.56471  -0.55896
 Alpha  occ. eigenvalues --   -0.54200  -0.52852  -0.50684  -0.49761  -0.49332
 Alpha  occ. eigenvalues --   -0.49210  -0.47837  -0.46831  -0.46240  -0.46232
 Alpha  occ. eigenvalues --   -0.46078  -0.44476  -0.44258  -0.44028  -0.43422
 Alpha  occ. eigenvalues --   -0.42978  -0.42903  -0.42774  -0.42638  -0.42148
 Alpha  occ. eigenvalues --   -0.41322  -0.41081  -0.39117  -0.38207  -0.37671
 Alpha  occ. eigenvalues --   -0.37406  -0.37082  -0.36964  -0.36561  -0.36258
 Alpha  occ. eigenvalues --   -0.35227  -0.35186  -0.34919  -0.34771  -0.34264
 Alpha  occ. eigenvalues --   -0.32718  -0.31152  -0.29874  -0.29613  -0.26538
 Alpha  occ. eigenvalues --   -0.26047  -0.25231  -0.25053  -0.24979  -0.24879
 Alpha  occ. eigenvalues --   -0.22756  -0.22198  -0.16849
 Alpha virt. eigenvalues --   -0.05159  -0.04567  -0.01556  -0.00294  -0.00246
 Alpha virt. eigenvalues --    0.00793   0.00996   0.01107   0.03506   0.04409
 Alpha virt. eigenvalues --    0.08469   0.08955   0.09730   0.10236   0.10842

 Mulliken charges:
               1
     1  C   -0.122514
     2  C   -0.137059
     3  C   -0.178121
     4  C    0.098822
     5  C    0.257316
     6  C   -0.171463
     7  C   -0.103829
     8  C   -0.172603
     9  C    0.256811
    10  C    0.113381
    11  C   -0.196480
    12  C   -0.133059
    13  C    0.204662
    14  N   -0.725333
    15  C    0.344355
    16  C   -0.202747
    17  C   -0.137008
    18  C   -0.136534
    19  C   -0.205015
    20  C    0.321514
    21  O   -0.583639
    22  C    0.321671
    23  C   -0.205019
    24  C   -0.136564
    25  C   -0.136932
    26  C   -0.202339
    27  C    0.344603
    28  C   -0.130838
    29  C   -0.177765
    30  N   -0.563064
    31  C   -0.159184
    32  C   -0.134906
    33  H    0.131769
    34  H    0.131283
    35  H    0.129420
    36  H    0.143750
    37  H    0.144194
    38  H    0.142643
    39  H    0.137823
    40  H    0.148715
    41  H    0.145814
    42  H    0.126718
    43  H    0.126585
    44  H    0.140629
    45  H    0.140686
    46  H    0.126555
    47  H    0.126244
    48  H    0.144291
    49  H    0.149932
    50  H    0.164566
    51  H    0.154352
    52  H    0.132913
 Sum of Mulliken charges =  -0.00000

 Dipole moment (field-independent basis, Debye):
    X=              3.3320    Y=             -1.9751    Z=              0.3557  Tot=              3.8897
 Quadrupole moment (field-independent basis, Debye-Ang):
   XX=           -171.1912   YY=           -167.1602   ZZ=           -180.0781
   XY=             -4.2704   XZ=             -0.2536   YZ=              2.5723

 Normal termination of Gaussian 16 at Sat Nov  5 10:53:42 2022.
