 Gaussian 16, Revision B.01,
 Gaussian 16:  ES64L-G16RevB.01 20-Dec-2017

 -----------------------------
 #p b3lyp/6-31g(d) opt SCF=XQC
 -----------------------------

 ------------------------------
 Gaussian input prepared by ASE
 ------------------------------
 Symbolic Z-matrix:
 Charge =  0 Multiplicity = 1

 SCF Done:  E(RB3LYP) =  -1778.85473677     A.U. after   15 cycles
 SCF Done:  E(RB3LYP) =  -1778.86253009     A.U. after   12 cycles
 SCF Done:  E(RB3LYP) =  -1778.86288247     A.U. after   11 cycles
 SCF Done:  E(RB3LYP) =  -1778.86294367     A.U. after   11 cycles
 SCF Done:  E(RB3LYP) =  -1778.86295542     A.U. after   10 cycles
 SCF Done:  E(RB3LYP) =  -1778.86295873     A.U. after    9 cycles
 SCF Done:  E(RB3LYP) =  -1778.86295953     A.U. after    9 cycles
 SCF Done:  E(RB3LYP) =  -1778.86295959     A.U. after    6 cycles
 SCF Done:  E(RB3LYP) =  -1778.86295960     A.U. after    6 cycles
 Optimization completed.
    -- Stationary point found.

                         Standard orientation:
 ---------------------------------------------------------------------
 Center     Atomic      Atomic             Coordinates (Angstroms)
 Number     Number       Type             X           Y           Z
 ---------------------------------------------------------------------
      1          6           0        7.427882   -3.351420    2.943522
      2          6           0        8.020768   -2.490799    2.017909
      3          6           0        7.235100   -1.607210    1.280012
      4          6           0        5.841967   -1.571923    1.452750
      5          6           0        4.983571   -0.634915    0.682586
      6          6           0        5.483652    0.541453    0.111683
      7          6           0        4.595261    1.359507   -0.596410
      8          6           0        5.023869    2.629149   -1.238495
      9          6           0        4.269372    3.162680   -2.295923
     10          6           0        4.660093    4.344405   -2.920566
     11          6           0        5.805041    5.020785   -2.493083
     12          6           0        6.555879    4.506807   -1.434302
     13          6           0        6.169956    3.320246   -0.813318
     14          7           0        3.304461    1.011700   -0.731877
     15          6           0        2.902437   -0.124854   -0.143707
     16          6           0        1.470006   -0.494606   -0.285228
     17          6           0        0.568265    0.366459   -0.929354
     18          6           0       -0.771419    0.020245   -1.068872
     19          6           0       -1.243327   -1.194341   -0.551731
     20          7           0       -2.610443   -1.547534   -0.686007
     21          6           0       -3.098705   -2.739170   -1.233712
     22          6           0       -2.399495   -3.812312   -1.793576
     23          6           0       -3.141409   -4.879414   -2.295835
     24          6           0       -4.546281   -4.882590   -2.250898
     25          6           0       -5.237773   -3.804913   -1.706264
     26          6           0       -4.516190   -2.719526   -1.195121
     27          6           0       -4.906724   -1.462789   -0.594908
     28          6           0       -6.156263   -0.908411   -0.288276
     29          6           0       -6.136108    0.333622    0.318084
     30          8           0       -7.259370    1.043211    0.696591
     31          6           0       -6.799443    2.207273    1.265540
     32          6           0       -7.603893    3.211950    1.784596
     33          6           0       -6.952981    4.323932    2.323391
     34          6           0       -5.551200    4.413993    2.335712
     35          6           0       -4.761303    3.393257    1.808704
     36          6           0       -5.392191    2.269176    1.263326
     37          6           0       -4.948943    1.036461    0.638272
     38          6           0       -3.700272    0.487078    0.335095
     39          6           0       -3.702687   -0.758481   -0.292195
     40          6           0       -0.350517   -2.057070    0.099120
     41          6           0        0.991032   -1.711943    0.222726
     42          7           0        3.684349   -0.955657    0.561736
     43          6           0        5.255578   -2.451377    2.377280
     44          6           0        6.042361   -3.328591    3.119419
     45          1           0        8.041118   -4.038384    3.520473
     46          1           0        9.096253   -2.511437    1.864261
     47          1           0        7.710295   -0.963250    0.545971
     48          1           0        6.526599    0.810700    0.214874
     49          1           0        3.380337    2.632605   -2.618958
     50          1           0        4.070002    4.738945   -3.743391
     51          1           0        6.107712    5.944619   -2.978644
     52          1           0        7.440071    5.033555   -1.085817
     53          1           0        6.751142    2.948791    0.025458
     54          1           0        0.935441    1.305098   -1.328191
     55          1           0       -1.456590    0.680640   -1.591017
     56          1           0       -1.315884   -3.814244   -1.842960
     57          1           0       -2.618545   -5.725150   -2.734199
     58          1           0       -5.094574   -5.731363   -2.649375
     59          1           0       -6.324443   -3.802097   -1.681895
     60          1           0       -7.088137   -1.420197   -0.504483
     61          1           0       -8.685537    3.128605    1.768463
     62          1           0       -7.544610    5.133870    2.740787
     63          1           0       -5.077016    5.292989    2.762932
     64          1           0       -3.677492    3.469918    1.822147
     65          1           0       -2.777989    1.001500    0.581717
     66          1           0       -0.717564   -2.989092    0.517167
     67          1           0        1.683378   -2.377623    0.725148
     68          1           0        4.179042   -2.428907    2.504818
     69          1           0        5.573587   -3.996279    3.837300
 ---------------------------------------------------------------------

 The electronic state is 1-A.
 Alpha  occ. eigenvalues --  -19.20018 -14.38182 -14.33419 -14.33417 -10.26509
 Alpha  occ. eigenvalues --  -10.24987 -10.24987 -10.24224 -10.23998 -10.23993
 Alpha  occ. eigenvalues --  -10.22646 -10.22426 -10.20679 -10.20676 -10.20416
 Alpha  occ. eigenvalues --  -10.20155 -10.20153 -10.20093 -10.19990 -10.19988
 Alpha  occ. eigenvalues --  -10.19880 -10.19878 -10.19733 -10.19724 -10.19702
 Alpha  occ. eigenvalues --  -10.19700 -10.19680 -10.19552 -10.19544 -10.19524
 Alpha  occ. eigenvalues --  -10.19521 -10.19458 -10.19408 -10.19393 -10.19315
 Alpha  occ. eigenvalues --  -10.19278 -10.19177 -10.19104 -10.18814 -10.18758
 Alpha  occ. eigenvalues --  -10.18730 -10.18672 -10.18636 -10.18081  -1.09583
 Alpha  occ. eigenvalues --   -0.98918  -0.98834  -0.89932  -0.87257  -0.86405
 Alpha  occ. eigenvalues --   -0.85626  -0.85500  -0.84706  -0.84176  -0.81263
 Alpha  occ. eigenvalues --   -0.79269  -0.76731  -0.76595  -0.75891  -0.75356
 Alpha  occ. eigenvalues --   -0.75235  -0.75120  -0.75013  -0.74158  -0.73758
 Alpha  occ. eigenvalues --   -0.71658  -0.70759  -0.67138  -0.66651  -0.65297
 Alpha  occ. eigenvalues --   -0.62953  -0.62308  -0.61471  -0.61214  -0.60811
 Alpha  occ. eigenvalues --   -0.60509  -0.59465  -0.58329  -0.58157  -0.57310
 Alpha  occ. eigenvalues --   -0.57163  -0.54450  -0.53650  -0.53365  -0.52464
 Alpha  occ. eigenvalues --   -0.51439  -0.51293  -0.50179  -0.49474  -0.47808
 Alpha  occ. eigenvalues --   -0.47567  -0.47314  -0.46691  -0.46661  -0.45996
 Alpha  occ. eigenvalues --   -0.45462  -0.45126  -0.45002  -0.44891  -0.44850
 Alpha  occ. eigenvalues --   -0.43937  -0.43737  -0.43412  -0.43239  -0.42850
 Alpha  occ. eigenvalues --   -0.42626  -0.42574  -0.42239  -0.41840  -0.41740
 Alpha  occ. eigenvalues --   -0.41536  -0.41306  -0.40308  -0.38953  -0.38206
 Alpha  occ. eigenvalues --   -0.37960  -0.37745  -0.37044  -0.36602  -0.36039
 Alpha  occ. eigenvalues --   -0.35770  -0.35505  -0.35221  -0.35169  -0.35152
 Alpha  occ. eigenvalues --   -0.34929  -0.34646  -0.34406  -0.33746  -0.33147
 Alpha  occ. eigenvalues --   -0.32456  -0.32323  -0.30528  -0.30174  -0.29191
 Alpha  occ. eigenvalues --   -0.25984  -0.25951  -0.25830  -0.25562  -0.25340
 Alpha  occ. eigenvalues --   -0.25003  -0.24996  -0.24839  -0.23767  -0.22897
 Alpha  occ. eigenvalues --   -0.20081  -0.19117
 Alpha virt. eigenvalues --   -0.06505  -0.05855  -0.04274  -0.01925  -0.00761
 Alpha virt. eigenvalues --   -0.00747  -0.00690   0.00466   0.00799   0.02113
 Alpha virt. eigenvalues --    0.02528   0.03157   0.04427   0.06195   0.08255

 Mulliken charges:
               1
     1  C   -0.119513
     2  C   -0.138897
     3  C   -0.172856
     4  C    0.092554
     5  C    0.276621
     6  C   -0.217785
     7  C    0.276546
     8  C    0.092543
     9  C   -0.154813
    10  C   -0.136408
    11  C   -0.119525
    12  C   -0.138925
    13  C   -0.172838
    14  N   -0.556984
    15  C    0.446688
    16  C    0.087565
    17  C   -0.180175
    18  C   -0.165153
    19  C    0.287042
    20  N   -0.748045
    21  C    0.316927
    22  C   -0.176571
    23  C   -0.141374
    24  C   -0.144935
    25  C   -0.195197
    26  C    0.050150
    27  C    0.063945
    28  C   -0.283838
    29  C    0.314932
    30  O   -0.560342
    31  C    0.322553
    32  C   -0.202535
    33  C   -0.136661
    34  C   -0.145571
    35  C   -0.191545
    36  C    0.073858
    37  C    0.090765
    38  C   -0.253015
    39  C    0.308871
    40  C   -0.164325
    41  C   -0.179882
    42  N   -0.556932
    43  C   -0.154762
    44  C   -0.136376
    45  H    0.135257
    46  H    0.134739
    47  H    0.134897
    48  H    0.149198
    49  H    0.158836
    50  H    0.136347
    51  H    0.135282
    52  H    0.134744
    53  H    0.134886
    54  H    0.163368
    55  H    0.152298
    56  H    0.142755
    57  H    0.128030
    58  H    0.124979
    59  H    0.130446
    60  H    0.147331
    61  H    0.144814
    62  H    0.131708
    63  H    0.128672
    64  H    0.134528
    65  H    0.150152
    66  H    0.152327
    67  H    0.163509
    68  H    0.158839
    69  H    0.136278
 Sum of Mulliken charges =  -0.00000

 Dipole moment (field-independent basis, Debye):
    X=              4.4763    Y=              0.8901    Z=              0.3308  Tot=              4.5759
 Quadrupole moment (field-independent basis, Debye-Ang):
   XX=           -218.4708   YY=           -226.3788   ZZ=           -245.6390
   XY=              2.5759   XZ=              3.7551   YZ=             -4.2769

 Normal termination of Gaussian 16 at Sat Nov  5 01:28:31 2022.
