 Gaussian 16, Revision B.01,
 Gaussian 16:  ES64L-G16RevB.01 20-Dec-2017

 -------------------------------------------------------------------
 #p b3lyp/6-31g(d) 6D 10F nosymm GFInput td=(50-50,nstate=2) SCF=XQC
 -------------------------------------------------------------------

 ------------------------------
 Gaussian input prepared by ASE
 ------------------------------
 Symbolic Z-matrix:
 Charge =  0 Multiplicity = 1

                          Input orientation:
 ---------------------------------------------------------------------
 Center     Atomic      Atomic             Coordinates (Angstroms)
 Number     Number       Type             X           Y           Z
 ---------------------------------------------------------------------
      1          6           0       -6.941693    4.605282    1.438471
      2          6           0       -7.597550    3.401908    1.172604
      3          6           0       -6.862880    2.241842    0.933852
      4          6           0       -5.458984    2.266409    0.953306
      5          6           0       -4.653554    1.042054    0.707912
      6          6           0       -5.170591   -0.244960    0.897963
      7          6           0       -4.332889   -1.336344    0.639152
      8          6           0       -4.783085   -2.741980    0.810855
      9          6           0       -4.123485   -3.772333    0.121380
     10          6           0       -4.537105   -5.095093    0.257546
     11          6           0       -5.609676   -5.414241    1.093531
     12          6           0       -6.264860   -4.399878    1.794066
     13          6           0       -5.856542   -3.074814    1.652767
     14          7           0       -3.074740   -1.146170    0.207435
     15          6           0       -2.652130    0.118701    0.063120
     16          6           0       -1.254503    0.320611   -0.399992
     17          6           0       -0.395588   -0.773936   -0.583571
     18          6           0        0.910801   -0.588531   -1.022949
     19          6           0        1.393087    0.703344   -1.275558
     20          7           0        2.727057    0.896721   -1.717044
     21          6           0        3.117603    1.607356   -2.857591
     22          6           0        2.330157    2.242062   -3.822502
     23          6           0        2.981606    2.864229   -4.885484
     24          6           0        4.382862    2.853789   -4.995328
     25          6           0        5.161228    2.207405   -4.040074
     26          6           0        4.531498    1.573857   -2.962080
     27          6           0        5.022173    0.812570   -1.834320
     28          6           0        6.313950    0.470577   -1.413536
     29          6           0        6.396450   -0.264215   -0.245633
     30          8           0        7.575094   -0.696843    0.330677
     31          6           0        7.213988   -1.373602    1.471675
     32          6           0        8.099661   -1.974426    2.355150
     33          6           0        7.543888   -2.617838    3.463134
     34          6           0        6.154394   -2.651094    3.666730
     35          6           0        5.281852   -2.041204    2.766573
     36          6           0        5.816648   -1.390460    1.648744
     37          6           0        5.271812   -0.661289    0.518164
     38          6           0        3.981415   -0.321741    0.102836
     39          6           0        3.879024    0.405479   -1.082737
     40          6           0        0.543685    1.802615   -1.088112
     41          6           0       -0.766220    1.609794   -0.662536
     42          7           0       -3.384655    1.216726    0.301907
     43          6           0       -4.810315    3.485379    1.209015
     44          6           0       -5.545452    4.642295    1.454819
     45          1           0       -7.514934    5.508979    1.627091
     46          1           0       -8.683201    3.366636    1.143942
     47          1           0       -7.389244    1.320394    0.703232
     48          1           0       -6.188181   -0.391918    1.235296
     49          1           0       -3.289899   -3.515686   -0.522812
     50          1           0       -4.021549   -5.879414   -0.290134
     51          1           0       -5.929982   -6.446947    1.202024
     52          1           0       -7.091140   -4.640411    2.457472
     53          1           0       -6.360861   -2.301926    2.225137
     54          1           0       -0.770687   -1.771811   -0.387410
     55          1           0        1.560291   -1.442657   -1.186810
     56          1           0        1.247688    2.246076   -3.752505
     57          1           0        2.389333    3.365207   -5.646440
     58          1           0        4.859544    3.350294   -5.835615
     59          1           0        6.244213    2.189374   -4.131026
     60          1           0        7.201634    0.766880   -1.962426
     61          1           0        9.170695   -1.940491    2.185165
     62          1           0        8.201217   -3.101265    4.180393
     63          1           0        5.755317   -3.160061    4.539479
     64          1           0        4.208171   -2.070822    2.930993
     65          1           0        3.106458   -0.604501    0.677776
     66          1           0        0.920834    2.804999   -1.264568
     67          1           0       -1.425029    2.458201   -0.517352
     68          1           0       -3.726226    3.505304    1.216506
     69          1           0       -5.027897    5.575547    1.659975
 ---------------------------------------------------------------------

 SCF Done:  E(RB3LYP) =  -1778.86296042     A.U. after   15 cycles

 Excitation energies and oscillator strengths:

 Excited state symmetry could not be determined.
 Excited State   1:      Triplet-?Sym    2.7566 eV  449.78 nm  f=0.0000  <S**2>=2.000
     143 ->148         0.13686
     144 ->149         0.25258
     145 ->149         0.16950
     146 ->150        -0.20225
     147 ->149         0.51353
     147 ->150         0.10963
     147 ->151         0.11284
 This state for optimization and/or second-order correction.
 Total Energy, E(TD-HF/TD-DFT) =  -1778.76165830
 Copying the excited state density for this state as the 1-particle RhoCI density.

 Excited state symmetry could not be determined.
 Excited State   2:      Triplet-?Sym    2.7853 eV  445.13 nm  f=0.0000  <S**2>=2.000
     146 ->150         0.59015
     147 ->149         0.18139
     147 ->150        -0.15388
     147 ->156        -0.13474

 Excited state symmetry could not be determined.
 Excited State   3:      Singlet-?Sym    3.0877 eV  401.54 nm  f=0.0015  <S**2>=0.000
     147 ->148         0.70404

 Excited state symmetry could not be determined.
 Excited State   4:      Singlet-?Sym    3.1670 eV  391.49 nm  f=0.2782  <S**2>=0.000
     147 ->149         0.69932

 Alpha  occ. eigenvalues --  -19.20018 -14.38182 -14.33419 -14.33417 -10.26509
 Alpha  occ. eigenvalues --  -10.24987 -10.24987 -10.24224 -10.23998 -10.23993
 Alpha  occ. eigenvalues --  -10.22646 -10.22426 -10.20679 -10.20676 -10.20416
 Alpha  occ. eigenvalues --  -10.20155 -10.20153 -10.20093 -10.19990 -10.19988
 Alpha  occ. eigenvalues --  -10.19880 -10.19878 -10.19733 -10.19724 -10.19702
 Alpha  occ. eigenvalues --  -10.19700 -10.19680 -10.19552 -10.19544 -10.19524
 Alpha  occ. eigenvalues --  -10.19521 -10.19458 -10.19408 -10.19393 -10.19315
 Alpha  occ. eigenvalues --  -10.19278 -10.19177 -10.19104 -10.18814 -10.18758
 Alpha  occ. eigenvalues --  -10.18730 -10.18672 -10.18636 -10.18081  -1.09583
 Alpha  occ. eigenvalues --   -0.98918  -0.98834  -0.89932  -0.87257  -0.86405
 Alpha  occ. eigenvalues --   -0.85626  -0.85500  -0.84706  -0.84176  -0.81263
 Alpha  occ. eigenvalues --   -0.79269  -0.76731  -0.76595  -0.75891  -0.75356
 Alpha  occ. eigenvalues --   -0.75235  -0.75120  -0.75013  -0.74158  -0.73758
 Alpha  occ. eigenvalues --   -0.71658  -0.70759  -0.67138  -0.66651  -0.65297
 Alpha  occ. eigenvalues --   -0.62953  -0.62308  -0.61471  -0.61214  -0.60811
 Alpha  occ. eigenvalues --   -0.60509  -0.59465  -0.58329  -0.58157  -0.57310
 Alpha  occ. eigenvalues --   -0.57163  -0.54450  -0.53650  -0.53365  -0.52464
 Alpha  occ. eigenvalues --   -0.51439  -0.51293  -0.50179  -0.49474  -0.47808
 Alpha  occ. eigenvalues --   -0.47567  -0.47314  -0.46691  -0.46661  -0.45996
 Alpha  occ. eigenvalues --   -0.45462  -0.45126  -0.45002  -0.44891  -0.44850
 Alpha  occ. eigenvalues --   -0.43937  -0.43737  -0.43412  -0.43239  -0.42850
 Alpha  occ. eigenvalues --   -0.42626  -0.42574  -0.42239  -0.41840  -0.41740
 Alpha  occ. eigenvalues --   -0.41536  -0.41306  -0.40308  -0.38953  -0.38206
 Alpha  occ. eigenvalues --   -0.37960  -0.37745  -0.37044  -0.36602  -0.36039
 Alpha  occ. eigenvalues --   -0.35770  -0.35505  -0.35221  -0.35169  -0.35152
 Alpha  occ. eigenvalues --   -0.34929  -0.34646  -0.34406  -0.33746  -0.33147
 Alpha  occ. eigenvalues --   -0.32456  -0.32323  -0.30528  -0.30174  -0.29191
 Alpha  occ. eigenvalues --   -0.25984  -0.25951  -0.25830  -0.25562  -0.25340
 Alpha  occ. eigenvalues --   -0.25003  -0.24996  -0.24839  -0.23767  -0.22897
 Alpha  occ. eigenvalues --   -0.20081  -0.19117
 Alpha virt. eigenvalues --   -0.06505  -0.05855  -0.04274  -0.01925  -0.00761
 Alpha virt. eigenvalues --   -0.00747  -0.00690   0.00466   0.00799   0.02113
 Alpha virt. eigenvalues --    0.02528   0.03157   0.04427   0.06195   0.08255

 Mulliken charges:
               1
     1  C   -0.119508
     2  C   -0.138914
     3  C   -0.172840
     4  C    0.092540
     5  C    0.276636
     6  C   -0.217789
     7  C    0.276548
     8  C    0.092547
     9  C   -0.154828
    10  C   -0.136401
    11  C   -0.119525
    12  C   -0.138923
    13  C   -0.172843
    14  N   -0.556988
    15  C    0.446701
    16  C    0.087568
    17  C   -0.180176
    18  C   -0.165152
    19  C    0.287027
    20  N   -0.748033
    21  C    0.316928
    22  C   -0.176573
    23  C   -0.141377
    24  C   -0.144931
    25  C   -0.195200
    26  C    0.050146
    27  C    0.063945
    28  C   -0.283836
    29  C    0.314928
    30  O   -0.560343
    31  C    0.322560
    32  C   -0.202538
    33  C   -0.136663
    34  C   -0.145566
    35  C   -0.191549
    36  C    0.073855
    37  C    0.090766
    38  C   -0.253000
    39  C    0.308868
    40  C   -0.164327
    41  C   -0.179890
    42  N   -0.556936
    43  C   -0.154760
    44  C   -0.136374
    45  H    0.135257
    46  H    0.134741
    47  H    0.134897
    48  H    0.149197
    49  H    0.158836
    50  H    0.136346
    51  H    0.135281
    52  H    0.134744
    53  H    0.134885
    54  H    0.163369
    55  H    0.152298
    56  H    0.142757
    57  H    0.128030
    58  H    0.124979
    59  H    0.130447
    60  H    0.147330
    61  H    0.144814
    62  H    0.131708
    63  H    0.128671
    64  H    0.134527
    65  H    0.150149
    66  H    0.152327
    67  H    0.163510
    68  H    0.158839
    69  H    0.136278
 Sum of Mulliken charges =  -0.00000

 Dipole moment (field-independent basis, Debye):
    X=             -4.3876    Y=             -0.4643    Z=              1.2134  Tot=              4.5759
 Quadrupole moment (field-independent basis, Debye-Ang):
   XX=           -221.9357   YY=           -227.9177   ZZ=           -242.9865
   XY=             -0.8972   XZ=             -6.7423   YZ=             -6.5306

 Normal termination of Gaussian 16 at Sat Nov  5 10:53:33 2022.
