 Gaussian 16, Revision B.01,
 Gaussian 16:  ES64L-G16RevB.01 20-Dec-2017

 -----------------------------
 #p b3lyp/6-31g(d) opt SCF=XQC
 -----------------------------

 ------------------------------
 Gaussian input prepared by ASE
 ------------------------------
 Symbolic Z-matrix:
 Charge =  0 Multiplicity = 1

 SCF Done:  E(RB3LYP) =  -1301.86297090     A.U. after   16 cycles
 SCF Done:  E(RB3LYP) =  -1301.86879046     A.U. after   12 cycles
 SCF Done:  E(RB3LYP) =  -1301.86922604     A.U. after   12 cycles
 SCF Done:  E(RB3LYP) =  -1301.86942077     A.U. after   11 cycles
 SCF Done:  E(RB3LYP) =  -1301.86953114     A.U. after   12 cycles
 SCF Done:  E(RB3LYP) =  -1301.86961892     A.U. after   12 cycles
 SCF Done:  E(RB3LYP) =  -1301.86965387     A.U. after   12 cycles
 SCF Done:  E(RB3LYP) =  -1301.86966190     A.U. after   11 cycles
 SCF Done:  E(RB3LYP) =  -1301.86966340     A.U. after    9 cycles
 SCF Done:  E(RB3LYP) =  -1301.86966352     A.U. after    8 cycles
 SCF Done:  E(RB3LYP) =  -1301.86966352     A.U. after    6 cycles
 SCF Done:  E(RB3LYP) =  -1301.86966355     A.U. after    7 cycles
 SCF Done:  E(RB3LYP) =  -1301.86966359     A.U. after    7 cycles
 SCF Done:  E(RB3LYP) =  -1301.86966363     A.U. after    7 cycles
 SCF Done:  E(RB3LYP) =  -1301.86966366     A.U. after    7 cycles
 SCF Done:  E(RB3LYP) =  -1301.86966368     A.U. after    7 cycles
 SCF Done:  E(RB3LYP) =  -1301.86966369     A.U. after    7 cycles
 SCF Done:  E(RB3LYP) =  -1301.86966371     A.U. after    7 cycles
 SCF Done:  E(RB3LYP) =  -1301.86966372     A.U. after    7 cycles
 SCF Done:  E(RB3LYP) =  -1301.86966372     A.U. after    7 cycles
 Optimization completed.
    -- Stationary point found.

                         Standard orientation:
 ---------------------------------------------------------------------
 Center     Atomic      Atomic             Coordinates (Angstroms)
 Number     Number       Type             X           Y           Z
 ---------------------------------------------------------------------
      1          6           0       -7.341473   -1.905151   -1.978629
      2          6           0       -7.817579   -0.701107   -1.457346
      3          6           0       -6.991493    0.095797   -0.666016
      4          6           0       -5.673436   -0.296301   -0.381322
      5          6           0       -4.776003    0.534984    0.465572
      6          6           0       -5.278362    1.456698    1.400201
      7          6           0       -4.379157    2.214012    2.143136
      8          6           0       -3.012086    2.028806    1.960091
      9          6           0       -2.583281    1.061496    1.037156
     10          6           0       -1.139876    0.787350    0.796216
     11          6           0       -0.157557    1.094776    1.751435
     12          6           0        1.188396    0.833756    1.503480
     13          6           0        1.580927    0.257733    0.291416
     14          7           0        2.964181   -0.008988    0.035918
     15          6           0        3.519754   -1.262680    0.362489
     16          6           0        2.773246   -2.295725    0.939570
     17          6           0        3.368188   -3.523157    1.248960
     18          6           0        4.717232   -3.737959    0.986811
     19          6           0        5.474505   -2.712967    0.410491
     20          6           0        4.884095   -1.495507    0.104826
     21          8           0        5.697935   -0.530690   -0.457095
     22          6           0        5.137983    0.685950   -0.796012
     23          6           0        5.978647    1.621765   -1.380625
     24          6           0        5.486153    2.877760   -1.749660
     25          6           0        4.146242    3.176497   -1.525735
     26          6           0        3.298917    2.232131   -0.937098
     27          6           0        3.779791    0.973087   -0.561466
     28          6           0        0.610119   -0.059842   -0.665241
     29          6           0       -0.733957    0.198791   -0.412961
     30          7           0       -3.455477    0.347333    0.307714
     31          6           0       -5.202574   -1.504451   -0.921196
     32          6           0       -6.029660   -2.301900   -1.708324
     33          1           0       -7.985911   -2.527004   -2.594215
     34          1           0       -8.831907   -0.376003   -1.672994
     35          1           0       -7.370817    1.042470   -0.292414
     36          1           0       -6.346208    1.565823    1.553375
     37          1           0       -4.741114    2.944519    2.861771
     38          1           0       -2.297524    2.632295    2.508733
     39          1           0       -0.441549    1.516924    2.710559
     40          1           0        1.942423    1.065885    2.249665
     41          1           0        1.721142   -2.137446    1.147344
     42          1           0        2.762624   -4.306014    1.696462
     43          1           0        5.185817   -4.688214    1.224030
     44          1           0        6.530105   -2.838662    0.190407
     45          1           0        7.017188    1.347806   -1.538437
     46          1           0        6.149844    3.605670   -2.206265
     47          1           0        3.743728    4.145585   -1.806296
     48          1           0        2.255598    2.473020   -0.767951
     49          1           0        0.919250   -0.507299   -1.605369
     50          1           0       -1.490732   -0.048193   -1.148983
     51          1           0       -4.182403   -1.804481   -0.708512
     52          1           0       -5.650162   -3.237425   -2.110897
 ---------------------------------------------------------------------

 The electronic state is 1-A.
 Alpha  occ. eigenvalues --  -19.18700 -14.37110 -14.33224 -10.24500 -10.24490
 Alpha  occ. eigenvalues --  -10.23952 -10.23813 -10.23507 -10.23315 -10.23303
 Alpha  occ. eigenvalues --  -10.21446 -10.20909 -10.20421 -10.20360 -10.20336
 Alpha  occ. eigenvalues --  -10.20197 -10.20027 -10.20010 -10.19682 -10.19478
 Alpha  occ. eigenvalues --  -10.19350 -10.19290 -10.19117 -10.18825 -10.18383
 Alpha  occ. eigenvalues --  -10.18359 -10.18292 -10.18280 -10.18192 -10.18170
 Alpha  occ. eigenvalues --  -10.18049 -10.18033  -1.07961  -0.96843  -0.95143
 Alpha  occ. eigenvalues --   -0.86605  -0.85963  -0.85513  -0.83020  -0.80917
 Alpha  occ. eigenvalues --   -0.79839  -0.76186  -0.76035  -0.75663  -0.75238
 Alpha  occ. eigenvalues --   -0.74581  -0.73161  -0.72623  -0.69996  -0.65563
 Alpha  occ. eigenvalues --   -0.64902  -0.64007  -0.62742  -0.61726  -0.60176
 Alpha  occ. eigenvalues --   -0.59502  -0.58988  -0.58052  -0.56471  -0.55896
 Alpha  occ. eigenvalues --   -0.54200  -0.52852  -0.50684  -0.49761  -0.49332
 Alpha  occ. eigenvalues --   -0.49210  -0.47837  -0.46831  -0.46240  -0.46232
 Alpha  occ. eigenvalues --   -0.46078  -0.44476  -0.44258  -0.44028  -0.43422
 Alpha  occ. eigenvalues --   -0.42978  -0.42903  -0.42774  -0.42638  -0.42147
 Alpha  occ. eigenvalues --   -0.41322  -0.41081  -0.39117  -0.38207  -0.37671
 Alpha  occ. eigenvalues --   -0.37406  -0.37082  -0.36964  -0.36561  -0.36258
 Alpha  occ. eigenvalues --   -0.35227  -0.35186  -0.34919  -0.34771  -0.34264
 Alpha  occ. eigenvalues --   -0.32718  -0.31152  -0.29874  -0.29613  -0.26538
 Alpha  occ. eigenvalues --   -0.26047  -0.25231  -0.25053  -0.24979  -0.24879
 Alpha  occ. eigenvalues --   -0.22756  -0.22198  -0.16849
 Alpha virt. eigenvalues --   -0.05159  -0.04567  -0.01556  -0.00294  -0.00246
 Alpha virt. eigenvalues --    0.00793   0.00996   0.01107   0.03506   0.04409
 Alpha virt. eigenvalues --    0.08469   0.08955   0.09730   0.10236   0.10842

 Mulliken charges:
               1
     1  C   -0.122514
     2  C   -0.137056
     3  C   -0.178127
     4  C    0.098837
     5  C    0.257293
     6  C   -0.171448
     7  C   -0.103840
     8  C   -0.172584
     9  C    0.256797
    10  C    0.113402
    11  C   -0.196488
    12  C   -0.133071
    13  C    0.204676
    14  N   -0.725337
    15  C    0.344363
    16  C   -0.202755
    17  C   -0.137006
    18  C   -0.136535
    19  C   -0.205018
    20  C    0.321528
    21  O   -0.583652
    22  C    0.321680
    23  C   -0.205018
    24  C   -0.136566
    25  C   -0.136931
    26  C   -0.202331
    27  C    0.344592
    28  C   -0.130843
    29  C   -0.177786
    30  N   -0.563049
    31  C   -0.159194
    32  C   -0.134903
    33  H    0.131769
    34  H    0.131283
    35  H    0.129420
    36  H    0.143749
    37  H    0.144193
    38  H    0.142641
    39  H    0.137823
    40  H    0.148719
    41  H    0.145814
    42  H    0.126718
    43  H    0.126584
    44  H    0.140630
    45  H    0.140687
    46  H    0.126555
    47  H    0.126245
    48  H    0.144289
    49  H    0.149932
    50  H    0.164569
    51  H    0.154354
    52  H    0.132912
 Sum of Mulliken charges =  -0.00000

 Dipole moment (field-independent basis, Debye):
    X=             -3.4214    Y=              1.3256    Z=              1.2908  Tot=              3.8896
 Quadrupole moment (field-independent basis, Debye-Ang):
   XX=           -169.6001   YY=           -170.3602   ZZ=           -177.0500
   XY=             -4.2302   XZ=             -2.1044   YZ=              6.0716

 Normal termination of Gaussian 16 at Fri Nov  4 12:43:03 2022.
