 Gaussian 16, Revision B.01,
 Gaussian 16:  ES64L-G16RevB.01 20-Dec-2017

 -------------------------------------------------------------------
 #p b3lyp/6-31g(d) 6D 10F nosymm GFInput td=(50-50,nstate=2) SCF=XQC
 -------------------------------------------------------------------

 ------------------------------
 Gaussian input prepared by ASE
 ------------------------------
 Symbolic Z-matrix:
 Charge =  0 Multiplicity = 1

                          Input orientation:
 ---------------------------------------------------------------------
 Center     Atomic      Atomic             Coordinates (Angstroms)
 Number     Number       Type             X           Y           Z
 ---------------------------------------------------------------------
      1          6           0       -0.728261    0.352310   -4.683829
      2          6           0        0.672363    0.337123   -4.693439
      3          6           0        1.363952    0.245811   -3.498935
      4          6           0        0.697553    0.165310   -2.255924
      5          6           0       -0.723661    0.171343   -2.246858
      6          6           0       -1.405209    0.270155   -3.480311
      7          6           0       -1.448011    0.077089   -0.974352
      8          6           0       -2.857980    0.055333   -0.933490
      9          6           0       -3.555470   -0.019642    0.263367
     10          7           0       -4.976333   -0.020408    0.265280
     11          6           0       -5.799188    0.952099   -0.312795
     12          6           0       -5.453129    2.129313   -0.981980
     13          6           0       -6.481733    2.937670   -1.454478
     14          6           0       -7.835387    2.602060   -1.245266
     15          7           0       -8.855944    3.459592   -1.742635
     16          6           0       -9.034641    4.803242   -1.398222
     17          6           0       -8.311610    5.590932   -0.498141
     18          6           0       -8.713159    6.914152   -0.327605
     19          6           0       -9.809638    7.443602   -1.030143
     20          6           0      -10.532137    6.650739   -1.917191
     21          6           0      -10.150551    5.317372   -2.107534
     22          6           0      -10.668085    4.233508   -2.916534
     23          6           0      -11.730665    4.123330   -3.821319
     24          6           0      -11.954600    2.907381   -4.460522
     25          6           0      -11.123135    1.802520   -4.207259
     26          6           0      -10.059410    1.884185   -3.311174
     27          6           0       -9.845790    3.105032   -2.665449
     28          6           0       -8.175160    1.438087   -0.554872
     29          6           0       -7.155330    0.601226   -0.092085
     30          6           0       -7.150647   -0.639293    0.654342
     31          6           0       -8.164169   -1.475434    1.131900
     32          6           0       -7.814980   -2.639336    1.817819
     33          7           0       -8.828832   -3.496469    2.329336
     34          6           0       -9.013751   -4.839622    1.986297
     35          6           0       -8.303854   -5.627488    1.075977
     36          6           0       -8.709251   -6.950103    0.909847
     37          6           0       -9.796802   -7.478785    1.626681
     38          6           0      -10.506333   -6.685735    2.523982
     39          6           0      -10.120646   -5.352968    2.710173
     40          6           0      -10.625981   -4.269110    3.526862
     41          6           0      -11.676157   -4.158375    4.445958
     42          6           0      -11.889983   -2.942651    5.089023
     43          6           0      -11.060635   -1.838598    4.825467
     44          6           0      -10.009171   -1.920822    3.915088
     45          6           0       -9.805809   -3.141420    3.265613
     46          6           0       -6.458697   -2.975714    2.007830
     47          6           0       -5.436541   -2.168750    1.519229
     48          6           0       -5.791870   -0.991285    0.855329
     49          6           0       -2.846540   -0.090374    1.474246
     50          6           0       -1.465390   -0.094219    1.452638
     51          6           0       -0.729895   -0.010383    0.249019
     52          6           0        0.734117   -0.010194    0.240171
     53          6           0        1.484020   -0.097417    1.434607
     54          6           0        2.865342   -0.104419    1.438713
     55          6           0        3.559476   -0.003949    0.221475
     56          7           0        4.980518   -0.003467    0.206387
     57          6           0        5.795195   -0.891716   -0.503546
     58          6           0        5.439138   -1.965986   -1.323692
     59          6           0        6.461071   -2.717890   -1.893772
     60          6           0        7.817417   -2.402701   -1.671078
     61          7           0        8.830443   -3.193057   -2.282846
     62          6           0        9.010255   -3.369156   -3.658245
     63          6           0        8.293452   -2.816775   -4.723267
     64          6           0        8.694076   -3.149202   -6.015624
     65          6           0        9.783690   -4.006666   -6.247255
     66          6           0       10.499836   -4.545462   -5.182183
     67          6           0       10.119000   -4.227891   -3.873078
     68          6           0       10.630613   -4.585735   -2.566457
     69          6           0       11.684791   -5.396154   -2.128486
     70          6           0       11.903921   -5.545150   -0.762107
     71          6           0       11.075899   -4.895730    0.170048
     72          6           0       10.020643   -4.082815   -0.238156
     73          6           0        9.811992   -3.929603   -1.611450
     74          6           0        8.167381   -1.330541   -0.849675
     75          6           0        7.154297   -0.577721   -0.248150
     76          6           0        7.159979    0.553158    0.655797
     77          6           0        8.179917    1.316172    1.232066
     78          6           0        7.839804    2.378457    2.070466
     79          7           0        8.860407    3.157533    2.683644
     80          6           0        9.839966    2.679764    3.560520
     81          6           0       10.041189    1.383994    4.043702
     82          6           0       11.096308    1.179607    4.930318
     83          6           0       11.931401    2.236744    5.331887
     84          6           0       11.719786    3.526907    4.854396
     85          6           0       10.665981    3.760734    3.962963
     86          6           0       10.161315    4.943870    3.297666
     87          6           0       10.551326    6.288292    3.285521
     88          6           0        9.840595    7.194250    2.503488
     89          6           0        8.747517    6.767526    1.729359
     90          6           0        8.337777    5.435889    1.722982
     91          6           0        9.049073    4.533382    2.518497
     92          6           0        6.486209    2.688884    2.315747
     93          6           0        5.457601    1.956245    1.732771
     94          6           0        5.804007    0.877932    0.913805
     95          6           0        2.847761    0.091485   -0.965443
     96          6           0        1.437348    0.076734   -0.991916
     97          1           0       -1.284274    0.427243   -5.613900
     98          1           0        1.216925    0.397836   -5.631305
     99          1           0        2.446639    0.235252   -3.536257
    100          1           0       -2.488240    0.285900   -3.502663
    101          1           0       -3.435563    0.081916   -1.848326
    102          1           0       -4.416230    2.406649   -1.138539
    103          1           0       -6.247338    3.845986   -2.000325
    104          1           0       -7.469323    5.185613    0.053193
    105          1           0       -8.166692    7.547233    0.366364
    106          1           0      -10.096188    8.479913   -0.875233
    107          1           0      -11.384692    7.059827   -2.453245
    108          1           0      -12.370473    4.978467   -4.023680
    109          1           0      -12.777219    2.809722   -5.163218
    110          1           0      -11.310750    0.863328   -4.720749
    111          1           0       -9.417702    1.029248   -3.124247
    112          1           0       -9.219811    1.202055   -0.376677
    113          1           0       -9.211189   -1.239077    0.968690
    114          1           0       -7.468513   -5.222797    0.513716
    115          1           0       -8.172890   -7.583311    0.208148
    116          1           0      -10.086627   -8.514651    1.474908
    117          1           0      -11.352052   -7.094231    3.071201
    118          1           0      -12.314176   -5.012920    4.656310
    119          1           0      -12.702881   -2.844568    5.802883
    120          1           0      -11.240041   -0.899650    5.342314
    121          1           0       -9.368797   -1.066611    3.720447
    122          1           0       -6.217214   -3.883929    2.550721
    123          1           0       -4.397686   -2.447305    1.659989
    124          1           0       -3.384732   -0.127682    2.415782
    125          1           0       -0.947765   -0.147733    2.402600
    126          1           0        0.977842   -0.178731    2.388756
    127          1           0        3.415003   -0.200100    2.369453
    128          1           0        4.400029   -2.223576   -1.498398
    129          1           0        6.219576   -3.572722   -2.517409
    130          1           0        7.456319   -2.148155   -4.550315
    131          1           0        8.152538   -2.732808   -6.860864
    132          1           0       10.069827   -4.246911   -7.267280
    133          1           0       11.346873   -5.202066   -5.363704
    134          1           0       12.321723   -5.904871   -2.847568
    135          1           0       12.719853   -6.170284   -0.410715
    136          1           0       11.259326   -5.030034    1.232727
    137          1           0        9.380718   -3.589337    0.486161
    138          1           0        9.214578   -1.093208   -0.688944
    139          1           0        9.224889    1.101901    1.029853
    140          1           0        9.396217    0.565079    3.741950
    141          1           0       11.274113    0.180530    5.319185
    142          1           0       12.747060    2.043274    6.022752
    143          1           0       12.362355    4.344264    5.171556
    144          1           0       11.401239    6.618918    3.877031
    145          1           0       10.133798    8.240102    2.486999
    146          1           0        8.210363    7.488903    1.119370
    147          1           0        7.498261    5.110838    1.116956
    148          1           0        6.252159    3.516958    2.977136
    149          1           0        4.420695    2.215036    1.918604
    150          1           0        3.414572    0.193581   -1.881719
 ---------------------------------------------------------------------

 SCF Done:  E(RB3LYP) =  -3790.81388541     A.U. after   14 cycles

 Excitation energies and oscillator strengths:

 Excited state symmetry could not be determined.
 Excited State   1:      Triplet-?Sym    2.7208 eV  455.69 nm  f=0.0000  <S**2>=2.000
     300 -> 319       -0.14382
     300 -> 321        0.17268
     305 -> 319       -0.23603
     305 -> 321       -0.12616
     306 -> 320       -0.31763
     310 -> 319       -0.37386
     318 -> 319        0.32937
 This state for optimization and/or second-order correction.
 Total Energy, E(TD-HF/TD-DFT) =  -3790.71389723
 Copying the excited state density for this state as the 1-particle RhoCI density.

 Excited state symmetry could not be determined.
 Excited State   2:      Triplet-?Sym    3.0383 eV  408.07 nm  f=0.0000  <S**2>=2.000
     309 -> 322       -0.10294
     309 -> 323       -0.18078
     310 -> 322       -0.18139
     317 -> 319        0.10791
     317 -> 322        0.24637
     317 -> 323        0.34515
     318 -> 322        0.41859
     318 -> 323       -0.14135

 Excited state symmetry could not be determined.
 Excited State   3:      Singlet-?Sym    3.1264 eV  396.57 nm  f=0.3396  <S**2>=0.000
     310 -> 319       -0.11410
     318 -> 319        0.69246

 Excited state symmetry could not be determined.
 Excited State   4:      Singlet-?Sym    3.1858 eV  389.18 nm  f=0.0023  <S**2>=0.000
     317 -> 319        0.69737

 Alpha  occ. eigenvalues --  -14.40225 -14.40219 -14.38008 -14.38000 -14.37989
 Alpha  occ. eigenvalues --  -14.37987 -10.25661 -10.25659 -10.24423 -10.24418
 Alpha  occ. eigenvalues --  -10.24392 -10.24391 -10.23900 -10.23892 -10.23889
 Alpha  occ. eigenvalues --  -10.23888 -10.22861 -10.22858 -10.22688 -10.22655
 Alpha  occ. eigenvalues --  -10.22363 -10.22318 -10.22228 -10.22216 -10.22214
 Alpha  occ. eigenvalues --  -10.22210 -10.22202 -10.22199 -10.22195 -10.22190
 Alpha  occ. eigenvalues --  -10.21755 -10.21754 -10.21682 -10.21680 -10.21623
 Alpha  occ. eigenvalues --  -10.21611 -10.20975 -10.20963 -10.20944 -10.20942
 Alpha  occ. eigenvalues --  -10.20907 -10.20907 -10.20906 -10.20903 -10.20902
 Alpha  occ. eigenvalues --  -10.20901 -10.20897 -10.20863 -10.20784 -10.20781
 Alpha  occ. eigenvalues --  -10.20776 -10.20773 -10.20701 -10.20697 -10.20690
 Alpha  occ. eigenvalues --  -10.20688 -10.18721 -10.18688 -10.18685 -10.18674
 Alpha  occ. eigenvalues --  -10.18669 -10.18662 -10.18656 -10.18654 -10.18654
 Alpha  occ. eigenvalues --  -10.18653 -10.18652 -10.18651 -10.18651 -10.18644
 Alpha  occ. eigenvalues --  -10.18641 -10.18630 -10.18625 -10.18606 -10.18593
 Alpha  occ. eigenvalues --  -10.18590 -10.18586 -10.18584 -10.18574 -10.18572
 Alpha  occ. eigenvalues --  -10.18572 -10.18569 -10.18566 -10.18550 -10.18549
 Alpha  occ. eigenvalues --  -10.18545 -10.18534 -10.18527 -10.18018 -10.17999
 Alpha  occ. eigenvalues --  -10.17982 -10.17977 -10.17968 -10.17966 -10.17961
 Alpha  occ. eigenvalues --  -10.17943  -1.00975  -1.00972  -0.98779  -0.98777
 Alpha  occ. eigenvalues --   -0.98758  -0.98755  -0.91136  -0.88875  -0.87979
 Alpha  occ. eigenvalues --   -0.87140  -0.87139  -0.86660  -0.86446  -0.84504
 Alpha  occ. eigenvalues --   -0.84095  -0.84084  -0.84070  -0.84064  -0.83992
 Alpha  occ. eigenvalues --   -0.83916  -0.83912  -0.81681  -0.80465  -0.80187
 Alpha  occ. eigenvalues --   -0.79409  -0.78714  -0.78612  -0.78595  -0.77843
 Alpha  occ. eigenvalues --   -0.77758  -0.76328  -0.76056  -0.76025  -0.75006
 Alpha  occ. eigenvalues --   -0.74877  -0.74798  -0.74771  -0.74619  -0.74581
 Alpha  occ. eigenvalues --   -0.74418  -0.73868  -0.73860  -0.73662  -0.71573
 Alpha  occ. eigenvalues --   -0.71537  -0.71503  -0.71298  -0.71280  -0.71267
 Alpha  occ. eigenvalues --   -0.71259  -0.70378  -0.67623  -0.66403  -0.66364
 Alpha  occ. eigenvalues --   -0.65429  -0.64927  -0.64668  -0.64654  -0.63873
 Alpha  occ. eigenvalues --   -0.63435  -0.62432  -0.61866  -0.61826  -0.61148
 Alpha  occ. eigenvalues --   -0.61001  -0.60795  -0.60692  -0.60507  -0.60049
 Alpha  occ. eigenvalues --   -0.60038  -0.59450  -0.59439  -0.58908  -0.58573
 Alpha  occ. eigenvalues --   -0.57380  -0.57243  -0.57223  -0.57214  -0.57165
 Alpha  occ. eigenvalues --   -0.57100  -0.57027  -0.56565  -0.54549  -0.54183
 Alpha  occ. eigenvalues --   -0.53866  -0.53815  -0.53682  -0.53036  -0.51992
 Alpha  occ. eigenvalues --   -0.51983  -0.51762  -0.51445  -0.51354  -0.51225
 Alpha  occ. eigenvalues --   -0.51215  -0.51140  -0.50250  -0.50192  -0.49719
 Alpha  occ. eigenvalues --   -0.49658  -0.49432  -0.48874  -0.48839  -0.47255
 Alpha  occ. eigenvalues --   -0.47237  -0.46426  -0.46402  -0.46396  -0.46387
 Alpha  occ. eigenvalues --   -0.45714  -0.45574  -0.45475  -0.45470  -0.45268
 Alpha  occ. eigenvalues --   -0.45244  -0.45123  -0.45097  -0.45096  -0.45034
 Alpha  occ. eigenvalues --   -0.44934  -0.44894  -0.44665  -0.44317  -0.43997
 Alpha  occ. eigenvalues --   -0.43966  -0.43962  -0.43820  -0.43489  -0.43364
 Alpha  occ. eigenvalues --   -0.43311  -0.43302  -0.43248  -0.43243  -0.42987
 Alpha  occ. eigenvalues --   -0.42905  -0.42677  -0.42497  -0.42025  -0.41858
 Alpha  occ. eigenvalues --   -0.41825  -0.41723  -0.41715  -0.41684  -0.41666
 Alpha  occ. eigenvalues --   -0.41458  -0.41440  -0.41391  -0.41243  -0.41222
 Alpha  occ. eigenvalues --   -0.40680  -0.40510  -0.40181  -0.39975  -0.39134
 Alpha  occ. eigenvalues --   -0.38885  -0.38807  -0.38426  -0.38119  -0.37289
 Alpha  occ. eigenvalues --   -0.37279  -0.36994  -0.36974  -0.36458  -0.36369
 Alpha  occ. eigenvalues --   -0.36359  -0.36212  -0.36152  -0.36143  -0.36071
 Alpha  occ. eigenvalues --   -0.36023  -0.35995  -0.35834  -0.35386  -0.35001
 Alpha  occ. eigenvalues --   -0.34937  -0.34926  -0.34913  -0.34906  -0.34470
 Alpha  occ. eigenvalues --   -0.34340  -0.33715  -0.33704  -0.33676  -0.33643
 Alpha  occ. eigenvalues --   -0.33281  -0.33271  -0.33251  -0.33249  -0.32317
 Alpha  occ. eigenvalues --   -0.32177  -0.32007  -0.31850  -0.30986  -0.30258
 Alpha  occ. eigenvalues --   -0.30229  -0.29739  -0.29681  -0.27687  -0.27682
 Alpha  occ. eigenvalues --   -0.27577  -0.27566  -0.26947  -0.26938  -0.26216
 Alpha  occ. eigenvalues --   -0.24922  -0.24913  -0.24881  -0.24873  -0.24623
 Alpha  occ. eigenvalues --   -0.24079  -0.23389  -0.23382  -0.22573  -0.21853
 Alpha  occ. eigenvalues --   -0.21033  -0.21025  -0.21010  -0.21004  -0.19718
 Alpha  occ. eigenvalues --   -0.19681  -0.19313  -0.19217
 Alpha virt. eigenvalues --   -0.06414  -0.06055  -0.05160  -0.04798  -0.04795
 Alpha virt. eigenvalues --   -0.02458  -0.02449  -0.02434  -0.02427  -0.01803
 Alpha virt. eigenvalues --   -0.01801  -0.00861   0.00091   0.00914   0.00920

 Mulliken charges:
               1
     1  C   -0.129629
     2  C   -0.129559
     3  C   -0.201148
     4  C    0.067950
     5  C    0.067837
     6  C   -0.201458
     7  C    0.070821
     8  C   -0.254599
     9  C    0.290055
    10  N   -0.751730
    11  C    0.325612
    12  C   -0.186942
    13  C   -0.164687
    14  C    0.255710
    15  N   -0.733018
    16  C    0.311910
    17  C   -0.177727
    18  C   -0.141983
    19  C   -0.145177
    20  C   -0.197400
    21  C    0.059366
    22  C    0.059643
    23  C   -0.197252
    24  C   -0.145177
    25  C   -0.141783
    26  C   -0.177818
    27  C    0.312936
    28  C   -0.231905
    29  C    0.055165
    30  C    0.054951
    31  C   -0.231678
    32  C    0.255744
    33  N   -0.733048
    34  C    0.311929
    35  C   -0.177792
    36  C   -0.142006
    37  C   -0.145186
    38  C   -0.197405
    39  C    0.059393
    40  C    0.059642
    41  C   -0.197232
    42  C   -0.145143
    43  C   -0.141744
    44  C   -0.177736
    45  C    0.312929
    46  C   -0.164496
    47  C   -0.185488
    48  C    0.326475
    49  C   -0.162438
    50  C   -0.216987
    51  C    0.079738
    52  C    0.079952
    53  C   -0.217030
    54  C   -0.161713
    55  C    0.288615
    56  N   -0.751299
    57  C    0.326087
    58  C   -0.187398
    59  C   -0.163484
    60  C    0.254005
    61  N   -0.732575
    62  C    0.312440
    63  C   -0.176576
    64  C   -0.141707
    65  C   -0.145182
    66  C   -0.197237
    67  C    0.059475
    68  C    0.059674
    69  C   -0.197092
    70  C   -0.145102
    71  C   -0.141474
    72  C   -0.177258
    73  C    0.313265
    74  C   -0.231306
    75  C    0.055059
    76  C    0.054840
    77  C   -0.231254
    78  C    0.254891
    79  N   -0.732777
    80  C    0.313092
    81  C   -0.177385
    82  C   -0.141576
    83  C   -0.145151
    84  C   -0.197207
    85  C    0.059703
    86  C    0.059436
    87  C   -0.197343
    88  C   -0.145143
    89  C   -0.141931
    90  C   -0.177617
    91  C    0.311999
    92  C   -0.164165
    93  C   -0.185526
    94  C    0.326668
    95  C   -0.253745
    96  C    0.070780
    97  H    0.140462
    98  H    0.139932
    99  H    0.141958
   100  H    0.142777
   101  H    0.161128
   102  H    0.150302
   103  H    0.153656
   104  H    0.136650
   105  H    0.125443
   106  H    0.123279
   107  H    0.129323
   108  H    0.129212
   109  H    0.123524
   110  H    0.126375
   111  H    0.136418
   112  H    0.156853
   113  H    0.156805
   114  H    0.136530
   115  H    0.125390
   116  H    0.123236
   117  H    0.129321
   118  H    0.129172
   119  H    0.123527
   120  H    0.126486
   121  H    0.136695
   122  H    0.153684
   123  H    0.149703
   124  H    0.156020
   125  H    0.145522
   126  H    0.145550
   127  H    0.155881
   128  H    0.150726
   129  H    0.153697
   130  H    0.133758
   131  H    0.124297
   132  H    0.123188
   133  H    0.129472
   134  H    0.129249
   135  H    0.123493
   136  H    0.125805
   137  H    0.136188
   138  H    0.156976
   139  H    0.156872
   140  H    0.135571
   141  H    0.125626
   142  H    0.123407
   143  H    0.129261
   144  H    0.129295
   145  H    0.123268
   146  H    0.125480
   147  H    0.136729
   148  H    0.153572
   149  H    0.149656
   150  H    0.160435
 Sum of Mulliken charges =  -0.00000

 Dipole moment (field-independent basis, Debye):
    X=             -0.0503    Y=              0.0540    Z=             -0.5912  Tot=              0.5958
 Quadrupole moment (field-independent basis, Debye-Ang):
   XX=           -620.2031   YY=           -545.8428   ZZ=           -526.4958
   XY=             -4.0328   XZ=              5.8123   YZ=              0.8841

 Normal termination of Gaussian 16 at Sat Nov  5 12:36:05 2022.
