 Gaussian 16, Revision B.01,
 Gaussian 16:  ES64L-G16RevB.01 20-Dec-2017

 -----------------------------
 #p b3lyp/6-31g(d) opt SCF=XQC
 -----------------------------

 ------------------------------
 Gaussian input prepared by ASE
 ------------------------------
 Symbolic Z-matrix:
 Charge =  0 Multiplicity = 1

 SCF Done:  E(RB3LYP) =  -3790.79432122     A.U. after   14 cycles
 SCF Done:  E(RB3LYP) =  -3790.81256725     A.U. after   12 cycles
 SCF Done:  E(RB3LYP) =  -3790.81342099     A.U. after   12 cycles
 SCF Done:  E(RB3LYP) =  -3790.81380604     A.U. after   12 cycles
 SCF Done:  E(RB3LYP) =  -3790.81385805     A.U. after   11 cycles
 SCF Done:  E(RB3LYP) =  -3790.81387810     A.U. after   10 cycles
 SCF Done:  E(RB3LYP) =  -3790.81387921     A.U. after    7 cycles
 SCF Done:  E(RB3LYP) =  -3790.81387939     A.U. after   10 cycles
 SCF Done:  E(RB3LYP) =  -3790.81387946     A.U. after    7 cycles
 SCF Done:  E(RB3LYP) =  -3790.81387950     A.U. after    6 cycles
 SCF Done:  E(RB3LYP) =  -3790.81387952     A.U. after    6 cycles
 Optimization completed.
    -- Stationary point found.

                         Standard orientation:
 ---------------------------------------------------------------------
 Center     Atomic      Atomic             Coordinates (Angstroms)
 Number     Number       Type             X           Y           Z
 ---------------------------------------------------------------------
      1          6           0        0.733836   -0.108136    4.708527
      2          6           0       -0.666839   -0.117356    4.718389
      3          6           0       -1.359811   -0.088910    3.521538
      4          6           0       -0.694798   -0.051614    2.275741
      5          6           0        0.726421   -0.051658    2.265506
      6          6           0        1.409421   -0.076372    3.501863
      7          6           0        1.449294   -0.025470    0.988945
      8          6           0        2.859105   -0.050029    0.944381
      9          6           0        3.555273   -0.011865   -0.254983
     10          7           0        4.976113   -0.019368   -0.258757
     11          6           0        5.804249    0.888408    0.409947
     12          6           0        5.464576    1.996774    1.190680
     13          6           0        6.497558    2.750422    1.738111
     14          6           0        7.849362    2.430112    1.495598
     15          7           0        8.874562    3.230328    2.072567
     16          6           0        9.059670    4.600179    1.859981
     17          6           0        8.339860    5.475038    1.041525
     18          6           0        8.747852    6.806590    0.999730
     19          6           0        9.847502    7.259990    1.748956
     20          6           0       10.566745    6.381250    2.553939
     21          6           0       10.178681    5.037580    2.614438
     22          6           0       10.691452    3.877792    3.313754
     23          6           0       11.754181    3.675125    4.202226
     24          6           0       11.972567    2.401792    4.720097
     25          6           0       11.135417    1.330800    4.361834
     26          6           0       10.071408    1.504250    3.479253
     27          6           0        9.863357    2.783041    2.955354
     28          6           0        8.182799    1.337013    0.695050
     29          6           0        7.158456    0.554011    0.154506
     30          6           0        7.147015   -0.608154   -0.708805
     31          6           0        8.155990   -1.398918   -1.266553
     32          6           0        7.800477   -2.489022   -2.061769
     33          7           0        8.809652   -3.297384   -2.655353
     34          6           0        8.988156   -4.668379   -2.444546
     35          6           0        8.275064   -5.537423   -1.614104
     36          6           0        8.674007   -6.871878   -1.577656
     37          6           0        9.758352   -7.333773   -2.343798
     38          6           0       10.471114   -6.460833   -3.160778
     39          6           0       10.091915   -5.114421   -3.216232
     40          6           0       10.601994   -3.958879   -3.924494
     41          6           0       11.651985   -3.764568   -4.829828
     42          6           0       11.871351   -2.493218   -5.352118
     43          6           0       11.047713   -1.415934   -4.981589
     44          6           0        9.996568   -1.581017   -4.082161
     45          6           0        9.787647   -2.857891   -3.553979
     46          6           0        6.442389   -2.798751   -2.281819
     47          6           0        5.424644   -2.038056   -1.715903
     48          6           0        5.786347   -0.932346   -0.941293
     49          6           0        2.845050    0.038738   -1.466112
     50          6           0        1.463915    0.039546   -1.443233
     51          6           0        0.729791    0.009730   -0.236231
     52          6           0       -0.734194    0.016196   -0.225555
     53          6           0       -1.485460    0.048990   -1.421867
     54          6           0       -2.866802    0.049153   -1.424887
     55          6           0       -3.559472    0.034369   -0.202769
     56          7           0       -4.980482    0.040311   -0.185908
     57          6           0       -5.799009   -0.908677    0.435481
     58          6           0       -5.447656   -2.059211    1.147025
     59          6           0       -6.472869   -2.857913    1.642719
     60          6           0       -7.827804   -2.515987    1.453387
     61          7           0       -8.844268   -3.357050    1.986827
     62          6           0       -9.023874   -3.664953    3.338864
     63          6           0       -8.303496   -3.222068    4.451568
     64          6           0       -8.704753   -3.676421    5.706060
     65          6           0       -9.798437   -4.546999    5.854742
     66          6           0      -10.518091   -4.976363    4.743306
     67          6           0      -10.136708   -4.535072    3.470728
     68          6           0      -10.651121   -4.761890    2.136190
     69          6           0      -11.709660   -5.520818    1.622954
     70          6           0      -11.930601   -5.535400    0.248843
     71          6           0      -11.100092   -4.802604   -0.616918
     72          6           0      -10.040485   -4.038308   -0.133068
     73          6           0       -9.829996   -4.020149    1.248348
     74          6           0       -8.173076   -1.367461    0.740378
     75          6           0       -7.156732   -0.564752    0.213489
     76          6           0       -7.157499    0.648551   -0.576409
     77          6           0       -8.174081    1.468864   -1.074602
     78          6           0       -7.829347    2.605847   -1.806357
     79          7           0       -8.846543    3.445734   -2.339725
     80          6           0       -9.829155    3.060123   -3.257596
     81          6           0      -10.037200    1.818374   -3.864021
     82          6           0      -11.094018    1.706164   -4.764954
     83          6           0      -11.924158    2.801349   -5.060956
     84          6           0      -11.705753    4.038020   -4.460753
     85          6           0      -10.650098    4.179068   -3.552166
     86          6           0      -10.139031    5.289560   -2.775805
     87          6           0      -10.522340    6.628339   -2.632722
     88          6           0       -9.806497    7.450627   -1.767342
     89          6           0       -8.714948    6.945448   -1.039672
     90          6           0       -8.311832    5.617500   -1.163104
     91          6           0       -9.028233    4.799957   -2.041567
     92          6           0       -6.474417    2.932017   -2.022058
     93          6           0       -5.449008    2.141242   -1.514253
     94          6           0       -5.800131    0.990223   -0.803388
     95          6           0       -2.846359    0.010663    0.986907
     96          6           0       -1.436016   -0.013462    1.010040
     97          1           0        1.290945   -0.126553    5.640776
     98          1           0       -1.210355   -0.145318    5.658407
     99          1           0       -2.442508   -0.097764    3.559027
    100          1           0        2.492534   -0.068150    3.524268
    101          1           0        3.437532   -0.115194    1.856746
    102          1           0        4.429192    2.262654    1.374730
    103          1           0        6.268113    3.602594    2.369845
    104          1           0        7.495135    5.129263    0.454517
    105          1           0        8.203996    7.506703    0.371182
    106          1           0       10.139082    8.305036    1.695009
    107          1           0       11.421745    6.732209    3.126093
    108          1           0       12.398393    4.503451    4.485830
    109          1           0       12.795241    2.232372    5.408954
    110          1           0       11.318762    0.345294    4.781495
    111          1           0        9.425309    0.674635    3.211033
    112          1           0        9.226122    1.114305    0.493465
    113          1           0        9.204301   -1.184628   -1.082495
    114          1           0        7.442188   -5.185156   -1.014160
    115          1           0        8.135054   -7.567590   -0.940058
    116          1           0       10.043140   -8.380880   -2.293658
    117          1           0       11.314360   -6.818396   -3.746134
    118          1           0       12.285580   -4.597757   -5.122943
    119          1           0       12.684166   -2.330264   -6.054113
    120          1           0       11.231381   -0.432134   -5.405079
    121          1           0        9.360603   -0.746623   -3.804712
    122          1           0        6.195965   -3.648789   -2.909999
    123          1           0        4.384306   -2.296564   -1.881723
    124          1           0        3.382309    0.090381   -2.407503
    125          1           0        0.945284    0.081025   -2.393248
    126          1           0       -0.980441    0.058216   -2.380043
    127          1           0       -3.417663    0.046954   -2.359824
    128          1           0       -4.409704   -2.337605    1.294588
    129          1           0       -6.235139   -3.770414    2.180128
    130          1           0       -7.463184   -2.543905    4.343276
    131          1           0       -8.160488   -3.346689    6.587041
    132          1           0      -10.084964   -4.883730    6.846991
    133          1           0      -11.368241   -5.643350    4.861304
    134          1           0      -12.348550   -6.093825    2.290065
    135          1           0      -12.749909   -6.119486   -0.160538
    136          1           0      -11.285019   -4.832219   -1.687383
    137          1           0       -9.398682   -3.479973   -0.806872
    138          1           0       -9.219205   -1.110545    0.604768
    139          1           0       -9.219947    1.241071   -0.892822
    140          1           0       -9.396072    0.970899   -3.644000
    141          1           0      -11.277096    0.750433   -5.248739
    142          1           0      -12.741311    2.679835   -5.766306
    143          1           0      -12.344497    4.885427   -4.696263
    144          1           0      -11.371062    7.018962   -3.188270
    145          1           0      -10.094481    8.491356   -1.649040
    146          1           0       -8.173733    7.601577   -0.363221
    147          1           0       -7.473468    5.231066   -0.592554
    148          1           0       -6.236770    3.819233   -2.600240
    149          1           0       -4.410974    2.411792   -1.675399
    150          1           0       -3.411935    0.026093    1.909482
 ---------------------------------------------------------------------

 The electronic state is 1-A.
 Alpha  occ. eigenvalues --  -14.40225 -14.40219 -14.38008 -14.38001 -14.37989
 Alpha  occ. eigenvalues --  -14.37987 -10.25661 -10.25659 -10.24423 -10.24418
 Alpha  occ. eigenvalues --  -10.24392 -10.24391 -10.23900 -10.23892 -10.23889
 Alpha  occ. eigenvalues --  -10.23888 -10.22861 -10.22858 -10.22688 -10.22655
 Alpha  occ. eigenvalues --  -10.22363 -10.22318 -10.22228 -10.22216 -10.22214
 Alpha  occ. eigenvalues --  -10.22211 -10.22202 -10.22199 -10.22195 -10.22190
 Alpha  occ. eigenvalues --  -10.21755 -10.21754 -10.21682 -10.21680 -10.21623
 Alpha  occ. eigenvalues --  -10.21611 -10.20975 -10.20963 -10.20944 -10.20942
 Alpha  occ. eigenvalues --  -10.20907 -10.20907 -10.20906 -10.20903 -10.20902
 Alpha  occ. eigenvalues --  -10.20901 -10.20898 -10.20863 -10.20784 -10.20781
 Alpha  occ. eigenvalues --  -10.20776 -10.20773 -10.20701 -10.20697 -10.20690
 Alpha  occ. eigenvalues --  -10.20688 -10.18721 -10.18688 -10.18685 -10.18674
 Alpha  occ. eigenvalues --  -10.18669 -10.18662 -10.18656 -10.18654 -10.18654
 Alpha  occ. eigenvalues --  -10.18653 -10.18652 -10.18651 -10.18651 -10.18644
 Alpha  occ. eigenvalues --  -10.18641 -10.18630 -10.18625 -10.18606 -10.18593
 Alpha  occ. eigenvalues --  -10.18590 -10.18586 -10.18584 -10.18574 -10.18572
 Alpha  occ. eigenvalues --  -10.18572 -10.18569 -10.18566 -10.18550 -10.18549
 Alpha  occ. eigenvalues --  -10.18545 -10.18534 -10.18527 -10.18018 -10.17999
 Alpha  occ. eigenvalues --  -10.17982 -10.17977 -10.17968 -10.17966 -10.17961
 Alpha  occ. eigenvalues --  -10.17943  -1.00975  -1.00972  -0.98779  -0.98777
 Alpha  occ. eigenvalues --   -0.98758  -0.98755  -0.91136  -0.88875  -0.87979
 Alpha  occ. eigenvalues --   -0.87140  -0.87139  -0.86660  -0.86446  -0.84504
 Alpha  occ. eigenvalues --   -0.84095  -0.84084  -0.84070  -0.84064  -0.83992
 Alpha  occ. eigenvalues --   -0.83916  -0.83912  -0.81681  -0.80465  -0.80187
 Alpha  occ. eigenvalues --   -0.79409  -0.78714  -0.78612  -0.78595  -0.77843
 Alpha  occ. eigenvalues --   -0.77758  -0.76328  -0.76056  -0.76025  -0.75006
 Alpha  occ. eigenvalues --   -0.74877  -0.74798  -0.74770  -0.74619  -0.74581
 Alpha  occ. eigenvalues --   -0.74418  -0.73868  -0.73860  -0.73662  -0.71573
 Alpha  occ. eigenvalues --   -0.71537  -0.71503  -0.71298  -0.71280  -0.71267
 Alpha  occ. eigenvalues --   -0.71259  -0.70378  -0.67623  -0.66403  -0.66364
 Alpha  occ. eigenvalues --   -0.65429  -0.64927  -0.64668  -0.64654  -0.63873
 Alpha  occ. eigenvalues --   -0.63435  -0.62432  -0.61866  -0.61826  -0.61148
 Alpha  occ. eigenvalues --   -0.61001  -0.60795  -0.60692  -0.60507  -0.60049
 Alpha  occ. eigenvalues --   -0.60038  -0.59450  -0.59439  -0.58908  -0.58573
 Alpha  occ. eigenvalues --   -0.57380  -0.57243  -0.57223  -0.57214  -0.57165
 Alpha  occ. eigenvalues --   -0.57100  -0.57027  -0.56565  -0.54549  -0.54183
 Alpha  occ. eigenvalues --   -0.53866  -0.53815  -0.53682  -0.53036  -0.51992
 Alpha  occ. eigenvalues --   -0.51983  -0.51762  -0.51445  -0.51354  -0.51225
 Alpha  occ. eigenvalues --   -0.51215  -0.51140  -0.50250  -0.50192  -0.49719
 Alpha  occ. eigenvalues --   -0.49658  -0.49432  -0.48874  -0.48839  -0.47255
 Alpha  occ. eigenvalues --   -0.47237  -0.46426  -0.46403  -0.46396  -0.46387
 Alpha  occ. eigenvalues --   -0.45714  -0.45574  -0.45475  -0.45470  -0.45268
 Alpha  occ. eigenvalues --   -0.45244  -0.45123  -0.45097  -0.45096  -0.45034
 Alpha  occ. eigenvalues --   -0.44934  -0.44894  -0.44665  -0.44317  -0.43997
 Alpha  occ. eigenvalues --   -0.43966  -0.43962  -0.43820  -0.43489  -0.43364
 Alpha  occ. eigenvalues --   -0.43311  -0.43302  -0.43248  -0.43243  -0.42987
 Alpha  occ. eigenvalues --   -0.42905  -0.42677  -0.42497  -0.42025  -0.41858
 Alpha  occ. eigenvalues --   -0.41825  -0.41723  -0.41715  -0.41684  -0.41666
 Alpha  occ. eigenvalues --   -0.41458  -0.41440  -0.41391  -0.41243  -0.41222
 Alpha  occ. eigenvalues --   -0.40680  -0.40510  -0.40181  -0.39975  -0.39134
 Alpha  occ. eigenvalues --   -0.38885  -0.38807  -0.38426  -0.38119  -0.37289
 Alpha  occ. eigenvalues --   -0.37279  -0.36994  -0.36974  -0.36458  -0.36369
 Alpha  occ. eigenvalues --   -0.36359  -0.36212  -0.36152  -0.36143  -0.36071
 Alpha  occ. eigenvalues --   -0.36023  -0.35995  -0.35834  -0.35386  -0.35001
 Alpha  occ. eigenvalues --   -0.34937  -0.34926  -0.34913  -0.34906  -0.34470
 Alpha  occ. eigenvalues --   -0.34340  -0.33715  -0.33704  -0.33676  -0.33643
 Alpha  occ. eigenvalues --   -0.33281  -0.33271  -0.33251  -0.33249  -0.32317
 Alpha  occ. eigenvalues --   -0.32177  -0.32007  -0.31850  -0.30986  -0.30258
 Alpha  occ. eigenvalues --   -0.30229  -0.29739  -0.29681  -0.27687  -0.27682
 Alpha  occ. eigenvalues --   -0.27577  -0.27566  -0.26947  -0.26938  -0.26216
 Alpha  occ. eigenvalues --   -0.24922  -0.24913  -0.24881  -0.24873  -0.24623
 Alpha  occ. eigenvalues --   -0.24079  -0.23389  -0.23382  -0.22573  -0.21853
 Alpha  occ. eigenvalues --   -0.21033  -0.21025  -0.21010  -0.21004  -0.19718
 Alpha  occ. eigenvalues --   -0.19681  -0.19313  -0.19217
 Alpha virt. eigenvalues --   -0.06414  -0.06055  -0.05160  -0.04798  -0.04795
 Alpha virt. eigenvalues --   -0.02458  -0.02449  -0.02434  -0.02427  -0.01803
 Alpha virt. eigenvalues --   -0.01801  -0.00861   0.00091   0.00914   0.00920

 Mulliken charges:
               1
     1  C   -0.129629
     2  C   -0.129558
     3  C   -0.201146
     4  C    0.067948
     5  C    0.067843
     6  C   -0.201462
     7  C    0.070820
     8  C   -0.254611
     9  C    0.290072
    10  N   -0.751752
    11  C    0.325645
    12  C   -0.186954
    13  C   -0.164695
    14  C    0.255696
    15  N   -0.732993
    16  C    0.311910
    17  C   -0.177722
    18  C   -0.141981
    19  C   -0.145177
    20  C   -0.197399
    21  C    0.059356
    22  C    0.059660
    23  C   -0.197256
    24  C   -0.145177
    25  C   -0.141780
    26  C   -0.177820
    27  C    0.312914
    28  C   -0.231886
    29  C    0.055155
    30  C    0.054934
    31  C   -0.231658
    32  C    0.255725
    33  N   -0.733026
    34  C    0.311925
    35  C   -0.177783
    36  C   -0.142004
    37  C   -0.145189
    38  C   -0.197404
    39  C    0.059387
    40  C    0.059663
    41  C   -0.197239
    42  C   -0.145145
    43  C   -0.141737
    44  C   -0.177742
    45  C    0.312910
    46  C   -0.164501
    47  C   -0.185499
    48  C    0.326500
    49  C   -0.162446
    50  C   -0.216984
    51  C    0.079736
    52  C    0.079944
    53  C   -0.217025
    54  C   -0.161721
    55  C    0.288627
    56  N   -0.751281
    57  C    0.326055
    58  C   -0.187378
    59  C   -0.163499
    60  C    0.254021
    61  N   -0.732593
    62  C    0.312431
    63  C   -0.176571
    64  C   -0.141706
    65  C   -0.145190
    66  C   -0.197230
    67  C    0.059486
    68  C    0.059658
    69  C   -0.197077
    70  C   -0.145103
    71  C   -0.141480
    72  C   -0.177252
    73  C    0.313273
    74  C   -0.231309
    75  C    0.055068
    76  C    0.054860
    77  C   -0.231275
    78  C    0.254896
    79  N   -0.732793
    80  C    0.313131
    81  C   -0.177384
    82  C   -0.141591
    83  C   -0.145145
    84  C   -0.197186
    85  C    0.059665
    86  C    0.059442
    87  C   -0.197342
    88  C   -0.145145
    89  C   -0.141929
    90  C   -0.177619
    91  C    0.311999
    92  C   -0.164160
    93  C   -0.185521
    94  C    0.326642
    95  C   -0.253753
    96  C    0.070790
    97  H    0.140462
    98  H    0.139931
    99  H    0.141957
   100  H    0.142776
   101  H    0.161132
   102  H    0.150303
   103  H    0.153656
   104  H    0.136646
   105  H    0.125442
   106  H    0.123280
   107  H    0.129322
   108  H    0.129212
   109  H    0.123523
   110  H    0.126375
   111  H    0.136418
   112  H    0.156851
   113  H    0.156804
   114  H    0.136526
   115  H    0.125389
   116  H    0.123236
   117  H    0.129320
   118  H    0.129172
   119  H    0.123527
   120  H    0.126485
   121  H    0.136695
   122  H    0.153685
   123  H    0.149702
   124  H    0.156021
   125  H    0.145522
   126  H    0.145550
   127  H    0.155880
   128  H    0.150726
   129  H    0.153696
   130  H    0.133759
   131  H    0.124297
   132  H    0.123188
   133  H    0.129471
   134  H    0.129248
   135  H    0.123493
   136  H    0.125806
   137  H    0.136189
   138  H    0.156975
   139  H    0.156874
   140  H    0.135568
   141  H    0.125628
   142  H    0.123407
   143  H    0.129260
   144  H    0.129295
   145  H    0.123268
   146  H    0.125480
   147  H    0.136731
   148  H    0.153571
   149  H    0.149657
   150  H    0.160432
 Sum of Mulliken charges =  -0.00000

 Dipole moment (field-independent basis, Debye):
    X=              0.0510    Y=             -0.0039    Z=              0.5936  Tot=              0.5958
 Quadrupole moment (field-independent basis, Debye-Ang):
   XX=           -620.1518   YY=           -545.5248   ZZ=           -526.8484
   XY=              3.8101   XZ=              6.2816   YZ=             -2.7719

 1\1\GINC-NODE92\FOpt\RB3LYP\6-31G(d)\C90H54N6\WYKGROUP\05-Nov-2022\0\\
 #p b3lyp/6-31g(d) opt SCF=XQC\\Gaussian input prepared by ASE\\0,1\C,-
 0.7282610335,0.3523098258,-4.6838289139\C,0.6723632472,0.3371229916,-4
 .693439232\C,1.3639518264,0.2458108809,-3.4989352954\C,0.6975534729,0.
 1653099364,-2.2559240889\C,-0.7236607564,0.1713428282,-2.2468576768\C,
 -1.4052093008,0.2701545825,-3.4803108924\C,-1.4480108244,0.0770886048,
 -0.9743516838\C,-2.8579798831,0.0553326701,-0.9334896101\C,-3.55547013
 63,-0.0196420993,0.2633674507\N,-4.9763331546,-0.0204081684,0.26527991

 Normal termination of Gaussian 16 at Sat Nov  5 02:52:04 2022.
