 Gaussian 16, Revision B.01,
 Gaussian 16:  ES64L-G16RevB.01 20-Dec-2017

 -----------------------------
 #p b3lyp/6-31g(d) opt SCF=XQC
 -----------------------------

 ------------------------------
 Gaussian input prepared by ASE
 ------------------------------
 Symbolic Z-matrix:
 Charge =  0 Multiplicity = 1

 SCF Done:  E(RB3LYP) =  -2562.77182452     A.U. after   16 cycles
 SCF Done:  E(RB3LYP) =  -2562.78721452     A.U. after   16 cycles
 SCF Done:  E(RB3LYP) =  -2562.77339437     A.U. after   14 cycles
 SCF Done:  E(RB3LYP) =  -2562.78379151     A.U. after   14 cycles
 SCF Done:  E(RB3LYP) =  -2562.79280997     A.U. after   11 cycles
 SCF Done:  E(RB3LYP) =  -2562.79787771     A.U. after   13 cycles
 SCF Done:  E(RB3LYP) =  -2562.79952818     A.U. after   14 cycles
 SCF Done:  E(RB3LYP) =  -2562.80124159     A.U. after   15 cycles
 SCF Done:  E(RB3LYP) =  -2562.80291092     A.U. after   13 cycles
 SCF Done:  E(RB3LYP) =  -2562.80395381     A.U. after   12 cycles
 SCF Done:  E(RB3LYP) =  -2562.80447735     A.U. after   10 cycles
 SCF Done:  E(RB3LYP) =  -2562.80448178     A.U. after   10 cycles
 SCF Done:  E(RB3LYP) =  -2562.80448778     A.U. after   10 cycles
 SCF Done:  E(RB3LYP) =  -2562.80449249     A.U. after   10 cycles
 SCF Done:  E(RB3LYP) =  -2562.80449640     A.U. after   10 cycles
 SCF Done:  E(RB3LYP) =  -2562.80449730     A.U. after    9 cycles
 SCF Done:  E(RB3LYP) =  -2562.80449757     A.U. after    9 cycles
 SCF Done:  E(RB3LYP) =  -2562.80449763     A.U. after    7 cycles
 SCF Done:  E(RB3LYP) =  -2562.80449764     A.U. after    6 cycles
 SCF Done:  E(RB3LYP) =  -2562.80449765     A.U. after    6 cycles
 Optimization completed.
    -- Stationary point found.

                         Standard orientation:
 ---------------------------------------------------------------------
 Center     Atomic      Atomic             Coordinates (Angstroms)
 Number     Number       Type             X           Y           Z
 ---------------------------------------------------------------------
      1          6           0       -8.819933    3.545102    0.564886
      2          6           0       -8.974576    2.736645   -0.563158
      3          6           0       -8.182838    1.603386   -0.739171
      4          6           0       -7.228715    1.246483    0.228456
      5          7           0       -6.419844    0.091235    0.058323
      6          6           0       -6.969799   -1.105196   -0.471573
      7          6           0       -8.259022   -1.526114   -0.102475
      8          6           0       -8.792664   -2.701869   -0.625583
      9          6           0       -8.050905   -3.490517   -1.507972
     10          6           0       -6.765770   -3.081052   -1.868469
     11          6           0       -6.229707   -1.897148   -1.365413
     12          6           0       -5.036645    0.142020    0.400804
     13          6           0       -4.464604   -0.894378    1.170227
     14          6           0       -3.117690   -0.888801    1.518136
     15          6           0       -2.331261    0.185698    1.098088
     16          6           0       -2.896616    1.258798    0.367069
     17          6           0       -4.244187    1.221438   -0.001576
     18          6           0       -1.848178    2.239989    0.175529
     19          6           0       -1.802164    3.490392   -0.450971
     20          6           0       -0.607975    4.204701   -0.447618
     21          6           0        0.540136    3.675253    0.165306
     22          6           0        0.521338    2.430243    0.790719
     23          6           0       -0.684599    1.725854    0.796485
     24          7           0       -0.970543    0.456999    1.329640
     25          6           0       -0.132370   -0.238535    2.237259
     26          6           0        0.335404    0.432071    3.374594
     27          6           0        1.113756   -0.251645    4.302132
     28          7           0        1.437034   -1.545371    4.181906
     29          6           0        0.997144   -2.172224    3.090877
     30          6           0        0.232118   -1.589646    2.062046
     31          6           0       -0.161337   -2.449404    0.912184
     32          6           0       -0.898014   -3.618584    1.183418
     33          7           0       -1.332243   -4.491433    0.274442
     34          6           0       -1.032870   -4.226110   -1.003288
     35          6           0       -0.284000   -3.124063   -1.401023
     36          6           0        0.178500   -2.218985   -0.437136
     37          7           0        0.987866   -1.132146   -0.853083
     38          6           0        0.668191   -0.259666   -1.907994
     39          6           0       -0.549441   -0.080187   -2.568126
     40          6           0       -0.603268    0.880997   -3.575494
     41          6           0        0.521221    1.652900   -3.912765
     42          6           0        1.726810    1.479306   -3.239916
     43          6           0        1.808282    0.515645   -2.228630
     44          6           0        2.876878    0.075229   -1.355097
     45          6           0        4.224078    0.430073   -1.246847
     46          6           0        5.037741   -0.235050   -0.324823
     47          7           0        6.411083    0.123371   -0.182883
     48          6           0        7.405546   -0.889617   -0.199247
     49          6           0        8.517849   -0.816116    0.656679
     50          6           0        9.488880   -1.814916    0.636436
     51          6           0        9.364381   -2.912669   -0.218160
     52          6           0        8.255192   -2.994205   -1.062198
     53          6           0        7.287307   -1.991464   -1.062803
     54          6           0        6.769208    1.491066   -0.056211
     55          6           0        5.990795    2.361137    0.725777
     56          6           0        6.334175    3.706839    0.837347
     57          6           0        7.464249    4.209522    0.188821
     58          6           0        8.244587    3.346291   -0.583201
     59          6           0        7.899953    2.002547   -0.715347
     60          6           0        4.495925   -1.272985    0.463421
     61          6           0        3.162046   -1.653205    0.353726
     62          6           0        2.347334   -0.954756   -0.539443
     63          6           0       -7.081125    2.058134    1.365700
     64          6           0       -7.865057    3.199173    1.523515
     65          1           0       -9.434036    4.431632    0.694875
     66          1           0       -9.707337    2.995658   -1.323184
     67          1           0       -8.299009    0.988049   -1.625581
     68          1           0       -8.835900   -0.927666    0.595247
     69          1           0       -9.791320   -3.010239   -0.326868
     70          1           0       -8.467580   -4.410917   -1.906843
     71          1           0       -6.176309   -3.680167   -2.557825
     72          1           0       -5.235010   -1.579018   -1.660509
     73          1           0       -5.096507   -1.714048    1.496144
     74          1           0       -2.709034   -1.691449    2.120553
     75          1           0       -4.684286    2.030012   -0.576820
     76          1           0       -2.688025    3.897092   -0.931517
     77          1           0       -0.559352    5.177947   -0.927436
     78          1           0        1.466485    4.242645    0.147457
     79          1           0        1.417308    2.020696    1.245030
     80          1           0        0.064332    1.469769    3.536829
     81          1           0        1.476422    0.256275    5.193689
     82          1           0        1.280015   -3.220084    2.998248
     83          1           0       -1.161351   -3.838491    2.217286
     84          1           0       -1.390334   -4.941060   -1.741857
     85          1           0       -0.030766   -2.974202   -2.445071
     86          1           0       -1.427869   -0.658374   -2.301737
     87          1           0       -1.538833    1.038242   -4.105017
     88          1           0        0.445048    2.395368   -4.701890
     89          1           0        2.593831    2.082922   -3.494866
     90          1           0        4.645566    1.209265   -1.874385
     91          1           0        8.613793    0.025299    1.335374
     92          1           0       10.341358   -1.739993    1.306737
     93          1           0       10.119901   -3.693085   -0.225050
     94          1           0        8.145391   -3.838445   -1.738112
     95          1           0        6.435103   -2.055015   -1.731744
     96          1           0        5.119677    1.973682    1.244401
     97          1           0        5.720202    4.363078    1.449097
     98          1           0        7.732769    5.257757    0.283808
     99          1           0        9.123038    3.722281   -1.101481
    100          1           0        8.503627    1.341694   -1.329037
    101          1           0        5.141763   -1.788000    1.167040
    102          1           0        2.777522   -2.466654    0.957394
    103          1           0       -6.349830    1.788371    2.120884
    104          1           0       -7.736096    3.813618    2.410899
 ---------------------------------------------------------------------

 The electronic state is 1-A.
 Alpha  occ. eigenvalues --  -14.39168 -14.39139 -14.36061 -14.36050 -14.34195
 Alpha  occ. eigenvalues --  -14.34194 -10.26444 -10.26435 -10.23784 -10.23783
 Alpha  occ. eigenvalues --  -10.23627 -10.23620 -10.23104 -10.23061 -10.22951
 Alpha  occ. eigenvalues --  -10.22926 -10.22813 -10.22784 -10.22738 -10.22685
 Alpha  occ. eigenvalues --  -10.22656 -10.22646 -10.22616 -10.22606 -10.21266
 Alpha  occ. eigenvalues --  -10.21257 -10.19665 -10.19650 -10.19618 -10.19584
 Alpha  occ. eigenvalues --  -10.19293 -10.19272 -10.19259 -10.19241 -10.19231
 Alpha  occ. eigenvalues --  -10.19202 -10.19199 -10.19189 -10.19180 -10.19172
 Alpha  occ. eigenvalues --  -10.19121 -10.19101 -10.18876 -10.18838 -10.18805
 Alpha  occ. eigenvalues --  -10.18796 -10.18741 -10.18728 -10.18725 -10.18724
 Alpha  occ. eigenvalues --  -10.18564 -10.18548 -10.18507 -10.18460 -10.18445
 Alpha  occ. eigenvalues --  -10.18440 -10.18395 -10.18370 -10.18368 -10.18363
 Alpha  occ. eigenvalues --  -10.18359 -10.18325 -10.18235 -10.18228  -1.00085
 Alpha  occ. eigenvalues --   -0.99665  -0.96025  -0.96017  -0.95556  -0.95203
 Alpha  occ. eigenvalues --   -0.86858  -0.86171  -0.85110  -0.85024  -0.84999
 Alpha  occ. eigenvalues --   -0.84946  -0.83592  -0.83377  -0.82785  -0.80903
 Alpha  occ. eigenvalues --   -0.79732  -0.77599  -0.77567  -0.75824  -0.75806
 Alpha  occ. eigenvalues --   -0.75758  -0.75132  -0.75109  -0.74327  -0.74264
 Alpha  occ. eigenvalues --   -0.73946  -0.73927  -0.73607  -0.73219  -0.72257
 Alpha  occ. eigenvalues --   -0.72202  -0.70572  -0.70355  -0.66908  -0.66168
 Alpha  occ. eigenvalues --   -0.65990  -0.63700  -0.63545  -0.62781  -0.62306
 Alpha  occ. eigenvalues --   -0.61813  -0.61658  -0.61403  -0.59922  -0.59904
 Alpha  occ. eigenvalues --   -0.59840  -0.59807  -0.59530  -0.58638  -0.58223
 Alpha  occ. eigenvalues --   -0.58158  -0.56979  -0.56785  -0.54954  -0.54490
 Alpha  occ. eigenvalues --   -0.53110  -0.53066  -0.52935  -0.52776  -0.52404
 Alpha  occ. eigenvalues --   -0.52167  -0.51427  -0.50341  -0.49748  -0.49547
 Alpha  occ. eigenvalues --   -0.49404  -0.48330  -0.48227  -0.47545  -0.47485
 Alpha  occ. eigenvalues --   -0.47150  -0.47058  -0.45997  -0.45756  -0.45539
 Alpha  occ. eigenvalues --   -0.45205  -0.45204  -0.44536  -0.44471  -0.44401
 Alpha  occ. eigenvalues --   -0.44185  -0.44139  -0.44019  -0.43666  -0.43369
 Alpha  occ. eigenvalues --   -0.43310  -0.43179  -0.43133  -0.42769  -0.42647
 Alpha  occ. eigenvalues --   -0.42312  -0.42173  -0.41846  -0.41791  -0.41757
 Alpha  occ. eigenvalues --   -0.41744  -0.41678  -0.41666  -0.40919  -0.40576
 Alpha  occ. eigenvalues --   -0.39541  -0.39301  -0.39205  -0.38140  -0.37081
 Alpha  occ. eigenvalues --   -0.37026  -0.36963  -0.36918  -0.36275  -0.36255
 Alpha  occ. eigenvalues --   -0.36128  -0.36103  -0.36066  -0.35634  -0.35362
 Alpha  occ. eigenvalues --   -0.35344  -0.34902  -0.34846  -0.34611  -0.34498
 Alpha  occ. eigenvalues --   -0.34059  -0.33943  -0.33852  -0.33809  -0.33706
 Alpha  occ. eigenvalues --   -0.33285  -0.31010  -0.30205  -0.29659  -0.29226
 Alpha  occ. eigenvalues --   -0.28724  -0.28277  -0.28030  -0.27280  -0.26774
 Alpha  occ. eigenvalues --   -0.25998  -0.25754  -0.25645  -0.25396  -0.25384
 Alpha  occ. eigenvalues --   -0.24873  -0.24856  -0.24432  -0.24404  -0.22167
 Alpha  occ. eigenvalues --   -0.22075  -0.21504  -0.21101  -0.17828  -0.17649
 Alpha virt. eigenvalues --   -0.05291  -0.04368  -0.03680  -0.03142  -0.03103
 Alpha virt. eigenvalues --   -0.01333  -0.00785  -0.00768  -0.00612  -0.00563
 Alpha virt. eigenvalues --   -0.00198  -0.00178   0.00997   0.01022   0.01497

 Mulliken charges:
               1
     1  C   -0.129840
     2  C   -0.140301
     3  C   -0.166431
     4  C    0.282914
     5  N   -0.656523
     6  C    0.286232
     7  C   -0.166730
     8  C   -0.139620
     9  C   -0.129695
    10  C   -0.137682
    11  C   -0.166904
    12  C    0.267795
    13  C   -0.178073
    14  C   -0.173584
    15  C    0.307414
    16  C    0.067219
    17  C   -0.252083
    18  C    0.060121
    19  C   -0.193375
    20  C   -0.140845
    21  C   -0.138432
    22  C   -0.174726
    23  C    0.314248
    24  N   -0.746671
    25  C    0.279633
    26  C   -0.163522
    27  C    0.038820
    28  N   -0.405988
    29  C   -0.004044
    30  C    0.025285
    31  C    0.025977
    32  C   -0.003563
    33  N   -0.405546
    34  C    0.038834
    35  C   -0.164091
    36  C    0.280723
    37  N   -0.747222
    38  C    0.314490
    39  C   -0.174184
    40  C   -0.138078
    41  C   -0.140701
    42  C   -0.193199
    43  C    0.060084
    44  C    0.066303
    45  C   -0.247969
    46  C    0.264603
    47  N   -0.655789
    48  C    0.285916
    49  C   -0.166008
    50  C   -0.139709
    51  C   -0.129808
    52  C   -0.139262
    53  C   -0.168751
    54  C    0.286187
    55  C   -0.165524
    56  C   -0.139956
    57  C   -0.130023
    58  C   -0.140128
    59  C   -0.167211
    60  C   -0.178787
    61  C   -0.173199
    62  C    0.307607
    63  C   -0.164629
    64  C   -0.139731
    65  H    0.125865
    66  H    0.129723
    67  H    0.143368
    68  H    0.143678
    69  H    0.129856
    70  H    0.125895
    71  H    0.128128
    72  H    0.137829
    73  H    0.148318
    74  H    0.140527
    75  H    0.146538
    76  H    0.133657
    77  H    0.126287
    78  H    0.130287
    79  H    0.146562
    80  H    0.164323
    81  H    0.152199
    82  H    0.155205
    83  H    0.155180
    84  H    0.151583
    85  H    0.164310
    86  H    0.146309
    87  H    0.129879
    88  H    0.126403
    89  H    0.133565
    90  H    0.145980
    91  H    0.143516
    92  H    0.129890
    93  H    0.125825
    94  H    0.129394
    95  H    0.141499
    96  H    0.138455
    97  H    0.127463
    98  H    0.125593
    99  H    0.129998
   100  H    0.144149
   101  H    0.148565
   102  H    0.140699
   103  H    0.141387
   104  H    0.129847
 Sum of Mulliken charges =  -0.00000

 Dipole moment (field-independent basis, Debye):
    X=             -0.0681    Y=              1.7045    Z=             -1.2903  Tot=              2.1389
 Quadrupole moment (field-independent basis, Debye-Ang):
   XX=           -354.5421   YY=           -351.6779   ZZ=           -357.1354
   XY=             -0.7801   XZ=              1.1738   YZ=              8.4481

 1\1\GINC-NODE24\FOpt\RB3LYP\6-31G(d)\C58H40N6\WYKGROUP\05-Nov-2022\0\\
 #p b3lyp/6-31g(d) opt SCF=XQC\\Gaussian input prepared by ASE\\0,1\C,9
 .0403634131,-2.4587611327,-1.5447373578\C,9.020388229,-1.2359678483,-2
 .2188125094\C,8.1425847536,-0.225266169,-1.8314528019\C,7.2766676152,-
 0.4159453315,-0.7415630423\N,6.3810712546,0.6102287888,-0.3382129564\C
 ,6.7923240539,1.9687344337,-0.333906288\C,8.0837063273,2.3250926529,0.
 0913475995\C,8.4808431332,3.6604173298,0.0939191166\C,7.5991707951,4.6
 670490441,-0.3062433518\C,6.3120246903,4.3177565804,-0.7190869595\C,5.

 Normal termination of Gaussian 16 at Sat Nov  5 04:47:35 2022.
