 Gaussian 16, Revision B.01,
 Gaussian 16:  ES64L-G16RevB.01 20-Dec-2017

 -----------------------------
 #p b3lyp/6-31g(d) opt SCF=XQC
 -----------------------------

 ------------------------------
 Gaussian input prepared by ASE
 ------------------------------
 Symbolic Z-matrix:
 Charge =  0 Multiplicity = 1

 SCF Done:  E(RB3LYP) =  -2373.53913221     A.U. after   16 cycles
 SCF Done:  E(RB3LYP) =  -2373.55029873     A.U. after   12 cycles
 SCF Done:  E(RB3LYP) =  -2373.55071131     A.U. after   12 cycles
 SCF Done:  E(RB3LYP) =  -2373.55090521     A.U. after   12 cycles
 SCF Done:  E(RB3LYP) =  -2373.55101246     A.U. after   10 cycles
 SCF Done:  E(RB3LYP) =  -2373.55103560     A.U. after   11 cycles
 SCF Done:  E(RB3LYP) =  -2373.55103851     A.U. after   10 cycles
 SCF Done:  E(RB3LYP) =  -2373.55103921     A.U. after    7 cycles
 SCF Done:  E(RB3LYP) =  -2373.55103931     A.U. after    7 cycles
 SCF Done:  E(RB3LYP) =  -2373.55103933     A.U. after    6 cycles
 Optimization completed.
    -- Stationary point found.

                         Standard orientation:
 ---------------------------------------------------------------------
 Center     Atomic      Atomic             Coordinates (Angstroms)
 Number     Number       Type             X           Y           Z
 ---------------------------------------------------------------------
      1          6           0       -6.727389    2.921257    3.537412
      2          6           0       -7.658012    2.296022    2.705707
      3          6           0       -7.240033    1.332217    1.787642
      4          6           0       -5.884408    0.985911    1.685965
      5          6           0       -5.412363   -0.003134    0.682244
      6          7           0       -4.279768    0.328376    0.028505
      7          6           0       -3.812726   -0.468815   -0.939826
      8          6           0       -2.561183   -0.053340   -1.624459
      9          6           0       -2.008670   -0.847067   -2.641248
     10          6           0       -0.831602   -0.453102   -3.273529
     11          6           0       -0.195751    0.734505   -2.912683
     12          6           0       -0.736118    1.526742   -1.890615
     13          7           0       -0.089121    2.734830   -1.510648
     14          6           0       -0.671945    4.007670   -1.497650
     15          6           0       -1.967263    4.394956   -1.851041
     16          6           0       -2.285633    5.748691   -1.763890
     17          6           0       -1.340353    6.698902   -1.340365
     18          6           0       -0.048542    6.308775   -0.999748
     19          6           0        0.298415    4.954683   -1.078840
     20          6           0        1.517579    4.218926   -0.824317
     21          6           0        2.795427    4.575253   -0.378681
     22          6           0        3.760761    3.590101   -0.213719
     23          6           0        3.482518    2.226906   -0.474790
     24          6           0        4.531077    1.194823   -0.270479
     25          6           0        4.645214    0.097736   -1.156775
     26          6           0        5.611556   -0.890343   -1.001782
     27          6           0        6.498878   -0.775826    0.071314
     28          6           0        6.405101    0.303350    0.985021
     29          6           0        5.423769    1.281406    0.805802
     30          6           0        7.433326    0.096152    1.984377
     31          6           0        7.839626    0.813832    3.115152
     32          6           0        8.907635    0.340170    3.871769
     33          6           0        9.576622   -0.839675    3.503272
     34          6           0        9.192231   -1.573626    2.382926
     35          6           0        8.110514   -1.100315    1.635278
     36          7           0        7.536605   -1.624739    0.470319
     37          6           0        7.938731   -2.815227   -0.193024
     38          6           0        7.979846   -4.029353    0.504422
     39          6           0        8.384293   -5.193506   -0.148449
     40          6           0        8.730115   -5.160221   -1.500822
     41          6           0        8.679058   -3.951289   -2.197586
     42          6           0        8.294880   -2.778861   -1.547292
     43          6           0        2.205234    1.860600   -0.923161
     44          6           0        1.244459    2.856158   -1.103908
     45          6           0       -1.910892    1.130622   -1.248027
     46          7           0       -4.390136   -1.617836   -1.354399
     47          6           0       -5.477868   -1.970312   -0.684550
     48          6           0       -6.053449   -1.213133    0.383289
     49          6           0       -7.193670   -1.987486    0.917014
     50          6           0       -8.092321   -1.865292    1.961516
     51          6           0       -9.058762   -2.889685    2.167575
     52          6           0       -9.140152   -4.013914    1.365618
     53          6           0       -8.220294   -4.184897    0.292710
     54          6           0       -8.134203   -5.280948   -0.610926
     55          6           0       -7.152602   -5.312184   -1.590089
     56          6           0       -6.196458   -4.272320   -1.734938
     57          6           0       -6.268047   -3.195596   -0.875246
     58          6           0       -7.275740   -3.160302    0.114099
     59          6           0       -4.953279    1.639235    2.508169
     60          6           0       -5.373812    2.590784    3.434623
     61          1           0       -7.053475    3.668878    4.255498
     62          1           0       -8.709368    2.565014    2.763458
     63          1           0       -7.963844    0.866915    1.125392
     64          1           0       -2.512985   -1.764278   -2.922079
     65          1           0       -0.411085   -1.067967   -4.064550
     66          1           0        0.707192    1.059035   -3.420382
     67          1           0       -2.701745    3.668679   -2.182611
     68          1           0       -3.287809    6.073187   -2.030781
     69          1           0       -1.621747    7.746566   -1.281549
     70          1           0        0.684140    7.045397   -0.680038
     71          1           0        3.035278    5.614610   -0.169173
     72          1           0        4.761742    3.870956    0.099451
     73          1           0        3.967860    0.036622   -2.003505
     74          1           0        5.672550   -1.719264   -1.699205
     75          1           0        5.331105    2.095287    1.519390
     76          1           0        7.329158    1.731592    3.395461
     77          1           0        9.230962    0.887780    4.752452
     78          1           0       10.414133   -1.188703    4.101354
     79          1           0        9.719882   -2.478376    2.099730
     80          1           0        7.684495   -4.054244    1.548699
     81          1           0        8.415175   -6.131252    0.399609
     82          1           0        9.037313   -6.070278   -2.008318
     83          1           0        8.952415   -3.915386   -3.248620
     84          1           0        8.278753   -1.831555   -2.077174
     85          1           0        1.961571    0.816962   -1.090554
     86          1           0       -2.327740    1.732381   -0.449294
     87          1           0       -8.077530   -1.012340    2.630920
     88          1           0       -9.758441   -2.775607    2.991123
     89          1           0       -9.897755   -4.769485    1.557854
     90          1           0       -8.841575   -6.102586   -0.527781
     91          1           0       -7.106298   -6.162108   -2.265323
     92          1           0       -5.430111   -4.331447   -2.502088
     93          1           0       -3.901614    1.390799    2.409993
     94          1           0       -4.643611    3.080094    4.073450
 ---------------------------------------------------------------------

 The electronic state is 1-A.
 Alpha  occ. eigenvalues --  -14.37988 -14.37406 -14.33484 -14.33107 -10.26096
 Alpha  occ. eigenvalues --  -10.24749 -10.24141 -10.23851 -10.23232 -10.22126
 Alpha  occ. eigenvalues --  -10.22065 -10.21659 -10.21606 -10.21057 -10.21038
 Alpha  occ. eigenvalues --  -10.20993 -10.20989 -10.20909 -10.20783 -10.20684
 Alpha  occ. eigenvalues --  -10.20621 -10.20485 -10.20346 -10.20173 -10.20041
 Alpha  occ. eigenvalues --  -10.20035 -10.19982 -10.19928 -10.19927 -10.19795
 Alpha  occ. eigenvalues --  -10.19717 -10.19649 -10.19591 -10.19583 -10.19395
 Alpha  occ. eigenvalues --  -10.19391 -10.19347 -10.19306 -10.19024 -10.18918
 Alpha  occ. eigenvalues --  -10.18906 -10.18648 -10.18549 -10.18536 -10.18517
 Alpha  occ. eigenvalues --  -10.18462 -10.18451 -10.18428 -10.18315 -10.18300
 Alpha  occ. eigenvalues --  -10.18155 -10.18063 -10.17992 -10.17973 -10.17939
 Alpha  occ. eigenvalues --  -10.17916 -10.17891 -10.17854 -10.17398 -10.17343
 Alpha  occ. eigenvalues --   -0.98697  -0.98625  -0.98146  -0.90589  -0.89010
 Alpha  occ. eigenvalues --   -0.86926  -0.86598  -0.85615  -0.84997  -0.83817
 Alpha  occ. eigenvalues --   -0.83767  -0.83297  -0.83124  -0.82739  -0.79016
 Alpha  occ. eigenvalues --   -0.78096  -0.77485  -0.75888  -0.75659  -0.75494
 Alpha  occ. eigenvalues --   -0.75180  -0.75033  -0.74934  -0.74373  -0.73976
 Alpha  occ. eigenvalues --   -0.73909  -0.72680  -0.72158  -0.71250  -0.70615
 Alpha  occ. eigenvalues --   -0.69411  -0.67124  -0.66502  -0.64591  -0.63943
 Alpha  occ. eigenvalues --   -0.63301  -0.62483  -0.62121  -0.61546  -0.61168
 Alpha  occ. eigenvalues --   -0.61001  -0.60432  -0.60044  -0.58977  -0.58850
 Alpha  occ. eigenvalues --   -0.57644  -0.57435  -0.57155  -0.56333  -0.55925
 Alpha  occ. eigenvalues --   -0.53700  -0.53555  -0.52765  -0.52485  -0.51943
 Alpha  occ. eigenvalues --   -0.51473  -0.51275  -0.51139  -0.50320  -0.49842
 Alpha  occ. eigenvalues --   -0.48841  -0.48314  -0.47903  -0.47678  -0.46739
 Alpha  occ. eigenvalues --   -0.46364  -0.46111  -0.45779  -0.45307  -0.45209
 Alpha  occ. eigenvalues --   -0.44778  -0.44571  -0.44292  -0.44212  -0.43806
 Alpha  occ. eigenvalues --   -0.43739  -0.43338  -0.43081  -0.42946  -0.42699
 Alpha  occ. eigenvalues --   -0.42660  -0.42397  -0.42241  -0.42055  -0.41978
 Alpha  occ. eigenvalues --   -0.41819  -0.41470  -0.41332  -0.40978  -0.40792
 Alpha  occ. eigenvalues --   -0.40659  -0.40504  -0.40409  -0.38764  -0.38320
 Alpha  occ. eigenvalues --   -0.37357  -0.37264  -0.37026  -0.36796  -0.36555
 Alpha  occ. eigenvalues --   -0.36103  -0.35923  -0.35622  -0.35329  -0.35201
 Alpha  occ. eigenvalues --   -0.35093  -0.35082  -0.34979  -0.34699  -0.34441
 Alpha  occ. eigenvalues --   -0.34323  -0.34091  -0.33927  -0.33285  -0.33115
 Alpha  occ. eigenvalues --   -0.32703  -0.32380  -0.32190  -0.31565  -0.31050
 Alpha  occ. eigenvalues --   -0.29940  -0.27943  -0.27057  -0.26867  -0.26032
 Alpha  occ. eigenvalues --   -0.25807  -0.25678  -0.25539  -0.25343  -0.25093
 Alpha  occ. eigenvalues --   -0.24563  -0.24525  -0.24299  -0.23832  -0.21916
 Alpha  occ. eigenvalues --   -0.21340  -0.20497  -0.19039  -0.18461
 Alpha virt. eigenvalues --   -0.08383  -0.05850  -0.02929  -0.02687  -0.02333
 Alpha virt. eigenvalues --   -0.01684  -0.01399  -0.01101  -0.00692  -0.00473
 Alpha virt. eigenvalues --    0.00831   0.01018   0.01534   0.03028   0.03270

 Mulliken charges:
               1
     1  C   -0.120629
     2  C   -0.140947
     3  C   -0.174722
     4  C    0.108760
     5  C    0.187070
     6  N   -0.553812
     7  C    0.434732
     8  C    0.063711
     9  C   -0.155852
    10  C   -0.148382
    11  C   -0.144083
    12  C    0.269147
    13  N   -0.742068
    14  C    0.314629
    15  C   -0.174530
    16  C   -0.142174
    17  C   -0.145320
    18  C   -0.198335
    19  C    0.057610
    20  C    0.064175
    21  C   -0.203325
    22  C   -0.196869
    23  C    0.089790
    24  C    0.080658
    25  C   -0.190518
    26  C   -0.178947
    27  C    0.317631
    28  C    0.065797
    29  C   -0.258742
    30  C    0.057740
    31  C   -0.196629
    32  C   -0.145281
    33  C   -0.141829
    34  C   -0.176713
    35  C    0.311355
    36  N   -0.736911
    37  C    0.264789
    38  C   -0.149225
    39  C   -0.142833
    40  C   -0.121446
    41  C   -0.142901
    42  C   -0.149461
    43  C   -0.242677
    44  C    0.319951
    45  C   -0.199398
    46  N   -0.568582
    47  C    0.206998
    48  C    0.030265
    49  C    0.114666
    50  C   -0.225577
    51  C   -0.131910
    52  C   -0.202399
    53  C    0.188645
    54  C   -0.197489
    55  C   -0.135548
    56  C   -0.199201
    57  C    0.149348
    58  C   -0.082142
    59  C   -0.145187
    60  C   -0.137208
    61  H    0.134391
    62  H    0.134014
    63  H    0.145645
    64  H    0.157806
    65  H    0.135645
    66  H    0.150081
    67  H    0.143585
    68  H    0.125512
    69  H    0.121099
    70  H    0.127070
    71  H    0.128519
    72  H    0.124722
    73  H    0.127110
    74  H    0.139269
    75  H    0.134804
    76  H    0.130936
    77  H    0.123730
    78  H    0.126002
    79  H    0.138857
    80  H    0.152771
    81  H    0.138150
    82  H    0.134761
    83  H    0.138262
    84  H    0.152803
    85  H    0.143620
    86  H    0.177190
    87  H    0.157814
    88  H    0.136860
    89  H    0.137107
    90  H    0.138642
    91  H    0.138700
    92  H    0.155476
    93  H    0.153211
    94  H    0.138171
 Sum of Mulliken charges =  -0.00000

 Dipole moment (field-independent basis, Debye):
    X=             -2.9122    Y=             -4.2847    Z=              0.4036  Tot=              5.1964
 Quadrupole moment (field-independent basis, Debye-Ang):
   XX=           -280.3973   YY=           -306.7664   ZZ=           -323.0980
   XY=             -3.5100   XZ=            -15.2757   YZ=             16.5600

 Normal termination of Gaussian 16 at Sat Nov  5 02:18:36 2022.
