 Gaussian 16, Revision B.01,
 Gaussian 16:  ES64L-G16RevB.01 20-Dec-2017

 -------------------------------------------------------------------
 #p b3lyp/6-31g(d) 6D 10F nosymm GFInput td=(50-50,nstate=2) SCF=XQC
 -------------------------------------------------------------------

 ------------------------------
 Gaussian input prepared by ASE
 ------------------------------
 Symbolic Z-matrix:
 Charge =  0 Multiplicity = 1

                          Input orientation:
 ---------------------------------------------------------------------
 Center     Atomic      Atomic             Coordinates (Angstroms)
 Number     Number       Type             X           Y           Z
 ---------------------------------------------------------------------
      1          6           0        9.040363   -2.458761   -1.544737
      2          6           0        9.020388   -1.235968   -2.218813
      3          6           0        8.142585   -0.225266   -1.831453
      4          6           0        7.276668   -0.415945   -0.741563
      5          7           0        6.381071    0.610229   -0.338213
      6          6           0        6.792324    1.968734   -0.333906
      7          6           0        8.083706    2.325093    0.091348
      8          6           0        8.480843    3.660417    0.093919
      9          6           0        7.599171    4.667049   -0.306243
     10          6           0        6.312025    4.317757   -0.719087
     11          6           0        5.910864    2.983383   -0.743042
     12          6           0        5.048810    0.274063    0.042819
     13          6           0        4.496674    0.818524    1.222679
     14          6           0        3.198064    0.524488    1.625676
     15          6           0        2.442392   -0.345079    0.836835
     16          6           0        2.994393   -0.939570   -0.323955
     17          6           0        4.289370   -0.608073   -0.731861
     18          6           0        1.997247   -1.849897   -0.848978
     19          6           0        1.965401   -2.712244   -1.950554
     20          6           0        0.827268   -3.480826   -2.174772
     21          6           0       -0.280340   -3.385826   -1.315510
     22          6           0       -0.275262   -2.530712   -0.215374
     23          6           0        0.876147   -1.773697    0.011932
     24          7           0        1.134821   -0.829933    1.021093
     25          6           0        0.355562   -0.678538    2.195788
     26          6           0        0.056940   -1.814151    2.959505
     27          6           0       -0.660068   -1.675589    4.142859
     28          7           0       -1.077518   -0.495319    4.617608
     29          6           0       -0.798757    0.578345    3.878467
     30          6           0       -0.112390    0.572393    2.648825
     31          6           0        0.098900    1.875589    1.960921
     32          6           0        0.783113    2.888363    2.660482
     33          7           0        1.059850    4.105127    2.191910
     34          6           0        0.642953    4.378797    0.949366
     35          6           0       -0.071278    3.478906    0.166053
     36          6           0       -0.368084    2.206853    0.671954
     37          7           0       -1.145272    1.322046   -0.116969
     38          6           0       -0.884760    1.019955   -1.464976
     39          6           0        0.264081    1.266914   -2.219820
     40          6           0        0.271691    0.837024   -3.545225
     41          6           0       -0.830102    0.168862   -4.105293
     42          6           0       -1.965250   -0.087536   -3.342400
     43          6           0       -2.000026    0.340019   -2.010497
     44          6           0       -2.995018    0.252453   -0.961094
     45          6           0       -4.296992   -0.253634   -0.924768
     46          6           0       -5.048420   -0.133139    0.248008
     47          7           0       -6.372484   -0.659510    0.314862
     48          6           0       -7.426494    0.153937    0.807540
     49          6           0       -8.433441   -0.392694    1.621470
     50          6           0       -9.463702    0.412103    2.102902
     51          6           0       -9.502991    1.775479    1.801973
     52          6           0       -8.498379    2.323951    1.002422
     53          6           0       -7.473221    1.524149    0.500765
     54          6           0       -6.625580   -1.980363   -0.139210
     55          6           0       -5.713038   -3.013642    0.132927
     56          6           0       -5.954552   -4.306756   -0.326202
     57          6           0       -7.112720   -4.601088   -1.048947
     58          6           0       -8.025658   -3.578398   -1.314959
     59          6           0       -7.784982   -2.278161   -0.875254
     60          6           0       -4.493562    0.521324    1.368728
     61          6           0       -3.206604    1.049442    1.343015
     62          6           0       -2.448881    0.886824    0.181657
     63          6           0        7.304833   -1.644785   -0.061090
     64          6           0        8.173445   -2.655557   -0.467635
     65          1           0        9.721009   -3.246691   -1.854322
     66          1           0        9.682618   -1.068779   -3.064487
     67          1           0        8.122877    0.717110   -2.369409
     68          1           0        8.769663    1.550728    0.419325
     69          1           0        9.483691    3.915118    0.427174
     70          1           0        7.910135    5.707731   -0.294606
     71          1           0        5.614440    5.087843   -1.038391
     72          1           0        4.912964    2.718784   -1.077547
     73          1           0        5.105450    1.482879    1.827167
     74          1           0        2.805253    0.946972    2.542931
     75          1           0        4.716676   -1.044150   -1.629431
     76          1           0        2.819074   -2.780672   -2.619610
     77          1           0        0.790612   -4.156696   -3.024273
     78          1           0       -1.164537   -3.985274   -1.513576
     79          1           0       -1.141964   -2.449624    0.432037
     80          1           0        0.410513   -2.787605    2.637029
     81          1           0       -0.891318   -2.549403    4.748958
     82          1           0       -1.157228    1.530090    4.268708
     83          1           0        1.141039    2.673828    3.666689
     84          1           0        0.872041    5.373094    0.570804
     85          1           0       -0.424812    3.761796   -0.819649
     86          1           0        1.126700    1.765325   -1.790432
     87          1           0        1.153259    1.018879   -4.153639
     88          1           0       -0.791082   -0.154913   -5.141355
     89          1           0       -2.813676   -0.612478   -3.773312
     90          1           0       -4.731995   -0.731266   -1.797257
     91          1           0       -8.401301   -1.447824    1.873423
     92          1           0      -10.232694   -0.029641    2.731511
     93          1           0      -10.303858    2.400847    2.185944
     94          1           0       -8.516656    3.381887    0.753238
     95          1           0       -6.703617    1.955063   -0.131530
     96          1           0       -4.818255   -2.794749    0.706849
     97          1           0       -5.237272   -5.092615   -0.103076
     98          1           0       -7.301015   -5.611905   -1.399253
     99          1           0       -8.928423   -3.787899   -1.883099
    100          1           0       -8.492551   -1.486250   -1.098834
    101          1           0       -5.092192    0.617359    2.268643
    102          1           0       -2.813054    1.564153    2.211441
    103          1           0        6.642842   -1.800098    0.784790
    104          1           0        8.180510   -3.598885    0.072464
 ---------------------------------------------------------------------

 SCF Done:  E(RB3LYP) =  -2562.80451859     A.U. after   16 cycles

 Excitation energies and oscillator strengths:

 Excited state symmetry could not be determined.
 Excited State   1:      Triplet-?Sym    2.8212 eV  439.47 nm  f=0.0000  <S**2>=2.000
     213 -> 216        0.11075
     214 -> 220       -0.11051
     215 -> 216        0.64722
     215 -> 218       -0.14911
 This state for optimization and/or second-order correction.
 Total Energy, E(TD-HF/TD-DFT) =  -2562.70084095
 Copying the excited state density for this state as the 1-particle RhoCI density.

 Excited state symmetry could not be determined.
 Excited State   2:      Triplet-?Sym    2.8857 eV  429.64 nm  f=0.0000  <S**2>=2.000
     214 -> 216        0.59683
     214 -> 218       -0.21199
     215 -> 220       -0.19826

 Excited state symmetry could not be determined.
 Excited State   3:      Singlet-?Sym    2.8964 eV  428.06 nm  f=0.0069  <S**2>=0.000
     215 -> 216        0.70097

 Excited state symmetry could not be determined.
 Excited State   4:      Singlet-?Sym    2.9576 eV  419.21 nm  f=0.0276  <S**2>=0.000
     214 -> 216        0.70061

 Alpha  occ. eigenvalues --  -14.39168 -14.39139 -14.36061 -14.36050 -14.34195
 Alpha  occ. eigenvalues --  -14.34194 -10.26444 -10.26435 -10.23784 -10.23783
 Alpha  occ. eigenvalues --  -10.23627 -10.23620 -10.23104 -10.23061 -10.22951
 Alpha  occ. eigenvalues --  -10.22926 -10.22813 -10.22784 -10.22738 -10.22685
 Alpha  occ. eigenvalues --  -10.22656 -10.22646 -10.22616 -10.22606 -10.21267
 Alpha  occ. eigenvalues --  -10.21257 -10.19665 -10.19650 -10.19618 -10.19584
 Alpha  occ. eigenvalues --  -10.19293 -10.19272 -10.19259 -10.19241 -10.19231
 Alpha  occ. eigenvalues --  -10.19202 -10.19199 -10.19189 -10.19180 -10.19172
 Alpha  occ. eigenvalues --  -10.19121 -10.19101 -10.18876 -10.18838 -10.18805
 Alpha  occ. eigenvalues --  -10.18796 -10.18741 -10.18728 -10.18725 -10.18724
 Alpha  occ. eigenvalues --  -10.18564 -10.18548 -10.18508 -10.18460 -10.18445
 Alpha  occ. eigenvalues --  -10.18440 -10.18395 -10.18370 -10.18368 -10.18363
 Alpha  occ. eigenvalues --  -10.18359 -10.18325 -10.18235 -10.18228  -1.00085
 Alpha  occ. eigenvalues --   -0.99665  -0.96025  -0.96017  -0.95556  -0.95203
 Alpha  occ. eigenvalues --   -0.86858  -0.86172  -0.85111  -0.85024  -0.84999
 Alpha  occ. eigenvalues --   -0.84946  -0.83592  -0.83377  -0.82786  -0.80903
 Alpha  occ. eigenvalues --   -0.79732  -0.77599  -0.77567  -0.75824  -0.75806
 Alpha  occ. eigenvalues --   -0.75758  -0.75132  -0.75109  -0.74327  -0.74264
 Alpha  occ. eigenvalues --   -0.73946  -0.73927  -0.73607  -0.73219  -0.72257
 Alpha  occ. eigenvalues --   -0.72202  -0.70572  -0.70355  -0.66908  -0.66168
 Alpha  occ. eigenvalues --   -0.65990  -0.63700  -0.63545  -0.62781  -0.62306
 Alpha  occ. eigenvalues --   -0.61813  -0.61658  -0.61403  -0.59922  -0.59904
 Alpha  occ. eigenvalues --   -0.59840  -0.59807  -0.59530  -0.58638  -0.58224
 Alpha  occ. eigenvalues --   -0.58158  -0.56979  -0.56785  -0.54954  -0.54490
 Alpha  occ. eigenvalues --   -0.53110  -0.53066  -0.52935  -0.52776  -0.52404
 Alpha  occ. eigenvalues --   -0.52167  -0.51427  -0.50341  -0.49748  -0.49547
 Alpha  occ. eigenvalues --   -0.49404  -0.48330  -0.48227  -0.47545  -0.47485
 Alpha  occ. eigenvalues --   -0.47150  -0.47058  -0.45997  -0.45756  -0.45539
 Alpha  occ. eigenvalues --   -0.45205  -0.45204  -0.44536  -0.44471  -0.44401
 Alpha  occ. eigenvalues --   -0.44185  -0.44139  -0.44019  -0.43666  -0.43369
 Alpha  occ. eigenvalues --   -0.43310  -0.43179  -0.43133  -0.42769  -0.42647
 Alpha  occ. eigenvalues --   -0.42312  -0.42173  -0.41846  -0.41791  -0.41757
 Alpha  occ. eigenvalues --   -0.41744  -0.41678  -0.41666  -0.40919  -0.40576
 Alpha  occ. eigenvalues --   -0.39541  -0.39301  -0.39205  -0.38140  -0.37081
 Alpha  occ. eigenvalues --   -0.37026  -0.36963  -0.36918  -0.36275  -0.36255
 Alpha  occ. eigenvalues --   -0.36128  -0.36103  -0.36066  -0.35634  -0.35362
 Alpha  occ. eigenvalues --   -0.35344  -0.34902  -0.34846  -0.34611  -0.34498
 Alpha  occ. eigenvalues --   -0.34059  -0.33943  -0.33852  -0.33809  -0.33706
 Alpha  occ. eigenvalues --   -0.33285  -0.31010  -0.30205  -0.29659  -0.29226
 Alpha  occ. eigenvalues --   -0.28724  -0.28277  -0.28030  -0.27280  -0.26774
 Alpha  occ. eigenvalues --   -0.25998  -0.25754  -0.25645  -0.25396  -0.25384
 Alpha  occ. eigenvalues --   -0.24873  -0.24856  -0.24432  -0.24404  -0.22167
 Alpha  occ. eigenvalues --   -0.22075  -0.21504  -0.21101  -0.17828  -0.17649
 Alpha virt. eigenvalues --   -0.05291  -0.04368  -0.03680  -0.03143  -0.03103
 Alpha virt. eigenvalues --   -0.01333  -0.00785  -0.00768  -0.00612  -0.00563
 Alpha virt. eigenvalues --   -0.00198  -0.00178   0.00997   0.01022   0.01497

 Mulliken charges:
               1
     1  C   -0.129840
     2  C   -0.140298
     3  C   -0.166435
     4  C    0.282917
     5  N   -0.656518
     6  C    0.286223
     7  C   -0.166726
     8  C   -0.139613
     9  C   -0.129702
    10  C   -0.137681
    11  C   -0.166898
    12  C    0.267760
    13  C   -0.178074
    14  C   -0.173580
    15  C    0.307404
    16  C    0.067217
    17  C   -0.252058
    18  C    0.060132
    19  C   -0.193371
    20  C   -0.140858
    21  C   -0.138415
    22  C   -0.174709
    23  C    0.314182
    24  N   -0.746601
    25  C    0.279588
    26  C   -0.163520
    27  C    0.038826
    28  N   -0.405993
    29  C   -0.004035
    30  C    0.025324
    31  C    0.025944
    32  C   -0.003584
    33  N   -0.405522
    34  C    0.038815
    35  C   -0.164094
    36  C    0.280749
    37  N   -0.747245
    38  C    0.314530
    39  C   -0.174192
    40  C   -0.138072
    41  C   -0.140702
    42  C   -0.193204
    43  C    0.060078
    44  C    0.066289
    45  C   -0.247966
    46  C    0.264600
    47  N   -0.655781
    48  C    0.285900
    49  C   -0.165994
    50  C   -0.139722
    51  C   -0.129796
    52  C   -0.139270
    53  C   -0.168755
    54  C    0.286167
    55  C   -0.165505
    56  C   -0.139956
    57  C   -0.130035
    58  C   -0.140123
    59  C   -0.167204
    60  C   -0.178776
    61  C   -0.173185
    62  C    0.307580
    63  C   -0.164633
    64  C   -0.139730
    65  H    0.125865
    66  H    0.129722
    67  H    0.143369
    68  H    0.143676
    69  H    0.129855
    70  H    0.125895
    71  H    0.128127
    72  H    0.137832
    73  H    0.148320
    74  H    0.140526
    75  H    0.146537
    76  H    0.133657
    77  H    0.126287
    78  H    0.130286
    79  H    0.146557
    80  H    0.164323
    81  H    0.152199
    82  H    0.155204
    83  H    0.155180
    84  H    0.151584
    85  H    0.164309
    86  H    0.146315
    87  H    0.129881
    88  H    0.126404
    89  H    0.133567
    90  H    0.145983
    91  H    0.143512
    92  H    0.129892
    93  H    0.125825
    94  H    0.129396
    95  H    0.141502
    96  H    0.138457
    97  H    0.127464
    98  H    0.125594
    99  H    0.129998
   100  H    0.144152
   101  H    0.148564
   102  H    0.140696
   103  H    0.141388
   104  H    0.129847
 Sum of Mulliken charges =  -0.00000

 Dipole moment (field-independent basis, Debye):
    X=              0.0394    Y=             -0.9762    Z=             -1.9028  Tot=              2.1389
 Quadrupole moment (field-independent basis, Debye-Ang):
   XX=           -354.5919   YY=           -346.3656   ZZ=           -362.8313
   XY=             -1.3026   XZ=             -1.6036   YZ=             -3.4667

 Normal termination of Gaussian 16 at Sat Nov  5 11:33:53 2022.
