 Gaussian 16, Revision B.01,
 Gaussian 16:  ES64L-G16RevB.01 20-Dec-2017

 -------------------------------------------------------------------
 #p b3lyp/6-31g(d) 6D 10F nosymm GFInput td=(50-50,nstate=2) SCF=XQC
 -------------------------------------------------------------------

 ------------------------------
 Gaussian input prepared by ASE
 ------------------------------
 Symbolic Z-matrix:
 Charge =  0 Multiplicity = 1

                          Input orientation:
 ---------------------------------------------------------------------
 Center     Atomic      Atomic             Coordinates (Angstroms)
 Number     Number       Type             X           Y           Z
 ---------------------------------------------------------------------
      1          6           0       -7.104117   -0.588171   -3.925208
      2          6           0       -7.966938   -0.439139   -2.837990
      3          6           0       -7.462308   -0.079367   -1.588037
      4          6           0       -6.086847    0.130162   -1.408623
      5          6           0       -5.523650    0.467173   -0.075309
      6          7           0       -4.387073   -0.180034    0.255390
      7          6           0       -3.840735    0.009102    1.462474
      8          6           0       -2.588916   -0.729577    1.770701
      9          6           0       -1.955657   -0.570217    3.012764
     10          6           0       -0.778945   -1.261884    3.291012
     11          6           0       -0.223322   -2.125046    2.347000
     12          6           0       -0.844580   -2.280814    1.100390
     13          7           0       -0.279682   -3.152387    0.128945
     14          6           0       -0.931565   -4.229201   -0.483834
     15          6           0       -2.231913   -4.704478   -0.294277
     16          6           0       -2.627170   -5.821488   -1.027498
     17          6           0       -1.752144   -6.456834   -1.925547
     18          6           0       -0.454657   -5.985419   -2.102438
     19          6           0       -0.031161   -4.864867   -1.377721
     20          6           0        1.216064   -4.135944   -1.302990
     21          6           0        2.454680   -4.256443   -1.943118
     22          6           0        3.465710   -3.349752   -1.650995
     23          6           0        3.272770   -2.294924   -0.726879
     24          6           0        4.367929   -1.330281   -0.450284
     25          6           0        4.575507   -0.830705    0.857188
     26          6           0        5.588081    0.073479    1.159325
     27          6           0        6.426610    0.488303    0.121645
     28          6           0        6.239294    0.017395   -1.201772
     29          6           0        5.213230   -0.889870   -1.477067
     30          6           0        7.238857    0.669175   -2.023323
     31          6           0        7.562149    0.605453   -3.383550
     32          6           0        8.625202    1.364426   -3.864533
     33          6           0        9.371381    2.179824   -2.996368
     34          6           0        9.070448    2.262222   -1.638330
     35          6           0        7.993398    1.508449   -1.164094
     36          7           0        7.493554    1.392771    0.139093
     37          6           0        7.985186    2.076855    1.283347
     38          6           0        8.066505    3.475285    1.285679
     39          6           0        8.558612    4.141805    2.407575
     40          6           0        8.952923    3.423784    3.538317
     41          6           0        8.861944    2.030469    3.538593
     42          6           0        8.389704    1.354924    2.413563
     43          6           0        2.035366   -2.167191   -0.079431
     44          6           0        1.028911   -3.090935   -0.363399
     45          6           0       -2.019274   -1.582172    0.814178
     46          7           0       -4.338135    0.810261    2.430078
     47          6           0       -5.429406    1.482400    2.093247
     48          6           0       -6.085604    1.380928    0.826755
     49          6           0       -7.200951    2.350755    0.821686
     50          6           0       -8.143767    2.795516   -0.087587
     51          6           0       -9.059617    3.811857    0.304990
     52          6           0       -9.048827    4.382835    1.564957
     53          6           0       -8.081100    3.965363    2.521894
     54          6           0       -7.900907    4.456133    3.845515
     55          6           0       -6.882786    3.963228    4.647855
     56          6           0       -5.980371    2.964560    4.195285
     57          6           0       -6.143374    2.468002    2.918418
     58          6           0       -7.188136    2.963260    2.106824
     59          6           0       -5.224704   -0.047931   -2.501714
     60          6           0       -5.731527   -0.392824   -3.752629
     61          1           0       -7.497639   -0.864205   -4.899817
     62          1           0       -9.032903   -0.612601   -2.959111
     63          1           0       -8.133955    0.010684   -0.739648
     64          1           0       -2.397900    0.095721    3.744491
     65          1           0       -0.295734   -1.139909    4.256536
     66          1           0        0.678980   -2.686304    2.568867
     67          1           0       -2.912374   -4.222467    0.399639
     68          1           0       -3.634848   -6.207408   -0.898907
     69          1           0       -2.092638   -7.324633   -2.483428
     70          1           0        0.223888   -6.482276   -2.791174
     71          1           0        2.629037   -5.056225   -2.658404
     72          1           0        4.437221   -3.463681   -2.122274
     73          1           0        3.934997   -1.183948    1.659971
     74          1           0        5.720781    0.437711    2.172712
     75          1           0        5.049145   -1.232082   -2.494988
     76          1           0        6.991852   -0.032281   -4.053994
     77          1           0        8.884486    1.324401   -4.918663
     78          1           0       10.203596    2.758022   -3.388864
     79          1           0        9.657283    2.886773   -0.972936
     80          1           0        7.733729    4.029834    0.413840
     81          1           0        8.620193    5.226635    2.401328
     82          1           0        9.328560    3.946525    4.413397
     83          1           0        9.172425    1.463637    4.412085
     84          1           0        8.341634    0.270543    2.398438
     85          1           0        1.855851   -1.342443    0.601845
     86          1           0       -2.498397   -1.689051   -0.151673
     87          1           0       -8.201111    2.394278   -1.093354
     88          1           0       -9.795111    4.146955   -0.421339
     89          1           0       -9.770537    5.153966    1.822440
     90          1           0       -8.564750    5.228121    4.227254
     91          1           0       -6.764429    4.357177    5.653465
     92          1           0       -5.183503    2.608406    4.841396
     93          1           0       -4.158032    0.087449   -2.355973
     94          1           0       -5.053936   -0.515573   -4.593179
 ---------------------------------------------------------------------

 SCF Done:  E(RB3LYP) =  -2373.55103690     A.U. after   16 cycles

 Excitation energies and oscillator strengths:

 Excited state symmetry could not be determined.
 Excited State   1:      Triplet-?Sym    2.2637 eV  547.71 nm  f=0.0000  <S**2>=2.000
     194 ->200         0.20193
     195 ->200         0.61237
     198 ->200        -0.15988
 This state for optimization and/or second-order correction.
 Total Energy, E(TD-HF/TD-DFT) =  -2373.46784881
 Copying the excited state density for this state as the 1-particle RhoCI density.

 Excited state symmetry could not be determined.
 Excited State   2:      Triplet-?Sym    2.4854 eV  498.85 nm  f=0.0000  <S**2>=2.000
     198 ->200        -0.19206
     199 ->200         0.67170

 Excited state symmetry could not be determined.
 Excited State   3:      Singlet-?Sym    2.4881 eV  498.31 nm  f=0.0005  <S**2>=0.000
     198 ->200        -0.10567
     199 ->200         0.69685

 Excited state symmetry could not be determined.
 Excited State   4:      Singlet-?Sym    2.5626 eV  483.83 nm  f=0.0064  <S**2>=0.000
     198 ->200         0.69613
     199 ->200         0.10589

 Alpha  occ. eigenvalues --  -14.37988 -14.37406 -14.33484 -14.33106 -10.26096
 Alpha  occ. eigenvalues --  -10.24749 -10.24141 -10.23851 -10.23232 -10.22126
 Alpha  occ. eigenvalues --  -10.22065 -10.21659 -10.21606 -10.21057 -10.21038
 Alpha  occ. eigenvalues --  -10.20993 -10.20989 -10.20909 -10.20783 -10.20684
 Alpha  occ. eigenvalues --  -10.20621 -10.20485 -10.20346 -10.20173 -10.20041
 Alpha  occ. eigenvalues --  -10.20035 -10.19982 -10.19928 -10.19927 -10.19795
 Alpha  occ. eigenvalues --  -10.19717 -10.19649 -10.19591 -10.19583 -10.19395
 Alpha  occ. eigenvalues --  -10.19391 -10.19347 -10.19306 -10.19024 -10.18918
 Alpha  occ. eigenvalues --  -10.18906 -10.18648 -10.18549 -10.18536 -10.18517
 Alpha  occ. eigenvalues --  -10.18462 -10.18450 -10.18428 -10.18315 -10.18300
 Alpha  occ. eigenvalues --  -10.18155 -10.18064 -10.17992 -10.17973 -10.17939
 Alpha  occ. eigenvalues --  -10.17916 -10.17891 -10.17854 -10.17398 -10.17343
 Alpha  occ. eigenvalues --   -0.98697  -0.98625  -0.98146  -0.90589  -0.89010
 Alpha  occ. eigenvalues --   -0.86926  -0.86598  -0.85615  -0.84997  -0.83817
 Alpha  occ. eigenvalues --   -0.83767  -0.83297  -0.83124  -0.82739  -0.79016
 Alpha  occ. eigenvalues --   -0.78096  -0.77485  -0.75888  -0.75659  -0.75494
 Alpha  occ. eigenvalues --   -0.75180  -0.75033  -0.74934  -0.74373  -0.73976
 Alpha  occ. eigenvalues --   -0.73909  -0.72680  -0.72158  -0.71250  -0.70615
 Alpha  occ. eigenvalues --   -0.69411  -0.67124  -0.66502  -0.64591  -0.63943
 Alpha  occ. eigenvalues --   -0.63301  -0.62483  -0.62121  -0.61546  -0.61168
 Alpha  occ. eigenvalues --   -0.61001  -0.60432  -0.60044  -0.58977  -0.58850
 Alpha  occ. eigenvalues --   -0.57644  -0.57435  -0.57155  -0.56333  -0.55925
 Alpha  occ. eigenvalues --   -0.53700  -0.53555  -0.52765  -0.52485  -0.51943
 Alpha  occ. eigenvalues --   -0.51473  -0.51275  -0.51139  -0.50320  -0.49842
 Alpha  occ. eigenvalues --   -0.48841  -0.48314  -0.47903  -0.47678  -0.46739
 Alpha  occ. eigenvalues --   -0.46364  -0.46111  -0.45779  -0.45307  -0.45209
 Alpha  occ. eigenvalues --   -0.44778  -0.44571  -0.44292  -0.44212  -0.43806
 Alpha  occ. eigenvalues --   -0.43739  -0.43338  -0.43081  -0.42946  -0.42699
 Alpha  occ. eigenvalues --   -0.42660  -0.42397  -0.42241  -0.42055  -0.41978
 Alpha  occ. eigenvalues --   -0.41819  -0.41470  -0.41332  -0.40978  -0.40792
 Alpha  occ. eigenvalues --   -0.40659  -0.40504  -0.40409  -0.38764  -0.38320
 Alpha  occ. eigenvalues --   -0.37357  -0.37264  -0.37026  -0.36796  -0.36555
 Alpha  occ. eigenvalues --   -0.36103  -0.35923  -0.35622  -0.35329  -0.35201
 Alpha  occ. eigenvalues --   -0.35093  -0.35082  -0.34979  -0.34699  -0.34441
 Alpha  occ. eigenvalues --   -0.34323  -0.34091  -0.33927  -0.33285  -0.33115
 Alpha  occ. eigenvalues --   -0.32703  -0.32380  -0.32190  -0.31565  -0.31050
 Alpha  occ. eigenvalues --   -0.29940  -0.27943  -0.27057  -0.26867  -0.26032
 Alpha  occ. eigenvalues --   -0.25807  -0.25678  -0.25539  -0.25343  -0.25093
 Alpha  occ. eigenvalues --   -0.24563  -0.24525  -0.24299  -0.23832  -0.21916
 Alpha  occ. eigenvalues --   -0.21340  -0.20497  -0.19039  -0.18461
 Alpha virt. eigenvalues --   -0.08383  -0.05850  -0.02929  -0.02687  -0.02333
 Alpha virt. eigenvalues --   -0.01684  -0.01399  -0.01101  -0.00692  -0.00473
 Alpha virt. eigenvalues --    0.00831   0.01018   0.01534   0.03028   0.03270

 Mulliken charges:
               1
     1  C   -0.120629
     2  C   -0.140952
     3  C   -0.174723
     4  C    0.108772
     5  C    0.187038
     6  N   -0.553798
     7  C    0.434723
     8  C    0.063740
     9  C   -0.155870
    10  C   -0.148355
    11  C   -0.144118
    12  C    0.269205
    13  N   -0.742068
    14  C    0.314646
    15  C   -0.174550
    16  C   -0.142174
    17  C   -0.145320
    18  C   -0.198334
    19  C    0.057605
    20  C    0.064182
    21  C   -0.203315
    22  C   -0.196880
    23  C    0.089789
    24  C    0.080673
    25  C   -0.190523
    26  C   -0.178952
    27  C    0.317637
    28  C    0.065784
    29  C   -0.258752
    30  C    0.057776
    31  C   -0.196651
    32  C   -0.145282
    33  C   -0.141813
    34  C   -0.176719
    35  C    0.311338
    36  N   -0.736910
    37  C    0.264821
    38  C   -0.149236
    39  C   -0.142829
    40  C   -0.121448
    41  C   -0.142894
    42  C   -0.149483
    43  C   -0.242661
    44  C    0.319926
    45  C   -0.199447
    46  N   -0.568556
    47  C    0.206959
    48  C    0.030326
    49  C    0.114622
    50  C   -0.225569
    51  C   -0.131910
    52  C   -0.202399
    53  C    0.188665
    54  C   -0.197494
    55  C   -0.135549
    56  C   -0.199201
    57  C    0.149334
    58  C   -0.082144
    59  C   -0.145183
    60  C   -0.137207
    61  H    0.134391
    62  H    0.134015
    63  H    0.145646
    64  H    0.157803
    65  H    0.135643
    66  H    0.150082
    67  H    0.143591
    68  H    0.125513
    69  H    0.121099
    70  H    0.127070
    71  H    0.128518
    72  H    0.124724
    73  H    0.127107
    74  H    0.139270
    75  H    0.134805
    76  H    0.130935
    77  H    0.123728
    78  H    0.126000
    79  H    0.138856
    80  H    0.152772
    81  H    0.138150
    82  H    0.134760
    83  H    0.138262
    84  H    0.152806
    85  H    0.143616
    86  H    0.177189
    87  H    0.157815
    88  H    0.136860
    89  H    0.137106
    90  H    0.138643
    91  H    0.138700
    92  H    0.155481
    93  H    0.153211
    94  H    0.138171
 Sum of Mulliken charges =  -0.00000

 Dipole moment (field-independent basis, Debye):
    X=             -2.6859    Y=              3.9886    Z=              1.9698  Tot=              5.1964
 Quadrupole moment (field-independent basis, Debye-Ang):
   XX=           -278.4081   YY=           -325.2410   ZZ=           -305.6133
   XY=             -5.3113   XZ=             13.1588   YZ=             15.8664

 Normal termination of Gaussian 16 at Sat Nov  5 11:40:37 2022.
