 Gaussian 16, Revision B.01,
 Gaussian 16:  ES64L-G16RevB.01 20-Dec-2017

 -----------------------------
 #p b3lyp/6-31g(d) opt SCF=XQC
 -----------------------------

 ------------------------------
 Gaussian input prepared by ASE
 ------------------------------
 Symbolic Z-matrix:
 Charge =  0 Multiplicity = 1

 SCF Done:  E(RB3LYP) =  -2127.63071214     A.U. after   14 cycles
 SCF Done:  E(RB3LYP) =  -2127.64127564     A.U. after   15 cycles
 SCF Done:  E(RB3LYP) =  -2127.64233285     A.U. after   12 cycles
 SCF Done:  E(RB3LYP) =  -2127.64244025     A.U. after   12 cycles
 SCF Done:  E(RB3LYP) =  -2127.64283622     A.U. after   11 cycles
 SCF Done:  E(RB3LYP) =  -2127.64285383     A.U. after   11 cycles
 SCF Done:  E(RB3LYP) =  -2127.64296024     A.U. after   10 cycles
 SCF Done:  E(RB3LYP) =  -2127.64298783     A.U. after   12 cycles
 SCF Done:  E(RB3LYP) =  -2127.64299775     A.U. after   10 cycles
 SCF Done:  E(RB3LYP) =  -2127.64299947     A.U. after    9 cycles
 SCF Done:  E(RB3LYP) =  -2127.64300034     A.U. after    9 cycles
 SCF Done:  E(RB3LYP) =  -2127.64300052     A.U. after    7 cycles
 SCF Done:  E(RB3LYP) =  -2127.64300063     A.U. after    7 cycles
 SCF Done:  E(RB3LYP) =  -2127.64300065     A.U. after    7 cycles
 Optimization completed.
    -- Stationary point found.

                         Standard orientation:
 ---------------------------------------------------------------------
 Center     Atomic      Atomic             Coordinates (Angstroms)
 Number     Number       Type             X           Y           Z
 ---------------------------------------------------------------------
      1          6           0       11.352739    2.138015   -0.715743
      2          6           0       11.577216    0.764800   -0.829209
      3          6           0       10.598186   -0.142569   -0.427076
      4          6           0        9.373332    0.302213    0.098416
      5          6           0        8.330617   -0.665749    0.527350
      6          6           0        8.676610   -1.858596    1.183214
      7          6           0        7.692998   -2.768644    1.568425
      8          6           0        6.349787   -2.507757    1.312257
      9          6           0        5.973789   -1.318219    0.669317
     10          6           0        4.536320   -1.047170    0.402910
     11          6           0        4.046690    0.246062    0.184943
     12          6           0        2.677047    0.395672   -0.062529
     13          6           0        2.057736    1.723364   -0.314740
     14          6           0        2.812745    2.810011   -0.782542
     15          6           0        2.203001    4.043867   -0.999035
     16          6           0        0.841989    4.211210   -0.751120
     17          6           0        0.061561    3.138987   -0.285941
     18          6           0       -1.390653    3.310091   -0.018440
     19          6           0       -1.888269    4.503003    0.533325
     20          6           0       -3.251751    4.658459    0.772115
     21          6           0       -4.141974    3.624363    0.483479
     22          6           0       -3.669843    2.418089   -0.056828
     23          6           0       -4.588929    1.306252   -0.448592
     24          7           0       -4.364846    0.789151   -1.632773
     25          6           0       -5.142513   -0.252480   -2.063203
     26          6           0       -4.764007   -0.862662   -3.283604
     27          6           0       -5.431981   -1.971572   -3.756561
     28          6           0       -6.488319   -2.517380   -3.000330
     29          6           0       -6.896476   -1.918240   -1.823660
     30          6           0       -6.273863   -0.737843   -1.336936
     31          6           0       -6.616969   -0.057813   -0.103482
     32          6           0       -5.667954    0.860128    0.411285
     33          6           0       -5.766490    1.292352    1.772737
     34          6           0       -6.808189    0.905429    2.561608
     35          6           0       -7.899922    0.167008    2.014134
     36          6           0       -9.059669   -0.083970    2.786665
     37          6           0      -10.167952   -0.688604    2.232178
     38          6           0      -10.157185   -1.031077    0.866121
     39          6           0       -9.024286   -0.829917    0.100415
     40          6           0       -7.839445   -0.276764    0.654324
     41          6           0       -2.298887    2.284425   -0.314175
     42          6           0        0.687819    1.902750   -0.078614
     43          7           0        1.859372   -0.669395   -0.059757
     44          6           0        2.403526   -1.872962    0.177741
     45          6           0        1.490197   -3.046712    0.182212
     46          6           0        1.988434   -4.336673    0.423445
     47          6           0        1.130912   -5.434405    0.429821
     48          6           0       -0.235002   -5.261041    0.194022
     49          6           0       -0.738184   -3.981126   -0.050498
     50          6           0        0.116919   -2.881439   -0.057137
     51          7           0        3.706690   -2.103294    0.401642
     52          6           0        6.972924   -0.414813    0.280570
     53          6           0        9.162753    1.687092    0.207791
     54          6           0       10.140689    2.595216   -0.195412
     55          1           0       12.115571    2.845371   -1.029495
     56          1           0       12.513861    0.397743   -1.240602
     57          1           0       10.772444   -1.208525   -0.544990
     58          1           0        9.719590   -2.061663    1.409230
     59          1           0        7.976918   -3.683892    2.080962
     60          1           0        5.578040   -3.209851    1.606228
     61          1           0        4.697483    1.108056    0.253476
     62          1           0        3.867882    2.688433   -1.007672
     63          1           0        2.788846    4.876173   -1.379555
     64          1           0        0.372896    5.170985   -0.948061
     65          1           0       -1.200872    5.303061    0.793466
     66          1           0       -3.624483    5.590504    1.188544
     67          1           0       -5.205222    3.763282    0.653949
     68          1           0       -3.914453   -0.435923   -3.807247
     69          1           0       -5.126908   -2.442050   -4.687150
     70          1           0       -6.977347   -3.429243   -3.332316
     71          1           0       -7.665121   -2.402847   -1.236517
     72          1           0       -4.970647    1.900586    2.185528
     73          1           0       -6.846893    1.198189    3.607826
     74          1           0       -9.069560    0.238912    3.824960
     75          1           0      -11.055947   -0.865224    2.832764
     76          1           0      -11.050835   -1.440382    0.403063
     77          1           0       -9.069090   -1.044963   -0.958988
     78          1           0       -1.950436    1.369419   -0.781357
     79          1           0        0.118284    1.060168    0.296296
     80          1           0        3.050535   -4.462182    0.600341
     81          1           0        1.529401   -6.428011    0.617854
     82          1           0       -0.903015   -6.118528    0.198743
     83          1           0       -1.799120   -3.838774   -0.238213
     84          1           0       -0.264355   -1.885413   -0.250771
     85          1           0        6.703756    0.480451   -0.271077
     86          1           0        8.234454    2.052998    0.638105
     87          1           0        9.958884    3.661955   -0.093594
 ---------------------------------------------------------------------

 The electronic state is 1-A.
 Alpha  occ. eigenvalues --  -14.32763 -14.32741 -14.32223 -10.25779 -10.24402
 Alpha  occ. eigenvalues --  -10.24380 -10.23352 -10.21917 -10.21690 -10.20949
 Alpha  occ. eigenvalues --  -10.20697 -10.20561 -10.20514 -10.20393 -10.20279
 Alpha  occ. eigenvalues --  -10.20228 -10.20203 -10.20192 -10.19980 -10.19862
 Alpha  occ. eigenvalues --  -10.19836 -10.19776 -10.19679 -10.19657 -10.19652
 Alpha  occ. eigenvalues --  -10.19643 -10.19596 -10.19575 -10.19522 -10.19521
 Alpha  occ. eigenvalues --  -10.19521 -10.19459 -10.19359 -10.19324 -10.19294
 Alpha  occ. eigenvalues --  -10.19251 -10.19240 -10.19239 -10.19214 -10.19207
 Alpha  occ. eigenvalues --  -10.19189 -10.19175 -10.19163 -10.19128 -10.19075
 Alpha  occ. eigenvalues --  -10.18980 -10.18914 -10.18753 -10.18600 -10.18551
 Alpha  occ. eigenvalues --  -10.18304 -10.18230 -10.18099 -10.18041  -0.98177
 Alpha  occ. eigenvalues --   -0.94369  -0.89366  -0.87872  -0.87147  -0.86735
 Alpha  occ. eigenvalues --   -0.85513  -0.84909  -0.84531  -0.84180  -0.82937
 Alpha  occ. eigenvalues --   -0.80728  -0.79191  -0.78393  -0.77697  -0.76697
 Alpha  occ. eigenvalues --   -0.75909  -0.75030  -0.74812  -0.74698  -0.74552
 Alpha  occ. eigenvalues --   -0.73593  -0.73471  -0.73060  -0.72285  -0.72196
 Alpha  occ. eigenvalues --   -0.71910  -0.66272  -0.65994  -0.65299  -0.64104
 Alpha  occ. eigenvalues --   -0.62894  -0.62455  -0.62230  -0.61949  -0.61331
 Alpha  occ. eigenvalues --   -0.60599  -0.59653  -0.59463  -0.58721  -0.58662
 Alpha  occ. eigenvalues --   -0.58270  -0.57001  -0.56355  -0.54780  -0.53768
 Alpha  occ. eigenvalues --   -0.52658  -0.52601  -0.51619  -0.51508  -0.51060
 Alpha  occ. eigenvalues --   -0.50760  -0.50026  -0.49504  -0.48333  -0.47934
 Alpha  occ. eigenvalues --   -0.47206  -0.47133  -0.46558  -0.46362  -0.46134
 Alpha  occ. eigenvalues --   -0.45673  -0.45082  -0.44438  -0.44201  -0.44061
 Alpha  occ. eigenvalues --   -0.43944  -0.43693  -0.43178  -0.42966  -0.42855
 Alpha  occ. eigenvalues --   -0.42688  -0.42374  -0.42325  -0.42145  -0.42007
 Alpha  occ. eigenvalues --   -0.41863  -0.41779  -0.41428  -0.41214  -0.40829
 Alpha  occ. eigenvalues --   -0.40530  -0.40395  -0.38954  -0.38309  -0.38149
 Alpha  occ. eigenvalues --   -0.37749  -0.36935  -0.36813  -0.36550  -0.36356
 Alpha  occ. eigenvalues --   -0.36235  -0.35962  -0.35780  -0.35523  -0.35243
 Alpha  occ. eigenvalues --   -0.34782  -0.34563  -0.34244  -0.34033  -0.33858
 Alpha  occ. eigenvalues --   -0.33803  -0.33604  -0.33343  -0.32704  -0.32152
 Alpha  occ. eigenvalues --   -0.31814  -0.30213  -0.29797  -0.29465  -0.27576
 Alpha  occ. eigenvalues --   -0.27405  -0.26419  -0.25571  -0.25341  -0.25271
 Alpha  occ. eigenvalues --   -0.24885  -0.24824  -0.24711  -0.24356  -0.24154
 Alpha  occ. eigenvalues --   -0.23003  -0.22700  -0.22429  -0.21802  -0.21265
 Alpha virt. eigenvalues --   -0.06085  -0.05991  -0.05060  -0.04823  -0.02930
 Alpha virt. eigenvalues --   -0.02670  -0.01175  -0.01127  -0.00606  -0.00360
 Alpha virt. eigenvalues --    0.00852   0.00882   0.01708   0.02286   0.03746

 Mulliken charges:
               1
     1  C   -0.126153
     2  C   -0.133420
     3  C   -0.173592
     4  C    0.088186
     5  C    0.084791
     6  C   -0.167936
     7  C   -0.139242
     8  C   -0.155165
     9  C    0.094622
    10  C    0.277817
    11  C   -0.220789
    12  C    0.276046
    13  C    0.095361
    14  C   -0.172414
    15  C   -0.141814
    16  C   -0.166374
    17  C    0.088348
    18  C    0.087563
    19  C   -0.171157
    20  C   -0.139662
    21  C   -0.173772
    22  C    0.099350
    23  C    0.164057
    24  N   -0.559285
    25  C    0.232754
    26  C   -0.153375
    27  C   -0.133858
    28  C   -0.138798
    29  C   -0.212580
    30  C    0.101481
    31  C    0.005381
    32  C    0.084854
    33  C   -0.209486
    34  C   -0.189308
    35  C    0.140388
    36  C   -0.200745
    37  C   -0.127052
    38  C   -0.142932
    39  C   -0.200784
    40  C    0.074311
    41  C   -0.201934
    42  C   -0.212380
    43  N   -0.552827
    44  C    0.444564
    45  C    0.074995
    46  C   -0.161957
    47  C   -0.139184
    48  C   -0.119201
    49  C   -0.140251
    50  C   -0.162656
    51  N   -0.555968
    52  C   -0.229798
    53  C   -0.172151
    54  C   -0.133784
    55  H    0.131230
    56  H    0.132278
    57  H    0.133976
    58  H    0.136029
    59  H    0.135262
    60  H    0.159995
    61  H    0.149150
    62  H    0.131094
    63  H    0.133649
    64  H    0.136180
    65  H    0.132386
    66  H    0.132502
    67  H    0.143201
    68  H    0.146234
    69  H    0.134420
    70  H    0.131854
    71  H    0.148644
    72  H    0.156095
    73  H    0.134298
    74  H    0.133888
    75  H    0.134612
    76  H    0.134116
    77  H    0.153969
    78  H    0.155913
    79  H    0.164072
    80  H    0.155102
    81  H    0.128265
    82  H    0.128637
    83  H    0.134503
    84  H    0.158950
    85  H    0.135799
    86  H    0.129289
    87  H    0.131322
 Sum of Mulliken charges =  -0.00000

 Dipole moment (field-independent basis, Debye):
    X=             -0.4268    Y=              0.9642    Z=              1.3638  Tot=              1.7238
 Quadrupole moment (field-independent basis, Debye-Ang):
   XX=           -244.4637   YY=           -279.6237   ZZ=           -303.1555
   XY=             13.7231   XZ=            -11.3065   YZ=              4.3609

 1\1\GINC-NODE18\FOpt\RB3LYP\6-31G(d)\C51H33N3\WYKGROUP\05-Nov-2022\0\\
 #p b3lyp/6-31g(d) opt SCF=XQC\\Gaussian input prepared by ASE\\0,1\C,1
 1.0284425145,2.9232263794,-1.2866413755\C,11.3632801132,1.5688399425,-
 1.2365903798\C,10.4727448516,0.6447741704,-0.6919992656\C,9.2280878905
 ,1.0538237005,-0.1843104464\C,8.2797697464,0.0681783071,0.3965378063\C
 ,8.7390386451,-1.00104261,1.1830430448\C,7.8437581527,-1.9302579867,1.
 7113412169\C,6.4778151527,-1.8111685326,1.4706773861\C,5.9892358399,-0
 .7459666068,0.6984203819\C,4.5283010435,-0.6255965709,0.4495509213\C,3

 Normal termination of Gaussian 16 at Sat Nov  5 02:07:01 2022.
