 Gaussian 16, Revision B.01,
 Gaussian 16:  ES64L-G16RevB.01 20-Dec-2017

 -------------------------------------------------------------------
 #p b3lyp/6-31g(d) 6D 10F nosymm GFInput td=(50-50,nstate=2) SCF=XQC
 -------------------------------------------------------------------

 ------------------------------
 Gaussian input prepared by ASE
 ------------------------------
 Symbolic Z-matrix:
 Charge =  0 Multiplicity = 1

                          Input orientation:
 ---------------------------------------------------------------------
 Center     Atomic      Atomic             Coordinates (Angstroms)
 Number     Number       Type             X           Y           Z
 ---------------------------------------------------------------------
      1          6           0       11.028443    2.923226   -1.286641
      2          6           0       11.363280    1.568840   -1.236590
      3          6           0       10.472745    0.644774   -0.691999
      4          6           0        9.228088    1.053824   -0.184310
      5          6           0        8.279770    0.068178    0.396538
      6          6           0        8.739039   -1.001043    1.183043
      7          6           0        7.843758   -1.930258    1.711341
      8          6           0        6.477815   -1.811169    1.470677
      9          6           0        5.989236   -0.745967    0.698420
     10          6           0        4.528301   -0.625597    0.449551
     11          6           0        3.928037    0.586809    0.089755
     12          6           0        2.545198    0.594869   -0.127592
     13          6           0        1.812064    1.826739   -0.521205
     14          6           0        2.462979    2.902016   -1.145518
     15          6           0        1.748010    4.046371   -1.492404
     16          6           0        0.384102    4.135225   -1.220965
     17          6           0       -0.293397    3.071862   -0.600176
     18          6           0       -1.748011    3.159676   -0.306677
     19          6           0       -2.329571    4.369479    0.109582
     20          6           0       -3.695172    4.445230    0.373529
     21          6           0       -4.503177    3.315644    0.245767
     22          6           0       -3.945627    2.092055   -0.156604
     23          6           0       -4.778396    0.870281   -0.376019
     24          7           0       -4.540472    0.227154   -1.493906
     25          6           0       -5.239095   -0.918868   -1.765182
     26          6           0       -4.840465   -1.646363   -2.912706
     27          6           0       -5.425237   -2.855584   -3.221551
     28          6           0       -6.414344   -3.383536   -2.367985
     29          6           0       -6.842641   -2.674835   -1.261451
     30          6           0       -6.308662   -1.396784   -0.946271
     31          6           0       -6.677505   -0.595766    0.204336
     32          6           0       -5.795905    0.452191    0.568749
     33          6           0       -5.897488    1.043739    1.868684
     34          6           0       -6.884412    0.678179    2.734426
     35          6           0       -7.923867   -0.207715    2.320182
     36          6           0       -9.040066   -0.450276    3.156887
     37          6           0      -10.107273   -1.206078    2.719669
     38          6           0      -10.100686   -1.716420    1.407029
     39          6           0       -9.006942   -1.524387    0.584182
     40          6           0       -7.859206   -0.813493    1.024603
     41          6           0       -2.574830    2.036100   -0.441910
     42          6           0        0.438004    1.925305   -0.262648
     43          7           0        1.818982   -0.522780    0.035008
     44          6           0        2.466594   -1.639733    0.401202
     45          6           0        1.654136   -2.872219    0.582213
     46          6           0        2.263257   -4.077770    0.964383
     47          6           0        1.500137   -5.230423    1.135962
     48          6           0        0.119322   -5.197104    0.927119
     49          6           0       -0.493972   -4.002296    0.543103
     50          6           0        0.266570   -2.847934    0.371104
     51          7           0        3.789336   -1.735861    0.607442
     52          6           0        6.900449    0.177466    0.166910
     53          6           0        8.906032    2.420330   -0.240337
     54          6           0        9.795390    3.344919   -0.786046
     55          1           0       11.722282    3.643534   -1.711435
     56          1           0       12.317075    1.228202   -1.630952
     57          1           0       10.731959   -0.410334   -0.682736
     58          1           0        9.800356   -1.090578    1.396857
     59          1           0        8.214745   -2.748012    2.323412
     60          1           0        5.774187   -2.529479    1.875504
     61          1           0        4.506537    1.499428    0.028722
     62          1           0        3.518900    2.837037   -1.389622
     63          1           0        2.253568    4.867762   -1.992875
     64          1           0       -0.167542    5.022188   -1.519275
     65          1           0       -1.704901    5.247961    0.244997
     66          1           0       -4.133900    5.389893    0.683657
     67          1           0       -5.569920    3.390222    0.433792
     68          1           0       -4.041952   -1.223169   -3.513816
     69          1           0       -5.104449   -3.414155   -4.096485
     70          1           0       -6.833823   -4.365916   -2.567543
     71          1           0       -7.554234   -3.140813   -0.592948
     72          1           0       -5.145229    1.760425    2.175570
     73          1           0       -6.922329    1.096749    3.736993
     74          1           0       -9.051964   -0.000637    4.146882
     75          1           0      -10.962996   -1.375281    3.367389
     76          1           0      -10.968085   -2.250508    1.028964
     77          1           0       -9.058982   -1.874400   -0.438252
     78          1           0       -2.162915    1.099950   -0.803657
     79          1           0       -0.050586    1.094338    0.232979
     80          1           0        3.336020   -4.095301    1.119220
     81          1           0        1.984034   -6.157562    1.432033
     82          1           0       -0.474963   -6.097380    1.060826
     83          1           0       -1.567229   -3.969383    0.375410
     84          1           0       -0.200510   -1.917744    0.068591
     85          1           0        6.544884    0.971689   -0.481970
     86          1           0        7.961099    2.762880    0.172647
     87          1           0        9.528208    4.398171   -0.811112
 ---------------------------------------------------------------------

 SCF Done:  E(RB3LYP) =  -2127.64299726     A.U. after   14 cycles

 Excitation energies and oscillator strengths:

 Excited state symmetry could not be determined.
 Excited State   1:      Triplet-?Sym    2.4777 eV  500.41 nm  f=0.0000  <S**2>=2.000
     168 ->189        -0.12106
     179 ->181         0.34374
     179 ->182         0.18263
     179 ->184         0.10456
     180 ->181         0.34467
     180 ->182         0.20663
     180 ->183         0.10143
     180 ->184        -0.33278
 This state for optimization and/or second-order correction.
 Total Energy, E(TD-HF/TD-DFT) =  -2127.55194516
 Copying the excited state density for this state as the 1-particle RhoCI density.

 Excited state symmetry could not be determined.
 Excited State   2:      Triplet-?Sym    2.9219 eV  424.32 nm  f=0.0000  <S**2>=2.000
     175 ->182        -0.10222
     176 ->183        -0.15813
     176 ->185         0.11358
     176 ->186         0.11192
     177 ->182         0.15647
     178 ->183        -0.32562
     179 ->181         0.24691
     179 ->184         0.10938
     180 ->181        -0.23100
     180 ->182        -0.10629

 Excited state symmetry could not be determined.
 Excited State   3:      Singlet-?Sym    3.5135 eV  352.88 nm  f=0.0342  <S**2>=0.000
     179 ->181        -0.14311
     179 ->184         0.26888
     180 ->181         0.52235
     180 ->182         0.25865
     180 ->184         0.18199

 Excited state symmetry could not be determined.
 Excited State   4:      Singlet-?Sym    3.7166 eV  333.60 nm  f=0.0056  <S**2>=0.000
     179 ->181         0.49341
     179 ->182         0.24243
     180 ->181         0.20159
     180 ->182         0.13045
     180 ->184        -0.29815

 Alpha  occ. eigenvalues --  -14.32763 -14.32741 -14.32223 -10.25778 -10.24402
 Alpha  occ. eigenvalues --  -10.24380 -10.23352 -10.21917 -10.21690 -10.20948
 Alpha  occ. eigenvalues --  -10.20697 -10.20561 -10.20514 -10.20393 -10.20279
 Alpha  occ. eigenvalues --  -10.20228 -10.20204 -10.20192 -10.19980 -10.19861
 Alpha  occ. eigenvalues --  -10.19836 -10.19776 -10.19679 -10.19657 -10.19653
 Alpha  occ. eigenvalues --  -10.19643 -10.19596 -10.19575 -10.19522 -10.19521
 Alpha  occ. eigenvalues --  -10.19521 -10.19459 -10.19359 -10.19324 -10.19294
 Alpha  occ. eigenvalues --  -10.19251 -10.19240 -10.19239 -10.19214 -10.19207
 Alpha  occ. eigenvalues --  -10.19189 -10.19176 -10.19163 -10.19129 -10.19075
 Alpha  occ. eigenvalues --  -10.18980 -10.18914 -10.18753 -10.18600 -10.18551
 Alpha  occ. eigenvalues --  -10.18304 -10.18230 -10.18099 -10.18041  -0.98177
 Alpha  occ. eigenvalues --   -0.94369  -0.89366  -0.87872  -0.87147  -0.86735
 Alpha  occ. eigenvalues --   -0.85513  -0.84909  -0.84531  -0.84180  -0.82937
 Alpha  occ. eigenvalues --   -0.80728  -0.79191  -0.78393  -0.77697  -0.76697
 Alpha  occ. eigenvalues --   -0.75909  -0.75030  -0.74812  -0.74698  -0.74552
 Alpha  occ. eigenvalues --   -0.73593  -0.73471  -0.73060  -0.72285  -0.72196
 Alpha  occ. eigenvalues --   -0.71910  -0.66272  -0.65994  -0.65299  -0.64104
 Alpha  occ. eigenvalues --   -0.62894  -0.62455  -0.62230  -0.61949  -0.61331
 Alpha  occ. eigenvalues --   -0.60599  -0.59653  -0.59463  -0.58721  -0.58662
 Alpha  occ. eigenvalues --   -0.58270  -0.57001  -0.56355  -0.54780  -0.53768
 Alpha  occ. eigenvalues --   -0.52658  -0.52601  -0.51619  -0.51508  -0.51060
 Alpha  occ. eigenvalues --   -0.50760  -0.50026  -0.49504  -0.48333  -0.47934
 Alpha  occ. eigenvalues --   -0.47206  -0.47133  -0.46558  -0.46362  -0.46134
 Alpha  occ. eigenvalues --   -0.45673  -0.45082  -0.44438  -0.44201  -0.44061
 Alpha  occ. eigenvalues --   -0.43944  -0.43693  -0.43178  -0.42966  -0.42855
 Alpha  occ. eigenvalues --   -0.42688  -0.42374  -0.42325  -0.42145  -0.42007
 Alpha  occ. eigenvalues --   -0.41863  -0.41779  -0.41428  -0.41214  -0.40829
 Alpha  occ. eigenvalues --   -0.40530  -0.40395  -0.38954  -0.38309  -0.38149
 Alpha  occ. eigenvalues --   -0.37749  -0.36935  -0.36813  -0.36550  -0.36356
 Alpha  occ. eigenvalues --   -0.36235  -0.35962  -0.35780  -0.35523  -0.35243
 Alpha  occ. eigenvalues --   -0.34782  -0.34563  -0.34244  -0.34033  -0.33858
 Alpha  occ. eigenvalues --   -0.33803  -0.33604  -0.33343  -0.32704  -0.32152
 Alpha  occ. eigenvalues --   -0.31814  -0.30213  -0.29797  -0.29465  -0.27576
 Alpha  occ. eigenvalues --   -0.27405  -0.26419  -0.25571  -0.25341  -0.25271
 Alpha  occ. eigenvalues --   -0.24885  -0.24824  -0.24711  -0.24356  -0.24154
 Alpha  occ. eigenvalues --   -0.23003  -0.22700  -0.22429  -0.21802  -0.21265
 Alpha virt. eigenvalues --   -0.06085  -0.05991  -0.05060  -0.04823  -0.02930
 Alpha virt. eigenvalues --   -0.02670  -0.01175  -0.01127  -0.00606  -0.00360
 Alpha virt. eigenvalues --    0.00852   0.00882   0.01708   0.02286   0.03746

 Mulliken charges:
               1
     1  C   -0.126154
     2  C   -0.133419
     3  C   -0.173588
     4  C    0.088184
     5  C    0.084783
     6  C   -0.167934
     7  C   -0.139240
     8  C   -0.155167
     9  C    0.094614
    10  C    0.277820
    11  C   -0.220798
    12  C    0.276055
    13  C    0.095358
    14  C   -0.172417
    15  C   -0.141814
    16  C   -0.166371
    17  C    0.088344
    18  C    0.087574
    19  C   -0.171165
    20  C   -0.139652
    21  C   -0.173777
    22  C    0.099359
    23  C    0.164073
    24  N   -0.559292
    25  C    0.232775
    26  C   -0.153384
    27  C   -0.133863
    28  C   -0.138808
    29  C   -0.212592
    30  C    0.101466
    31  C    0.005398
    32  C    0.084846
    33  C   -0.209476
    34  C   -0.189323
    35  C    0.140399
    36  C   -0.200749
    37  C   -0.127051
    38  C   -0.142928
    39  C   -0.200789
    40  C    0.074307
    41  C   -0.201935
    42  C   -0.212377
    43  N   -0.552832
    44  C    0.444579
    45  C    0.074983
    46  C   -0.161948
    47  C   -0.139184
    48  C   -0.119205
    49  C   -0.140250
    50  C   -0.162656
    51  N   -0.555978
    52  C   -0.229784
    53  C   -0.172150
    54  C   -0.133785
    55  H    0.131230
    56  H    0.132278
    57  H    0.133975
    58  H    0.136029
    59  H    0.135262
    60  H    0.159996
    61  H    0.149153
    62  H    0.131096
    63  H    0.133648
    64  H    0.136180
    65  H    0.132386
    66  H    0.132501
    67  H    0.143200
    68  H    0.146238
    69  H    0.134423
    70  H    0.131858
    71  H    0.148647
    72  H    0.156093
    73  H    0.134299
    74  H    0.133888
    75  H    0.134612
    76  H    0.134116
    77  H    0.153969
    78  H    0.155904
    79  H    0.164071
    80  H    0.155101
    81  H    0.128265
    82  H    0.128637
    83  H    0.134503
    84  H    0.158953
    85  H    0.135797
    86  H    0.129288
    87  H    0.131322
 Sum of Mulliken charges =  -0.00000

 Dipole moment (field-independent basis, Debye):
    X=             -0.4727    Y=              1.0917    Z=              1.2474  Tot=              1.7238
 Quadrupole moment (field-independent basis, Debye-Ang):
   XX=           -247.4780   YY=           -276.7646   ZZ=           -302.7329
   XY=             14.6536   XZ=            -15.0816   YZ=             -0.1913

 Normal termination of Gaussian 16 at Sat Nov  5 12:06:39 2022.
