 Gaussian 16, Revision B.01,
 Gaussian 16:  ES64L-G16RevB.01 20-Dec-2017

 -------------------------------------------------------------------
 #p b3lyp/6-31g(d) 6D 10F nosymm GFInput td=(50-50,nstate=2) SCF=XQC
 -------------------------------------------------------------------

 ------------------------------
 Gaussian input prepared by ASE
 ------------------------------
 Symbolic Z-matrix:
 Charge =  0 Multiplicity = 1

                          Input orientation:
 ---------------------------------------------------------------------
 Center     Atomic      Atomic             Coordinates (Angstroms)
 Number     Number       Type             X           Y           Z
 ---------------------------------------------------------------------
      1          6           0       -6.013588    4.688884    0.341462
      2          6           0       -6.952033    3.840217    0.934820
      3          6           0       -6.835863    2.460843    0.795963
      4          6           0       -5.773858    1.901458    0.061972
      5          6           0       -5.731384    0.434484   -0.062704
      6          7           0       -6.810070   -0.315134    0.038338
      7          6           0       -6.385153   -1.619334   -0.118455
      8          6           0       -7.119524   -2.813262   -0.100666
      9          6           0       -6.429088   -4.006983   -0.279110
     10          6           0       -5.032532   -4.024471   -0.473744
     11          6           0       -4.285213   -2.849340   -0.498506
     12          6           0       -4.987742   -1.656239   -0.321321
     13          7           0       -4.574462   -0.325177   -0.289109
     14          6           0       -3.199265    0.076227   -0.282336
     15          6           0       -2.506711    0.163388   -1.505348
     16          6           0       -3.146506   -0.088742   -2.760202
     17          6           0       -2.451731    0.007834   -3.936604
     18          6           0       -1.074189    0.363273   -3.932894
     19          6           0       -0.427922    0.619781   -2.752920
     20          6           0       -1.110264    0.536617   -1.496344
     21          6           0       -0.458575    0.807522   -0.271720
     22          6           0        0.979205    1.231034   -0.269715
     23          6           0        1.286364    2.597883   -0.369185
     24          6           0        2.605670    3.055107   -0.375323
     25          6           0        3.666141    2.149922   -0.282193
     26          6           0        3.379161    0.795373   -0.183030
     27          6           0        2.049870    0.322387   -0.174523
     28          6           0        2.083725   -1.149208   -0.058059
     29          6           0        1.061821   -2.103056   -0.002032
     30          6           0        1.400267   -3.453073    0.111428
     31          6           0        2.738607   -3.854793    0.168659
     32          6           0        3.763856   -2.905911    0.113938
     33          6           0        3.430015   -1.561870    0.001572
     34          6           0        4.373682   -0.362156   -0.072171
     35          6           0        5.319947   -0.242643    1.127606
     36          6           0        5.001527   -0.152341    2.477201
     37          6           0        6.038459   -0.048272    3.410772
     38          6           0        7.373816   -0.035403    2.992627
     39          6           0        7.695849   -0.127280    1.636794
     40          6           0        6.662349   -0.231564    0.703404
     41          6           0        6.693376   -0.345208   -0.761465
     42          6           0        7.765592   -0.382524   -1.655417
     43          6           0        7.501302   -0.501653   -3.021576
     44          6           0        6.184715   -0.583225   -3.488627
     45          6           0        5.109074   -0.545741   -2.594638
     46          6           0        5.369993   -0.425988   -1.235036
     47          6           0       -1.167332    0.711885    0.947081
     48          6           0       -0.541484    0.976124    2.208092
     49          6           0       -1.232430    0.857198    3.384178
     50          6           0       -2.599058    0.461760    3.379134
     51          6           0       -3.243004    0.204896    2.198479
     52          6           0       -2.560382    0.324717    0.947281
     53          6           0       -4.843126    2.761928   -0.542239
     54          6           0       -4.964716    4.144066   -0.399458
     55          1           0       -6.103254    5.766325    0.451531
     56          1           0       -7.776237    4.254876    1.509104
     57          1           0       -7.562260    1.792466    1.245263
     58          1           0       -8.194270   -2.790885    0.051626
     59          1           0       -6.972885   -4.947598   -0.268838
     60          1           0       -4.526942   -4.976643   -0.609094
     61          1           0       -3.210433   -2.862140   -0.650248
     62          1           0       -4.195988   -0.361318   -2.763587
     63          1           0       -2.954268   -0.187863   -4.879770
     64          1           0       -0.535266    0.433314   -4.873665
     65          1           0        0.620620    0.895795   -2.754370
     66          1           0        0.469266    3.310611   -0.442331
     67          1           0        2.805062    4.120302   -0.453357
     68          1           0        4.695326    2.498263   -0.287014
     69          1           0        0.020221   -1.806247   -0.043601
     70          1           0        0.611695   -4.199439    0.156522
     71          1           0        2.983787   -4.909736    0.256916
     72          1           0        4.805063   -3.213906    0.159096
     73          1           0        3.965085   -0.164635    2.804166
     74          1           0        5.804307    0.022209    4.469539
     75          1           0        8.168020    0.045778    3.729964
     76          1           0        8.734977   -0.118314    1.317698
     77          1           0        8.790376   -0.321026   -1.298033
     78          1           0        8.326136   -0.532343   -3.728488
     79          1           0        5.995614   -0.677460   -4.554532
     80          1           0        4.087269   -0.611725   -2.959131
     81          1           0        0.500839    1.274610    2.215388
     82          1           0       -0.736352    1.062132    4.328803
     83          1           0       -3.133645    0.362857    4.319738
     84          1           0       -4.283599   -0.098992    2.200403
     85          1           0       -4.036718    2.360662   -1.143875
     86          1           0       -4.238722    4.795854   -0.878080
 ---------------------------------------------------------------------

 SCF Done:  E(RB3LYP) =  -2110.38497571     A.U. after   17 cycles

 Excitation energies and oscillator strengths:

 Excited state symmetry could not be determined.
 Excited State   1:      Triplet-?Sym    1.7095 eV  725.28 nm  f=0.0000  <S**2>=2.000
     179 ->180         0.69760
     179 <-180         0.13829
 This state for optimization and/or second-order correction.
 Total Energy, E(TD-HF/TD-DFT) =  -2110.32215374
 Copying the excited state density for this state as the 1-particle RhoCI density.

 Excited state symmetry could not be determined.
 Excited State   2:      Triplet-?Sym    3.0121 eV  411.62 nm  f=0.0000  <S**2>=2.000
     172 ->189        -0.11465
     176 ->182         0.10897
     176 ->191         0.11649
     178 ->180         0.11393
     178 ->181         0.14239
     178 ->182        -0.61673

 Excited state symmetry could not be determined.
 Excited State   3:      Singlet-?Sym    3.0591 eV  405.29 nm  f=0.0211  <S**2>=0.000
     178 ->180         0.65407
     179 ->180         0.25988

 Excited state symmetry could not be determined.
 Excited State   4:      Singlet-?Sym    3.0963 eV  400.42 nm  f=0.1661  <S**2>=0.000
     178 ->180        -0.26510
     179 ->180         0.64745

 Alpha  occ. eigenvalues --  -14.38904 -14.30907 -10.25392 -10.23975 -10.21726
 Alpha  occ. eigenvalues --  -10.21681 -10.21280 -10.21193 -10.21161 -10.21071
 Alpha  occ. eigenvalues --  -10.21005 -10.20689 -10.20346 -10.20219 -10.20110
 Alpha  occ. eigenvalues --  -10.20083 -10.19881 -10.19772 -10.19753 -10.19753
 Alpha  occ. eigenvalues --  -10.19747 -10.19716 -10.19675 -10.19645 -10.19644
 Alpha  occ. eigenvalues --  -10.19632 -10.19629 -10.19629 -10.19606 -10.19578
 Alpha  occ. eigenvalues --  -10.19488 -10.19488 -10.19466 -10.19365 -10.19360
 Alpha  occ. eigenvalues --  -10.19296 -10.19288 -10.19260 -10.19249 -10.19211
 Alpha  occ. eigenvalues --  -10.19201 -10.19105 -10.19037 -10.19032 -10.19015
 Alpha  occ. eigenvalues --  -10.19009 -10.18975 -10.18892 -10.18800 -10.18776
 Alpha  occ. eigenvalues --  -10.18612 -10.18358 -10.18077 -10.17966  -1.01485
 Alpha  occ. eigenvalues --   -0.90893  -0.90463  -0.88071  -0.87084  -0.85586
 Alpha  occ. eigenvalues --   -0.85531  -0.84807  -0.84530  -0.83429  -0.81708
 Alpha  occ. eigenvalues --   -0.80523  -0.79182  -0.78625  -0.76822  -0.76644
 Alpha  occ. eigenvalues --   -0.75779  -0.74766  -0.74671  -0.74450  -0.74436
 Alpha  occ. eigenvalues --   -0.74318  -0.73550  -0.71934  -0.71623  -0.71590
 Alpha  occ. eigenvalues --   -0.70523  -0.68507  -0.65900  -0.64110  -0.63574
 Alpha  occ. eigenvalues --   -0.63482  -0.62709  -0.62036  -0.61076  -0.61054
 Alpha  occ. eigenvalues --   -0.59670  -0.58898  -0.58598  -0.58555  -0.58432
 Alpha  occ. eigenvalues --   -0.57722  -0.57688  -0.56841  -0.55485  -0.54518
 Alpha  occ. eigenvalues --   -0.53636  -0.52849  -0.52301  -0.51206  -0.50805
 Alpha  occ. eigenvalues --   -0.49767  -0.49556  -0.49451  -0.48471  -0.47405
 Alpha  occ. eigenvalues --   -0.47177  -0.47016  -0.46913  -0.46768  -0.46095
 Alpha  occ. eigenvalues --   -0.45479  -0.44888  -0.44425  -0.44369  -0.44224
 Alpha  occ. eigenvalues --   -0.44009  -0.43914  -0.43606  -0.43350  -0.43115
 Alpha  occ. eigenvalues --   -0.42955  -0.42576  -0.42137  -0.42009  -0.41816
 Alpha  occ. eigenvalues --   -0.41777  -0.41582  -0.41214  -0.40921  -0.40627
 Alpha  occ. eigenvalues --   -0.40379  -0.39824  -0.38443  -0.38379  -0.38303
 Alpha  occ. eigenvalues --   -0.37191  -0.36999  -0.36531  -0.36366  -0.36010
 Alpha  occ. eigenvalues --   -0.35948  -0.35517  -0.35365  -0.35244  -0.35105
 Alpha  occ. eigenvalues --   -0.35025  -0.34805  -0.34576  -0.34503  -0.34119
 Alpha  occ. eigenvalues --   -0.33910  -0.33621  -0.33113  -0.32986  -0.32148
 Alpha  occ. eigenvalues --   -0.30966  -0.30069  -0.29409  -0.28619  -0.28387
 Alpha  occ. eigenvalues --   -0.26682  -0.26602  -0.26282  -0.25783  -0.24942
 Alpha  occ. eigenvalues --   -0.24753  -0.24728  -0.24674  -0.24070  -0.22244
 Alpha  occ. eigenvalues --   -0.22095  -0.21241  -0.20797  -0.20132
 Alpha virt. eigenvalues --   -0.07466  -0.03656  -0.03591  -0.03342  -0.02530
 Alpha virt. eigenvalues --   -0.01628  -0.01588  -0.00190   0.00118   0.00291
 Alpha virt. eigenvalues --    0.01216   0.01543   0.02836   0.03174   0.03476

 Mulliken charges:
               1
     1  C   -0.120918
     2  C   -0.138420
     3  C   -0.153887
     4  C    0.103542
     5  C    0.406000
     6  N   -0.563065
     7  C    0.252612
     8  C   -0.188457
     9  C   -0.140533
    10  C   -0.152659
    11  C   -0.168157
    12  C    0.308143
    13  N   -0.675598
    14  C    0.040801
    15  C    0.134995
    16  C   -0.190969
    17  C   -0.133861
    18  C   -0.133783
    19  C   -0.190743
    20  C    0.092111
    21  C   -0.075562
    22  C   -0.060423
    23  C   -0.164687
    24  C   -0.138102
    25  C   -0.185408
    26  C    0.123798
    27  C    0.040373
    28  C    0.067672
    29  C   -0.189089
    30  C   -0.137897
    31  C   -0.134204
    32  C   -0.189333
    33  C    0.127995
    34  C   -0.274314
    35  C    0.125420
    36  C   -0.188047
    37  C   -0.135752
    38  C   -0.134966
    39  C   -0.190244
    40  C    0.065961
    41  C    0.065965
    42  C   -0.190243
    43  C   -0.134973
    44  C   -0.135772
    45  C   -0.188070
    46  C    0.125490
    47  C    0.089073
    48  C   -0.191039
    49  C   -0.131640
    50  C   -0.136133
    51  C   -0.185595
    52  C    0.169525
    53  C   -0.167585
    54  C   -0.143720
    55  H    0.130464
    56  H    0.132625
    57  H    0.160719
    58  H    0.137291
    59  H    0.124333
    60  H    0.125660
    61  H    0.138832
    62  H    0.158930
    63  H    0.138421
    64  H    0.134833
    65  H    0.151318
    66  H    0.137582
    67  H    0.134362
    68  H    0.142693
    69  H    0.147825
    70  H    0.130309
    71  H    0.130862
    72  H    0.139643
    73  H    0.137614
    74  H    0.130281
    75  H    0.130088
    76  H    0.130367
    77  H    0.130406
    78  H    0.130075
    79  H    0.130125
    80  H    0.137203
    81  H    0.150573
    82  H    0.134476
    83  H    0.137966
    84  H    0.159488
    85  H    0.148077
    86  H    0.130929
 Sum of Mulliken charges =  -0.00000

 Dipole moment (field-independent basis, Debye):
    X=              4.1259    Y=              1.0421    Z=              0.0206  Tot=              4.2555
 Quadrupole moment (field-independent basis, Debye-Ang):
   XX=           -308.2747   YY=           -290.6672   ZZ=           -286.1966
   XY=             -1.8267   XZ=             -4.2016   YZ=              2.1041

 Normal termination of Gaussian 16 at Sat Nov  5 12:20:07 2022.
