 Gaussian 16, Revision B.01,
 Gaussian 16:  ES64L-G16RevB.01 20-Dec-2017

 -----------------------------
 #p b3lyp/6-31g(d) opt SCF=XQC
 -----------------------------

 ------------------------------
 Gaussian input prepared by ASE
 ------------------------------
 Symbolic Z-matrix:
 Charge =  0 Multiplicity = 1

 SCF Done:  E(RB3LYP) =  -2110.37105167     A.U. after   17 cycles
 SCF Done:  E(RB3LYP) =  -2110.38372126     A.U. after   13 cycles
 SCF Done:  E(RB3LYP) =  -2110.38458477     A.U. after   13 cycles
 SCF Done:  E(RB3LYP) =  -2110.38489760     A.U. after   12 cycles
 SCF Done:  E(RB3LYP) =  -2110.38494941     A.U. after   11 cycles
 SCF Done:  E(RB3LYP) =  -2110.38496042     A.U. after   11 cycles
 SCF Done:  E(RB3LYP) =  -2110.38496413     A.U. after   10 cycles
 SCF Done:  E(RB3LYP) =  -2110.38496560     A.U. after   11 cycles
 SCF Done:  E(RB3LYP) =  -2110.38496607     A.U. after   10 cycles
 SCF Done:  E(RB3LYP) =  -2110.38496615     A.U. after    7 cycles
 Optimization completed.
    -- Stationary point found.

                         Standard orientation:
 ---------------------------------------------------------------------
 Center     Atomic      Atomic             Coordinates (Angstroms)
 Number     Number       Type             X           Y           Z
 ---------------------------------------------------------------------
      1          6           0       -6.227969   -4.239972    0.879899
      2          6           0       -7.112654   -3.554216    0.043204
      3          6           0       -6.908845   -2.207184   -0.238608
      4          6           0       -5.811152   -1.518544    0.309437
      5          6           0       -5.675384   -0.087936   -0.013499
      6          7           0       -6.704712    0.660898   -0.353251
      7          6           0       -6.197485    1.922877   -0.590331
      8          6           0       -6.854763    3.098396   -0.979200
      9          6           0       -6.089484    4.245512   -1.158052
     10          6           0       -4.694005    4.235192   -0.955349
     11          6           0       -4.022591    3.078865   -0.565294
     12          6           0       -4.799896    1.933463   -0.385623
     13          7           0       -4.471915    0.632096   -0.008215
     14          6           0       -3.124953    0.163757    0.128493
     15          6           0       -2.435361    0.407707    1.331796
     16          6           0       -3.053825    1.065850    2.441712
     17          6           0       -2.362765    1.286631    3.603457
     18          6           0       -1.010540    0.862799    3.729258
     19          6           0       -0.385651    0.222711    2.692148
     20          6           0       -1.065413   -0.035806    1.458218
     21          6           0       -0.436171   -0.703410    0.382973
     22          6           0        0.971863   -1.195183    0.531899
     23          6           0        1.192094   -2.484307    1.043929
     24          6           0        2.479782   -2.998418    1.208883
     25          6           0        3.595185   -2.230535    0.864114
     26          6           0        3.394313   -0.954258    0.356411
     27          6           0        2.097651   -0.425254    0.184285
     28          6           0        2.224330    0.937447   -0.370061
     29          6           0        1.264759    1.890679   -0.727588
     30          6           0        1.687719    3.119927   -1.237506
     31          6           0        3.048637    3.402638   -1.391732
     32          6           0        4.011856    2.453531   -1.036894
     33          6           0        3.593868    1.229353   -0.529747
     34          6           0        4.459834    0.052379   -0.082429
     35          6           0        5.392734   -0.481782   -1.174919
     36          6           0        5.064866   -0.955760   -2.439356
     37          6           0        6.090090   -1.400394   -3.281275
     38          6           0        7.423294   -1.368328   -2.857327
     39          6           0        7.754888   -0.891190   -1.587361
     40          6           0        6.733100   -0.446617   -0.745624
     41          6           0        6.776009    0.102027    0.617046
     42          6           0        7.851321    0.341700    1.475212
     43          6           0        7.599535    0.883879    2.737383
     44          6           0        6.292283    1.183377    3.136866
     45          6           0        5.213542    0.943744    2.278659
     46          6           0        5.461945    0.403157    1.022873
     47          6           0       -1.141382   -0.937031   -0.819132
     48          6           0       -0.537623   -1.607696   -1.931490
     49          6           0       -1.223445   -1.807354   -3.099614
     50          6           0       -2.562239   -1.345739   -3.236032
     51          6           0       -3.184787   -0.705249   -2.198343
     52          6           0       -2.507086   -0.483245   -0.958479
     53          6           0       -4.934877   -2.211777    1.159915
     54          6           0       -5.144283   -3.562290    1.438732
     55          1           0       -6.386098   -5.292701    1.098510
     56          1           0       -7.963336   -4.071538   -0.392427
     57          1           0       -7.592870   -1.662451   -0.880188
     58          1           0       -7.929253    3.097096   -1.134895
     59          1           0       -6.572602    5.170621   -1.460291
     60          1           0       -4.128647    5.150851   -1.105395
     61          1           0       -2.948676    3.070887   -0.407234
     62          1           0       -4.083906    1.390612    2.345865
     63          1           0       -2.848834    1.788520    4.435471
     64          1           0       -0.474098    1.047224    4.655871
     65          1           0        0.643289   -0.103803    2.793626
     66          1           0        0.331708   -3.090080    1.315507
     67          1           0        2.611514   -4.000431    1.607761
     68          1           0        4.600233   -2.623649    0.990311
     69          1           0        0.206581    1.684822   -0.615169
     70          1           0        0.947895    3.864753   -1.518282
     71          1           0        3.359898    4.364516   -1.790122
     72          1           0        5.070339    2.668968   -1.156114
     73          1           0        4.030234   -0.979186   -2.771406
     74          1           0        5.848517   -1.772849   -4.273092
     75          1           0        8.208365   -1.717016   -3.522981
     76          1           0        8.792386   -0.867140   -1.263773
     77          1           0        8.868985    0.112337    1.169532
     78          1           0        8.426938    1.075944    3.415271
     79          1           0        6.112985    1.606571    4.121524
     80          1           0        4.199158    1.179337    2.589811
     81          1           0        0.483657   -1.957849   -1.831671
     82          1           0       -0.744412   -2.318076   -3.930336
     83          1           0       -3.092523   -1.502922   -4.171122
     84          1           0       -4.204029   -0.352848   -2.308552
     85          1           0       -4.102716   -1.697842    1.625373
     86          1           0       -4.459514   -4.082362    2.103255
 ---------------------------------------------------------------------

 The electronic state is 1-A.
 Alpha  occ. eigenvalues --  -14.38904 -14.30907 -10.25392 -10.23975 -10.21726
 Alpha  occ. eigenvalues --  -10.21680 -10.21280 -10.21193 -10.21161 -10.21071
 Alpha  occ. eigenvalues --  -10.21005 -10.20689 -10.20345 -10.20219 -10.20110
 Alpha  occ. eigenvalues --  -10.20082 -10.19881 -10.19772 -10.19753 -10.19753
 Alpha  occ. eigenvalues --  -10.19747 -10.19716 -10.19675 -10.19645 -10.19644
 Alpha  occ. eigenvalues --  -10.19632 -10.19629 -10.19628 -10.19606 -10.19578
 Alpha  occ. eigenvalues --  -10.19488 -10.19488 -10.19466 -10.19365 -10.19360
 Alpha  occ. eigenvalues --  -10.19296 -10.19288 -10.19260 -10.19249 -10.19211
 Alpha  occ. eigenvalues --  -10.19201 -10.19105 -10.19037 -10.19032 -10.19015
 Alpha  occ. eigenvalues --  -10.19010 -10.18975 -10.18892 -10.18800 -10.18776
 Alpha  occ. eigenvalues --  -10.18612 -10.18358 -10.18077 -10.17966  -1.01485
 Alpha  occ. eigenvalues --   -0.90893  -0.90463  -0.88071  -0.87084  -0.85586
 Alpha  occ. eigenvalues --   -0.85531  -0.84807  -0.84530  -0.83429  -0.81708
 Alpha  occ. eigenvalues --   -0.80522  -0.79182  -0.78625  -0.76821  -0.76643
 Alpha  occ. eigenvalues --   -0.75779  -0.74766  -0.74671  -0.74450  -0.74436
 Alpha  occ. eigenvalues --   -0.74318  -0.73550  -0.71934  -0.71623  -0.71590
 Alpha  occ. eigenvalues --   -0.70523  -0.68507  -0.65900  -0.64110  -0.63574
 Alpha  occ. eigenvalues --   -0.63482  -0.62709  -0.62036  -0.61076  -0.61054
 Alpha  occ. eigenvalues --   -0.59670  -0.58898  -0.58598  -0.58555  -0.58432
 Alpha  occ. eigenvalues --   -0.57722  -0.57688  -0.56841  -0.55485  -0.54518
 Alpha  occ. eigenvalues --   -0.53635  -0.52849  -0.52301  -0.51206  -0.50805
 Alpha  occ. eigenvalues --   -0.49767  -0.49556  -0.49451  -0.48471  -0.47405
 Alpha  occ. eigenvalues --   -0.47177  -0.47016  -0.46913  -0.46767  -0.46095
 Alpha  occ. eigenvalues --   -0.45479  -0.44888  -0.44425  -0.44369  -0.44224
 Alpha  occ. eigenvalues --   -0.44009  -0.43914  -0.43606  -0.43350  -0.43115
 Alpha  occ. eigenvalues --   -0.42955  -0.42576  -0.42137  -0.42009  -0.41816
 Alpha  occ. eigenvalues --   -0.41777  -0.41582  -0.41214  -0.40921  -0.40627
 Alpha  occ. eigenvalues --   -0.40379  -0.39824  -0.38443  -0.38379  -0.38303
 Alpha  occ. eigenvalues --   -0.37191  -0.36999  -0.36531  -0.36366  -0.36010
 Alpha  occ. eigenvalues --   -0.35948  -0.35517  -0.35365  -0.35244  -0.35105
 Alpha  occ. eigenvalues --   -0.35025  -0.34805  -0.34576  -0.34503  -0.34119
 Alpha  occ. eigenvalues --   -0.33910  -0.33621  -0.33113  -0.32986  -0.32148
 Alpha  occ. eigenvalues --   -0.30966  -0.30069  -0.29409  -0.28619  -0.28387
 Alpha  occ. eigenvalues --   -0.26682  -0.26602  -0.26282  -0.25783  -0.24942
 Alpha  occ. eigenvalues --   -0.24753  -0.24728  -0.24675  -0.24070  -0.22244
 Alpha  occ. eigenvalues --   -0.22095  -0.21241  -0.20797  -0.20132
 Alpha virt. eigenvalues --   -0.07466  -0.03656  -0.03591  -0.03342  -0.02530
 Alpha virt. eigenvalues --   -0.01628  -0.01588  -0.00190   0.00118   0.00291
 Alpha virt. eigenvalues --    0.01215   0.01543   0.02836   0.03174   0.03476

 Mulliken charges:
               1
     1  C   -0.120918
     2  C   -0.138420
     3  C   -0.153890
     4  C    0.103555
     5  C    0.405998
     6  N   -0.563067
     7  C    0.252619
     8  C   -0.188460
     9  C   -0.140538
    10  C   -0.152652
    11  C   -0.168162
    12  C    0.308150
    13  N   -0.675603
    14  C    0.040800
    15  C    0.134990
    16  C   -0.190976
    17  C   -0.133845
    18  C   -0.133788
    19  C   -0.190765
    20  C    0.092156
    21  C   -0.075610
    22  C   -0.060405
    23  C   -0.164692
    24  C   -0.138103
    25  C   -0.185396
    26  C    0.123777
    27  C    0.040389
    28  C    0.067676
    29  C   -0.189088
    30  C   -0.137901
    31  C   -0.134200
    32  C   -0.189339
    33  C    0.127991
    34  C   -0.274314
    35  C    0.125421
    36  C   -0.188054
    37  C   -0.135748
    38  C   -0.134971
    39  C   -0.190242
    40  C    0.065974
    41  C    0.065961
    42  C   -0.190243
    43  C   -0.134974
    44  C   -0.135770
    45  C   -0.188071
    46  C    0.125490
    47  C    0.089081
    48  C   -0.191036
    49  C   -0.131631
    50  C   -0.136138
    51  C   -0.185608
    52  C    0.169549
    53  C   -0.167602
    54  C   -0.143717
    55  H    0.130464
    56  H    0.132626
    57  H    0.160720
    58  H    0.137291
    59  H    0.124334
    60  H    0.125659
    61  H    0.138829
    62  H    0.158929
    63  H    0.138419
    64  H    0.134834
    65  H    0.151321
    66  H    0.137578
    67  H    0.134362
    68  H    0.142692
    69  H    0.147821
    70  H    0.130310
    71  H    0.130862
    72  H    0.139643
    73  H    0.137614
    74  H    0.130281
    75  H    0.130089
    76  H    0.130367
    77  H    0.130407
    78  H    0.130075
    79  H    0.130125
    80  H    0.137199
    81  H    0.150573
    82  H    0.134474
    83  H    0.137967
    84  H    0.159485
    85  H    0.148081
    86  H    0.130929
 Sum of Mulliken charges =  -0.00000

 Dipole moment (field-independent basis, Debye):
    X=              4.0515    Y=             -1.2510    Z=              0.3609  Tot=              4.2555
 Quadrupole moment (field-independent basis, Debye-Ang):
   XX=           -307.3633   YY=           -289.3723   ZZ=           -287.7893
   XY=              3.8490   XZ=              2.8773   YZ=              2.9812

 1\1\GINC-NODE74\FOpt\RB3LYP\6-31G(d)\C52H32N2\WYKGROUP\05-Nov-2022\0\\
 #p b3lyp/6-31g(d) opt SCF=XQC\\Gaussian input prepared by ASE\\0,1\C,-
 6.0135882694,4.6888840069,0.3414618955\C,-6.9520327734,3.8402168199,0.
 9348196334\C,-6.8358631747,2.4608425291,0.7959627877\C,-5.7738576449,1
 .9014578904,0.0619719457\C,-5.731384124,0.434484451,-0.0627044971\N,-6
 .8100696542,-0.3151338112,0.0383381915\C,-6.3851531392,-1.6193344302,-
 0.1184551911\C,-7.1195242225,-2.8132616889,-0.1006664524\C,-6.42908809
 12,-4.0069828042,-0.2791104743\C,-5.0325318875,-4.0244707226,-0.473744

 Normal termination of Gaussian 16 at Sat Nov  5 02:11:40 2022.
