 Gaussian 16, Revision B.01,
 Gaussian 16:  ES64L-G16RevB.01 20-Dec-2017

 -------------------------------------------------------------------
 #p b3lyp/6-31g(d) 6D 10F nosymm GFInput td=(50-50,nstate=2) SCF=XQC
 -------------------------------------------------------------------

 ------------------------------
 Gaussian input prepared by ASE
 ------------------------------
 Symbolic Z-matrix:
 Charge =  0 Multiplicity = 1

                          Input orientation:
 ---------------------------------------------------------------------
 Center     Atomic      Atomic             Coordinates (Angstroms)
 Number     Number       Type             X           Y           Z
 ---------------------------------------------------------------------
      1          6           0        5.647749    0.867197    3.685382
      2          6           0        4.593371    1.329959    2.893485
      3          6           0        4.464752    0.898384    1.576006
      4          6           0        5.404173    0.014503    1.019566
      5          6           0        5.216334   -0.441411   -0.384711
      6          7           0        3.965864   -0.688238   -0.741877
      7          6           0        3.722494   -1.166559   -1.991608
      8          6           0        2.306360   -1.415287   -2.360842
      9          6           0        2.005042   -2.047155   -3.580887
     10          6           0        0.695898   -2.315218   -3.990154
     11          6           0       -0.389783   -1.957015   -3.193753
     12          6           0       -0.133657   -1.322012   -1.976594
     13          6           0        1.196270   -1.061690   -1.577480
     14          8           0        1.224129   -0.422656   -0.357909
     15          6           0       -0.079877   -0.274566    0.036318
     16          6           0       -0.492336    0.317032    1.223262
     17          6           0       -1.866131    0.375072    1.452947
     18          6           0       -2.783358   -0.134505    0.513610
     19          7           0       -4.183854   -0.074906    0.799368
     20          6           0       -4.861294   -1.115420    1.437379
     21          6           0       -4.374093   -2.353956    1.865086
     22          6           0       -5.272600   -3.219854    2.482320
     23          6           0       -6.621498   -2.863851    2.670963
     24          6           0       -7.097473   -1.628770    2.244613
     25          6           0       -6.213212   -0.737405    1.620461
     26          6           0       -6.346448    0.588355    1.069899
     27          6           0       -7.456887    1.459968    0.974678
     28          6           0       -7.298123    2.689539    0.390770
     29          6           0       -6.034949    3.106706   -0.129566
     30          6           0       -5.895095    4.381030   -0.736152
     31          6           0       -4.690423    4.804794   -1.253287
     32          6           0       -3.564131    3.957772   -1.184008
     33          6           0       -3.657558    2.711190   -0.599986
     34          6           0       -4.883607    2.244967   -0.053770
     35          6           0       -5.086415    0.973386    0.571602
     36          6           0       -2.347078   -0.735840   -0.668935
     37          6           0       -0.972088   -0.804965   -0.912064
     38          7           0        4.644621   -1.455756   -2.896335
     39          6           0        5.933571   -1.167784   -2.580314
     40          6           0        6.942070   -1.409077   -3.551107
     41          6           0        8.248505   -1.063585   -3.292923
     42          6           0        8.601225   -0.453420   -2.064364
     43          6           0        7.646932   -0.227268   -1.096198
     44          6           0        6.296264   -0.605518   -1.315935
     45          6           0        6.451769   -0.456369    1.827353
     46          6           0        6.569141   -0.034783    3.152122
     47          1           0        5.744270    1.200577    4.715162
     48          1           0        3.867619    2.025471    3.306552
     49          1           0        3.635583    1.230181    0.960014
     50          1           0        2.841219   -2.328717   -4.210225
     51          1           0        0.528013   -2.809898   -4.942260
     52          1           0       -1.408313   -2.163181   -3.510212
     53          1           0        0.225599    0.706801    1.936713
     54          1           0       -2.249511    0.823706    2.363728
     55          1           0       -3.334326   -2.629784    1.720944
     56          1           0       -4.923284   -4.190130    2.824993
     57          1           0       -7.296220   -3.563772    3.155950
     58          1           0       -8.139599   -1.357967    2.393771
     59          1           0       -8.423045    1.150491    1.364354
     60          1           0       -8.138701    3.373823    0.309773
     61          1           0       -6.770369    5.024732   -0.787024
     62          1           0       -4.606451    5.785192   -1.714441
     63          1           0       -2.613307    4.287064   -1.594518
     64          1           0       -2.778480    2.081788   -0.563250
     65          1           0       -3.073861   -1.127804   -1.373598
     66          1           0        6.638457   -1.850182   -4.495065
     67          1           0        9.015461   -1.240688   -4.042138
     68          1           0        9.630770   -0.154369   -1.889278
     69          1           0        7.921342    0.262615   -0.169066
     70          1           0        7.155358   -1.182283    1.431927
     71          1           0        7.377205   -0.418683    3.768877
 ---------------------------------------------------------------------

 SCF Done:  E(RB3LYP) =  -1855.07814085     A.U. after   16 cycles

 Excitation energies and oscillator strengths:

 Excited state symmetry could not be determined.
 Excited State   1:      Triplet-?Sym    2.4932 eV  497.28 nm  f=0.0000  <S**2>=2.000
     147 ->154        -0.13361
     148 ->154         0.22061
     151 ->154         0.58956
     151 ->155         0.10940
 This state for optimization and/or second-order correction.
 Total Energy, E(TD-HF/TD-DFT) =  -1854.98651590
 Copying the excited state density for this state as the 1-particle RhoCI density.

 Excited state symmetry could not be determined.
 Excited State   2:      Triplet-?Sym    2.6760 eV  463.32 nm  f=0.0000  <S**2>=2.000
     150 ->158        -0.15571
     152 ->157        -0.13234
     152 ->158         0.11390
     153 ->154        -0.10956
     153 ->156         0.18947
     153 ->157        -0.55513
     153 ->158        -0.20664

 Excited state symmetry could not be determined.
 Excited State   3:      Singlet-?Sym    2.7468 eV  451.38 nm  f=0.0001  <S**2>=0.000
     153 ->154         0.70403

 Excited state symmetry could not be determined.
 Excited State   4:      Singlet-?Sym    3.2362 eV  383.12 nm  f=0.0007  <S**2>=0.000
     152 ->154         0.70301

 Alpha  occ. eigenvalues --  -19.21357 -14.37860 -14.33252 -14.33217 -10.26491
 Alpha  occ. eigenvalues --  -10.25786 -10.25625 -10.25335 -10.23827 -10.23740
 Alpha  occ. eigenvalues --  -10.22252 -10.21599 -10.21401 -10.20902 -10.20857
 Alpha  occ. eigenvalues --  -10.20845 -10.20841 -10.20741 -10.20739 -10.20731
 Alpha  occ. eigenvalues --  -10.20646 -10.20547 -10.20535 -10.20367 -10.20156
 Alpha  occ. eigenvalues --  -10.20023 -10.19974 -10.19901 -10.19760 -10.19686
 Alpha  occ. eigenvalues --  -10.19627 -10.19510 -10.19391 -10.19066 -10.18354
 Alpha  occ. eigenvalues --  -10.18282 -10.18261 -10.18255 -10.18226 -10.18188
 Alpha  occ. eigenvalues --  -10.18159 -10.18146 -10.18088 -10.18044 -10.17664
 Alpha  occ. eigenvalues --  -10.17638  -1.11123  -0.98671  -0.98484  -0.89832
 Alpha  occ. eigenvalues --   -0.87566  -0.87184  -0.86108  -0.85779  -0.85289
 Alpha  occ. eigenvalues --   -0.83758  -0.81499  -0.80043  -0.78544  -0.77775
 Alpha  occ. eigenvalues --   -0.76675  -0.75842  -0.75687  -0.75161  -0.75041
 Alpha  occ. eigenvalues --   -0.74244  -0.73364  -0.72837  -0.71115  -0.70080
 Alpha  occ. eigenvalues --   -0.67670  -0.65810  -0.65102  -0.63968  -0.62637
 Alpha  occ. eigenvalues --   -0.62238  -0.61360  -0.60905  -0.60157  -0.59841
 Alpha  occ. eigenvalues --   -0.59611  -0.58357  -0.57662  -0.56793  -0.54884
 Alpha  occ. eigenvalues --   -0.54154  -0.53487  -0.52601  -0.52448  -0.52188
 Alpha  occ. eigenvalues --   -0.50758  -0.49838  -0.49269  -0.48717  -0.48083
 Alpha  occ. eigenvalues --   -0.47201  -0.46886  -0.46542  -0.46192  -0.46009
 Alpha  occ. eigenvalues --   -0.45489  -0.45300  -0.44941  -0.44570  -0.44165
 Alpha  occ. eigenvalues --   -0.43734  -0.43548  -0.43198  -0.43132  -0.42498
 Alpha  occ. eigenvalues --   -0.42199  -0.42094  -0.41888  -0.41430  -0.40954
 Alpha  occ. eigenvalues --   -0.40204  -0.39861  -0.38909  -0.38522  -0.37680
 Alpha  occ. eigenvalues --   -0.37497  -0.37451  -0.37259  -0.37152  -0.36893
 Alpha  occ. eigenvalues --   -0.36255  -0.36199  -0.35594  -0.35478  -0.35215
 Alpha  occ. eigenvalues --   -0.34952  -0.34555  -0.33532  -0.32894  -0.32736
 Alpha  occ. eigenvalues --   -0.32584  -0.32522  -0.31099  -0.29912  -0.29678
 Alpha  occ. eigenvalues --   -0.27934  -0.26831  -0.26315  -0.25947  -0.25901
 Alpha  occ. eigenvalues --   -0.25812  -0.24593  -0.24043  -0.23064  -0.22943
 Alpha  occ. eigenvalues --   -0.22110  -0.20454  -0.18653
 Alpha virt. eigenvalues --   -0.07557  -0.05099  -0.03306  -0.02623  -0.01672
 Alpha virt. eigenvalues --   -0.01594  -0.00807  -0.00692   0.01029   0.01932
 Alpha virt. eigenvalues --    0.02129   0.03760   0.04184   0.05354   0.08602

 Mulliken charges:
               1
     1  C   -0.119736
     2  C   -0.139327
     3  C   -0.143385
     4  C    0.100354
     5  C    0.185579
     6  N   -0.522578
     7  C    0.443669
     8  C    0.045243
     9  C   -0.175788
    10  C   -0.145930
    11  C   -0.182092
    12  C    0.090067
    13  C    0.233803
    14  O   -0.530770
    15  C    0.345111
    16  C   -0.213014
    17  C   -0.137226
    18  C    0.190475
    19  N   -0.729222
    20  C    0.315325
    21  C   -0.178787
    22  C   -0.143336
    23  C   -0.145072
    24  C   -0.197166
    25  C    0.058387
    26  C    0.061642
    27  C   -0.193028
    28  C   -0.211667
    29  C    0.136231
    30  C   -0.209531
    31  C   -0.128272
    32  C   -0.148208
    33  C   -0.187028
    34  C    0.126667
    35  C    0.205365
    36  C   -0.209337
    37  C    0.073948
    38  N   -0.563898
    39  C    0.271863
    40  C   -0.153089
    41  C   -0.129119
    42  C   -0.136975
    43  C   -0.198705
    44  C    0.111253
    45  C   -0.174506
    46  C   -0.139196
    47  H    0.135460
    48  H    0.134680
    49  H    0.159818
    50  H    0.163142
    51  H    0.135704
    52  H    0.141052
    53  H    0.156958
    54  H    0.154386
    55  H    0.137543
    56  H    0.124778
    57  H    0.121726
    58  H    0.127273
    59  H    0.128939
    60  H    0.122685
    61  H    0.126841
    62  H    0.125941
    63  H    0.126600
    64  H    0.147904
    65  H    0.154755
    66  H    0.147795
    67  H    0.141409
    68  H    0.139298
    69  H    0.155360
    70  H    0.145399
    71  H    0.135562
 Sum of Mulliken charges =  -0.00000

 Dipole moment (field-independent basis, Debye):
    X=              4.4245    Y=              0.2254    Z=              0.1109  Tot=              4.4316
 Quadrupole moment (field-independent basis, Debye-Ang):
   XX=           -223.9055   YY=           -253.7000   ZZ=           -245.6159
   XY=              0.0603   XZ=              2.3386   YZ=              3.9344

 Normal termination of Gaussian 16 at Sat Nov  5 11:04:21 2022.
