 Gaussian 16, Revision B.01,
 Gaussian 16:  ES64L-G16RevB.01 20-Dec-2017

 -----------------------------
 #p b3lyp/6-31g(d) opt SCF=XQC
 -----------------------------

 ------------------------------
 Gaussian input prepared by ASE
 ------------------------------
 Symbolic Z-matrix:
 Charge =  0 Multiplicity = 1

 SCF Done:  E(RB3LYP) =  -1855.06746476     A.U. after   16 cycles
 SCF Done:  E(RB3LYP) =  -1855.07637157     A.U. after   13 cycles
 SCF Done:  E(RB3LYP) =  -1855.07743961     A.U. after   12 cycles
 SCF Done:  E(RB3LYP) =  -1855.07776701     A.U. after   12 cycles
 SCF Done:  E(RB3LYP) =  -1855.07790017     A.U. after   12 cycles
 SCF Done:  E(RB3LYP) =  -1855.07795075     A.U. after   11 cycles
 SCF Done:  E(RB3LYP) =  -1855.07798993     A.U. after   11 cycles
 SCF Done:  E(RB3LYP) =  -1855.07803030     A.U. after   12 cycles
 SCF Done:  E(RB3LYP) =  -1855.07805182     A.U. after   12 cycles
 SCF Done:  E(RB3LYP) =  -1855.07806748     A.U. after   11 cycles
 SCF Done:  E(RB3LYP) =  -1855.07810249     A.U. after   11 cycles
 SCF Done:  E(RB3LYP) =  -1855.07812922     A.U. after   12 cycles
 SCF Done:  E(RB3LYP) =  -1855.07813785     A.U. after   10 cycles
 SCF Done:  E(RB3LYP) =  -1855.07814136     A.U. after   10 cycles
 SCF Done:  E(RB3LYP) =  -1855.07814109     A.U. after    9 cycles
 SCF Done:  E(RB3LYP) =  -1855.07814116     A.U. after    7 cycles
 SCF Done:  E(RB3LYP) =  -1855.07814137     A.U. after    8 cycles
 SCF Done:  E(RB3LYP) =  -1855.07814125     A.U. after    8 cycles
 Optimization completed.
    -- Stationary point found.

                         Standard orientation:
 ---------------------------------------------------------------------
 Center     Atomic      Atomic             Coordinates (Angstroms)
 Number     Number       Type             X           Y           Z
 ---------------------------------------------------------------------
      1          6           0       -4.895903    4.831944    0.557714
      2          6           0       -3.916999    3.986635    1.087016
      3          6           0       -4.024974    2.607031    0.933439
      4          6           0       -5.128420    2.047125    0.268385
      5          6           0       -5.193133    0.569267    0.104431
      6          7           0       -4.041868   -0.025680   -0.165372
      7          6           0       -4.032856   -1.367338   -0.388352
      8          6           0       -2.720585   -2.000983   -0.671327
      9          6           0       -2.668053   -3.353250   -1.054961
     10          6           0       -1.468838   -4.012190   -1.339382
     11          6           0       -0.248250   -3.346393   -1.249112
     12          6           0       -0.256385   -2.003576   -0.865599
     13          6           0       -1.478353   -1.352626   -0.584839
     14          8           0       -1.261203   -0.043413   -0.217008
     15          6           0        0.093516    0.157124   -0.264934
     16          6           0        0.733656    1.354665    0.026722
     17          6           0        2.123574    1.367194   -0.080088
     18          6           0        2.835243    0.211302   -0.455283
     19          7           0        4.259467    0.274087   -0.574622
     20          6           0        4.895720    0.579002   -1.779139
     21          6           0        4.334385    0.829134   -3.034769
     22          6           0        5.205177    1.112506   -4.083336
     23          6           0        6.599069    1.147561   -3.889211
     24          6           0        7.149157    0.899872   -2.636292
     25          6           0        6.294329    0.612492   -1.562655
     26          6           0        6.500344    0.317496   -0.166573
     27          6           0        7.679107    0.217052    0.609495
     28          6           0        7.582236   -0.082023    1.943349
     29          6           0        6.314888   -0.300672    2.564968
     30          6           0        6.238571   -0.615984    3.945607
     31          6           0        5.029963   -0.839659    4.568081
     32          6           0        3.834793   -0.756956    3.822756
     33          6           0        3.865473   -0.450583    2.477776
     34          6           0        5.094308   -0.210510    1.806033
     35          6           0        5.235488    0.113383    0.418841
     36          6           0        2.171176   -0.980053   -0.755356
     37          6           0        0.776923   -1.007562   -0.656411
     38          7           0       -5.099878   -2.150762   -0.402279
     39          6           0       -6.290034   -1.581390   -0.080515
     40          6           0       -7.445767   -2.405472   -0.026641
     41          6           0       -8.654630   -1.878000    0.364794
     42          6           0       -8.759009   -0.513468    0.729796
     43          6           0       -7.658692    0.313834    0.666264
     44          6           0       -6.404695   -0.189961    0.231125
     45          6           0       -6.099355    2.905130   -0.272730
     46          6           0       -5.980444    4.288024   -0.131359
     47          1           0       -4.808015    5.908865    0.673570
     48          1           0       -3.065433    4.405403    1.616685
     49          1           0       -3.257897    1.942539    1.316976
     50          1           0       -3.611024   -3.882589   -1.126654
     51          1           0       -1.494167   -5.056968   -1.634673
     52          1           0        0.685302   -3.856696   -1.468478
     53          1           0        0.172514    2.236552    0.316134
     54          1           0        2.679942    2.274306    0.132933
     55          1           0        3.259951    0.803066   -3.186048
     56          1           0        4.798314    1.310613   -5.071313
     57          1           0        7.250287    1.371429   -4.729537
     58          1           0        8.226038    0.929432   -2.491160
     59          1           0        8.648393    0.378126    0.145140
     60          1           0        8.476096   -0.161897    2.556548
     61          1           0        7.166118   -0.680226    4.510030
     62          1           0        4.995255   -1.080702    5.627131
     63          1           0        2.879938   -0.936779    4.309516
     64          1           0        2.933843   -0.396610    1.930576
     65          1           0        2.742000   -1.855290   -1.049497
     66          1           0       -7.330323   -3.453734   -0.282826
     67          1           0       -9.534356   -2.514036    0.414300
     68          1           0       -9.712568   -0.120010    1.070333
     69          1           0       -7.742176    1.350652    0.971059
     70          1           0       -6.930140    2.493922   -0.837580
     71          1           0       -6.732641    4.939678   -0.567569
 ---------------------------------------------------------------------

 The electronic state is 1-A.
 Alpha  occ. eigenvalues --  -19.21357 -14.37860 -14.33252 -14.33217 -10.26491
 Alpha  occ. eigenvalues --  -10.25785 -10.25626 -10.25335 -10.23827 -10.23740
 Alpha  occ. eigenvalues --  -10.22252 -10.21599 -10.21401 -10.20902 -10.20857
 Alpha  occ. eigenvalues --  -10.20845 -10.20841 -10.20741 -10.20739 -10.20732
 Alpha  occ. eigenvalues --  -10.20646 -10.20547 -10.20535 -10.20367 -10.20156
 Alpha  occ. eigenvalues --  -10.20023 -10.19974 -10.19901 -10.19760 -10.19686
 Alpha  occ. eigenvalues --  -10.19627 -10.19510 -10.19390 -10.19066 -10.18354
 Alpha  occ. eigenvalues --  -10.18282 -10.18261 -10.18255 -10.18226 -10.18188
 Alpha  occ. eigenvalues --  -10.18159 -10.18146 -10.18088 -10.18044 -10.17664
 Alpha  occ. eigenvalues --  -10.17638  -1.11123  -0.98671  -0.98484  -0.89832
 Alpha  occ. eigenvalues --   -0.87566  -0.87184  -0.86108  -0.85779  -0.85289
 Alpha  occ. eigenvalues --   -0.83758  -0.81499  -0.80043  -0.78544  -0.77775
 Alpha  occ. eigenvalues --   -0.76675  -0.75842  -0.75687  -0.75161  -0.75041
 Alpha  occ. eigenvalues --   -0.74244  -0.73364  -0.72837  -0.71115  -0.70080
 Alpha  occ. eigenvalues --   -0.67670  -0.65810  -0.65102  -0.63968  -0.62637
 Alpha  occ. eigenvalues --   -0.62238  -0.61360  -0.60905  -0.60157  -0.59841
 Alpha  occ. eigenvalues --   -0.59611  -0.58357  -0.57662  -0.56793  -0.54884
 Alpha  occ. eigenvalues --   -0.54154  -0.53487  -0.52601  -0.52448  -0.52188
 Alpha  occ. eigenvalues --   -0.50758  -0.49838  -0.49269  -0.48717  -0.48083
 Alpha  occ. eigenvalues --   -0.47201  -0.46886  -0.46542  -0.46192  -0.46009
 Alpha  occ. eigenvalues --   -0.45489  -0.45300  -0.44941  -0.44570  -0.44165
 Alpha  occ. eigenvalues --   -0.43734  -0.43548  -0.43198  -0.43132  -0.42498
 Alpha  occ. eigenvalues --   -0.42199  -0.42094  -0.41888  -0.41430  -0.40954
 Alpha  occ. eigenvalues --   -0.40204  -0.39861  -0.38909  -0.38522  -0.37680
 Alpha  occ. eigenvalues --   -0.37497  -0.37451  -0.37259  -0.37152  -0.36893
 Alpha  occ. eigenvalues --   -0.36255  -0.36200  -0.35594  -0.35478  -0.35215
 Alpha  occ. eigenvalues --   -0.34952  -0.34555  -0.33532  -0.32894  -0.32736
 Alpha  occ. eigenvalues --   -0.32584  -0.32522  -0.31099  -0.29912  -0.29678
 Alpha  occ. eigenvalues --   -0.27934  -0.26831  -0.26315  -0.25947  -0.25901
 Alpha  occ. eigenvalues --   -0.25812  -0.24593  -0.24043  -0.23064  -0.22943
 Alpha  occ. eigenvalues --   -0.22110  -0.20454  -0.18653
 Alpha virt. eigenvalues --   -0.07557  -0.05099  -0.03306  -0.02623  -0.01672
 Alpha virt. eigenvalues --   -0.01594  -0.00807  -0.00692   0.01029   0.01932
 Alpha virt. eigenvalues --    0.02129   0.03760   0.04184   0.05354   0.08602

 Mulliken charges:
               1
     1  C   -0.119732
     2  C   -0.139328
     3  C   -0.143392
     4  C    0.100375
     5  C    0.185584
     6  N   -0.522581
     7  C    0.443665
     8  C    0.045238
     9  C   -0.175788
    10  C   -0.145922
    11  C   -0.182101
    12  C    0.090070
    13  C    0.233814
    14  O   -0.530775
    15  C    0.345123
    16  C   -0.213020
    17  C   -0.137222
    18  C    0.190469
    19  N   -0.729243
    20  C    0.315310
    21  C   -0.178775
    22  C   -0.143338
    23  C   -0.145079
    24  C   -0.197158
    25  C    0.058390
    26  C    0.061636
    27  C   -0.193015
    28  C   -0.211672
    29  C    0.136249
    30  C   -0.209539
    31  C   -0.128274
    32  C   -0.148201
    33  C   -0.187028
    34  C    0.126645
    35  C    0.205398
    36  C   -0.209336
    37  C    0.073945
    38  N   -0.563897
    39  C    0.271880
    40  C   -0.153094
    41  C   -0.129120
    42  C   -0.136972
    43  C   -0.198705
    44  C    0.111234
    45  C   -0.174515
    46  C   -0.139198
    47  H    0.135459
    48  H    0.134680
    49  H    0.159817
    50  H    0.163143
    51  H    0.135703
    52  H    0.141052
    53  H    0.156952
    54  H    0.154387
    55  H    0.137541
    56  H    0.124778
    57  H    0.121726
    58  H    0.127273
    59  H    0.128940
    60  H    0.122684
    61  H    0.126841
    62  H    0.125941
    63  H    0.126599
    64  H    0.147903
    65  H    0.154752
    66  H    0.147796
    67  H    0.141409
    68  H    0.139298
    69  H    0.155359
    70  H    0.145400
    71  H    0.135563
 Sum of Mulliken charges =  -0.00000

 Dipole moment (field-independent basis, Debye):
    X=             -4.3097    Y=              0.8631    Z=              0.5664  Tot=              4.4316
 Quadrupole moment (field-independent basis, Debye-Ang):
   XX=           -225.6153   YY=           -242.8181   ZZ=           -254.8008
   XY=             -6.0304   XZ=             -1.8426   YZ=              2.5407

 Normal termination of Gaussian 16 at Sat Nov  5 02:13:54 2022.
