 Gaussian 16, Revision B.01,
 Gaussian 16:  ES64L-G16RevB.01 20-Dec-2017

 -------------------------------------------------------------------
 #p b3lyp/6-31g(d) 6D 10F nosymm GFInput td=(50-50,nstate=2) SCF=XQC
 -------------------------------------------------------------------

 ------------------------------
 Gaussian input prepared by ASE
 ------------------------------
 Symbolic Z-matrix:
 Charge =  0 Multiplicity = 1

                          Input orientation:
 ---------------------------------------------------------------------
 Center     Atomic      Atomic             Coordinates (Angstroms)
 Number     Number       Type             X           Y           Z
 ---------------------------------------------------------------------
      1          6           0       -5.440424   -0.318846    1.335902
      2          6           0       -5.229129   -0.495251   -0.184583
      3          6           0       -5.591103    0.813519   -0.922117
      4          6           0       -6.029567   -1.680452   -0.725458
      5          6           0       -7.406111   -1.874121   -0.727360
      6          6           0       -7.930244   -3.047959   -1.282625
      7          6           0       -7.080768   -4.015967   -1.828331
      8          6           0       -5.696739   -3.828375   -1.828707
      9          6           0       -5.174278   -2.657069   -1.275630
     10          6           0       -3.790083   -2.193269   -1.135595
     11          6           0       -2.577522   -2.777159   -1.508551
     12          6           0       -1.385619   -2.100485   -1.256527
     13          6           0       -1.390140   -0.849422   -0.614283
     14          7           0       -0.165966   -0.167352   -0.358709
     15          6           0       -0.073883    1.222099   -0.653143
     16          6           0       -0.575324    1.731314   -1.858435
     17          6           0       -0.502121    3.097497   -2.128898
     18          6           0        0.086442    3.964459   -1.216258
     19          6           0        0.598023    3.458435   -0.015451
     20          6           0        0.508243    2.103850    0.272433
     21          8           0        1.182826    4.278763    0.926544
     22          6           0        1.249395    5.623212    0.613644
     23          6           0        1.840694    6.480166    1.534767
     24          6           0        1.927766    7.846571    1.257319
     25          6           0        1.423019    8.348982    0.058017
     26          6           0        0.829791    7.486718   -0.867185
     27          6           0        0.743309    6.126957   -0.590034
     28          8           0        0.149796    5.307414   -1.529430
     29          6           0        0.949116   -0.865727    0.156889
     30          6           0        0.776928   -1.911404    1.086340
     31          6           0        1.876647   -2.591156    1.586052
     32          6           0        3.193628   -2.269836    1.211264
     33          6           0        3.339136   -1.216298    0.289700
     34          6           0        2.249546   -0.530176   -0.239539
     35          8           0        4.565849   -0.803638   -0.165257
     36          6           0        5.710722   -1.418453    0.282457
     37          6           0        6.911434   -0.953353   -0.214085
     38          6           0        8.112897   -1.552347    0.217538
     39          6           0        8.104136   -2.590988    1.124414
     40          6           0        6.878178   -3.082012    1.644806
     41          6           0        6.809946   -4.149720    2.579392
     42          6           0        5.592365   -4.588930    3.050992
     43          6           0        4.385484   -3.995933    2.623245
     44          6           0        4.393237   -2.948634    1.713419
     45          6           0        5.650468   -2.484005    1.216111
     46          6           0       -2.613416   -0.266548   -0.234246
     47          6           0       -3.799292   -0.933927   -0.502882
     48          1           0       -5.188014   -1.235772    1.877996
     49          1           0       -6.485146   -0.069154    1.554372
     50          1           0       -4.813166    0.492400    1.723339
     51          1           0       -5.450989    0.708705   -2.002744
     52          1           0       -6.637244    1.084057   -0.737896
     53          1           0       -4.962918    1.641553   -0.573755
     54          1           0       -8.075113   -1.127569   -0.305240
     55          1           0       -9.005132   -3.207853   -1.289508
     56          1           0       -7.501286   -4.922455   -2.255699
     57          1           0       -5.041346   -4.584702   -2.253442
     58          1           0       -2.552295   -3.743273   -2.006169
     59          1           0       -0.438329   -2.536591   -1.557053
     60          1           0       -1.023240    1.058717   -2.581567
     61          1           0       -0.886068    3.505366   -3.058573
     62          1           0        0.897593    1.744220    1.218342
     63          1           0        2.225157    6.060199    2.458929
     64          1           0        2.390337    8.511310    1.980487
     65          1           0        1.487801    9.409832   -0.163994
     66          1           0        0.428985    7.848939   -1.808701
     67          1           0       -0.221149   -2.178718    1.414641
     68          1           0        1.708032   -3.387352    2.304103
     69          1           0        2.432389    0.259060   -0.959150
     70          1           0        6.909734   -0.135259   -0.926558
     71          1           0        9.055696   -1.182430   -0.176128
     72          1           0        9.034338   -3.047164    1.452191
     73          1           0        7.733665   -4.614159    2.914669
     74          1           0        5.552403   -5.407189    3.765283
     75          1           0        3.448142   -4.373970    3.018178
     76          1           0       -2.610126    0.698107    0.265078
 ---------------------------------------------------------------------

 SCF Done:  E(RB3LYP) =  -1936.50332495     A.U. after   15 cycles

 Excitation energies and oscillator strengths:

 Excited state symmetry could not be determined.
 Excited State   1:      Triplet-?Sym    2.2074 eV  561.66 nm  f=0.0000  <S**2>=2.000
     158 ->160        -0.27880
     158 ->161        -0.10726
     158 ->163         0.11214
     159 ->160         0.57851
     159 ->161         0.12900
 This state for optimization and/or second-order correction.
 Total Energy, E(TD-HF/TD-DFT) =  -1936.42220282
 Copying the excited state density for this state as the 1-particle RhoCI density.

 Excited state symmetry could not be determined.
 Excited State   2:      Triplet-?Sym    2.6890 eV  461.07 nm  f=0.0000  <S**2>=2.000
     156 ->161         0.15294
     157 ->160         0.16600
     157 ->161        -0.16832
     158 ->160        -0.24302
     158 ->161         0.17813
     159 ->160        -0.20346
     159 ->161         0.46222

 Excited state symmetry could not be determined.
 Excited State   3:      Singlet-?Sym    3.0883 eV  401.47 nm  f=0.7212  <S**2>=0.000
     159 ->160         0.69789

 Excited state symmetry could not be determined.
 Excited State   4:      Singlet-?Sym    3.4065 eV  363.96 nm  f=0.2721  <S**2>=0.000
     159 ->161         0.68998

 Alpha  occ. eigenvalues --  -19.20405 -19.20364 -19.20063 -14.37128 -10.26234
 Alpha  occ. eigenvalues --  -10.25925 -10.25872 -10.25835 -10.25693 -10.25176
 Alpha  occ. eigenvalues --  -10.23806 -10.23654 -10.23264 -10.20848 -10.20490
 Alpha  occ. eigenvalues --  -10.20065 -10.20045 -10.19986 -10.19787 -10.19759
 Alpha  occ. eigenvalues --  -10.19738 -10.19731 -10.19673 -10.19575 -10.19531
 Alpha  occ. eigenvalues --  -10.19474 -10.19372 -10.19224 -10.19142 -10.19121
 Alpha  occ. eigenvalues --  -10.19108 -10.19090 -10.18998 -10.18948 -10.18906
 Alpha  occ. eigenvalues --  -10.18894 -10.18867 -10.18855 -10.18850 -10.18811
 Alpha  occ. eigenvalues --  -10.18795 -10.18545 -10.18483 -10.18271 -10.18121
 Alpha  occ. eigenvalues --  -10.18110 -10.18102  -1.11049  -1.09202  -1.07656
 Alpha  occ. eigenvalues --   -0.97023  -0.88776  -0.87662  -0.87362  -0.86221
 Alpha  occ. eigenvalues --   -0.84945  -0.83855  -0.81773  -0.81028  -0.78916
 Alpha  occ. eigenvalues --   -0.77925  -0.77409  -0.77163  -0.75742  -0.74564
 Alpha  occ. eigenvalues --   -0.74448  -0.74004  -0.73855  -0.73157  -0.72539
 Alpha  occ. eigenvalues --   -0.70767  -0.69462  -0.68800  -0.66208  -0.65093
 Alpha  occ. eigenvalues --   -0.64659  -0.64168  -0.63527  -0.62343  -0.61918
 Alpha  occ. eigenvalues --   -0.61046  -0.59714  -0.59085  -0.58654  -0.58082
 Alpha  occ. eigenvalues --   -0.57218  -0.56536  -0.55539  -0.54058  -0.52650
 Alpha  occ. eigenvalues --   -0.51776  -0.51567  -0.51020  -0.50541  -0.49903
 Alpha  occ. eigenvalues --   -0.49404  -0.48506  -0.48171  -0.47548  -0.47313
 Alpha  occ. eigenvalues --   -0.47032  -0.46142  -0.45222  -0.45096  -0.44994
 Alpha  occ. eigenvalues --   -0.44883  -0.44580  -0.44089  -0.43955  -0.43693
 Alpha  occ. eigenvalues --   -0.43542  -0.43086  -0.42890  -0.42760  -0.42337
 Alpha  occ. eigenvalues --   -0.42254  -0.41599  -0.41124  -0.41004  -0.40030
 Alpha  occ. eigenvalues --   -0.39651  -0.39303  -0.39250  -0.38634  -0.38559
 Alpha  occ. eigenvalues --   -0.38248  -0.38161  -0.37925  -0.37656  -0.37545
 Alpha  occ. eigenvalues --   -0.37378  -0.37135  -0.36859  -0.36060  -0.35589
 Alpha  occ. eigenvalues --   -0.35447  -0.34408  -0.34246  -0.34142  -0.33442
 Alpha  occ. eigenvalues --   -0.33230  -0.32843  -0.32156  -0.31979  -0.31883
 Alpha  occ. eigenvalues --   -0.30366  -0.28979  -0.27801  -0.26657  -0.26344
 Alpha  occ. eigenvalues --   -0.25007  -0.24699  -0.24379  -0.24320  -0.24178
 Alpha  occ. eigenvalues --   -0.22675  -0.20599  -0.19056  -0.17373
 Alpha virt. eigenvalues --   -0.04485  -0.03290  -0.02053  -0.01478  -0.00935
 Alpha virt. eigenvalues --   -0.00639  -0.00488   0.00033   0.00955   0.01320
 Alpha virt. eigenvalues --    0.02550   0.04221   0.06571   0.07022   0.08333

 Mulliken charges:
               1
     1  C   -0.437577
     2  C   -0.062893
     3  C   -0.437703
     4  C    0.101825
     5  C   -0.203367
     6  C   -0.132201
     7  C   -0.136343
     8  C   -0.193383
     9  C    0.079702
    10  C    0.085375
    11  C   -0.205233
    12  C   -0.176085
    13  C    0.283039
    14  N   -0.670232
    15  C    0.281539
    16  C   -0.167193
    17  C   -0.216891
    18  C    0.346334
    19  C    0.351932
    20  C   -0.254115
    21  O   -0.573365
    22  C    0.343201
    23  C   -0.204198
    24  C   -0.134682
    25  C   -0.134410
    26  C   -0.204418
    27  C    0.341558
    28  O   -0.572978
    29  C    0.316547
    30  C   -0.177650
    31  C   -0.211862
    32  C    0.076940
    33  C    0.308114
    34  C   -0.260187
    35  O   -0.573866
    36  C    0.309580
    37  C   -0.203215
    38  C   -0.134300
    39  C   -0.204614
    40  C    0.140873
    41  C   -0.202894
    42  C   -0.127650
    43  C   -0.226917
    44  C    0.151555
    45  C   -0.002989
    46  C   -0.249423
    47  C    0.097648
    48  H    0.156954
    49  H    0.145157
    50  H    0.145877
    51  H    0.156455
    52  H    0.145048
    53  H    0.147291
    54  H    0.124244
    55  H    0.126949
    56  H    0.127792
    57  H    0.128025
    58  H    0.133518
    59  H    0.145279
    60  H    0.149247
    61  H    0.151837
    62  H    0.162468
    63  H    0.149809
    64  H    0.135285
    65  H    0.135007
    66  H    0.148207
    67  H    0.146505
    68  H    0.139701
    69  H    0.157184
    70  H    0.138488
    71  H    0.131096
    72  H    0.125630
    73  H    0.127450
    74  H    0.128837
    75  H    0.128047
    76  H    0.139683
 Sum of Mulliken charges =  -0.00000

 Dipole moment (field-independent basis, Debye):
    X=             -1.5203    Y=              0.5258    Z=              0.2779  Tot=              1.6325
 Quadrupole moment (field-independent basis, Debye-Ang):
   XX=           -252.5114   YY=           -244.1242   ZZ=           -261.4806
   XY=              2.4351   XZ=              2.5475   YZ=             -2.1192

 Normal termination of Gaussian 16 at Sat Nov  5 10:57:21 2022.
