 Gaussian 16, Revision B.01,
 Gaussian 16:  ES64L-G16RevB.01 20-Dec-2017

 -----------------------------
 #p b3lyp/6-31g(d) opt SCF=XQC
 -----------------------------

 ------------------------------
 Gaussian input prepared by ASE
 ------------------------------
 Symbolic Z-matrix:
 Charge =  0 Multiplicity = 1

 SCF Done:  E(RB3LYP) =  -1936.49421305     A.U. after   15 cycles
 SCF Done:  E(RB3LYP) =  -1936.50293707     A.U. after   13 cycles
 SCF Done:  E(RB3LYP) =  -1936.50326465     A.U. after   11 cycles
 SCF Done:  E(RB3LYP) =  -1936.50329971     A.U. after   10 cycles
 SCF Done:  E(RB3LYP) =  -1936.50331319     A.U. after   10 cycles
 SCF Done:  E(RB3LYP) =  -1936.50332541     A.U. after   10 cycles
 SCF Done:  E(RB3LYP) =  -1936.50332826     A.U. after   10 cycles
 SCF Done:  E(RB3LYP) =  -1936.50332840     A.U. after    7 cycles
 Optimization completed.
    -- Stationary point found.

                         Standard orientation:
 ---------------------------------------------------------------------
 Center     Atomic      Atomic             Coordinates (Angstroms)
 Number     Number       Type             X           Y           Z
 ---------------------------------------------------------------------
      1          6           0       -5.410284   -0.533722    2.334017
      2          6           0       -5.487290   -0.609805    0.792615
      3          6           0       -5.971858    0.742016    0.221974
      4          6           0       -6.382241   -1.761918    0.334741
      5          6           0       -7.736244   -1.962890    0.576961
      6          6           0       -8.362348   -3.101156    0.054203
      7          6           0       -7.635825   -4.026827   -0.701932
      8          6           0       -6.274933   -3.831729   -0.948174
      9          6           0       -5.650897   -2.695857   -0.427414
     10          6           0       -4.261863   -2.234255   -0.518123
     11          6           0       -3.143918   -2.785778   -1.147686
     12          6           0       -1.921538   -2.120123   -1.078951
     13          6           0       -1.798091   -0.913455   -0.367353
     14          7           0       -0.543308   -0.242463   -0.300804
     15          6           0       -0.498661    1.163677   -0.516487
     16          6           0       -1.212664    1.747229   -1.571542
     17          6           0       -1.182249    3.128487   -1.761715
     18          6           0       -0.428229    3.937687   -0.920532
     19          6           0        0.294921    3.357669    0.128443
     20          6           0        0.251543    1.986758    0.339537
     21          8           0        1.050415    4.118408    0.996079
     22          6           0        1.066260    5.480696    0.764132
     23          6           0        1.824485    6.279374    1.612472
     24          6           0        1.867225    7.661386    1.412880
     25          6           0        1.151046    8.237740    0.363873
     26          6           0        0.390131    7.434016   -0.488451
     27          6           0        0.347960    6.058657   -0.288829
     28          8           0       -0.415603    5.298484   -1.152243
     29          6           0        0.643761   -0.966487   -0.048550
     30          6           0        0.641036   -2.071281    0.826888
     31          6           0        1.810172   -2.775777    1.067641
     32          6           0        3.036270   -2.423302    0.475529
     33          6           0        3.014305   -1.311327   -0.386693
     34          6           0        1.849657   -0.598500   -0.657867
     35          8           0        4.137371   -0.863014   -1.034642
     36          6           0        5.341599   -1.499077   -0.849070
     37          6           0        6.431710   -0.995882   -1.529537
     38          6           0        7.688639   -1.614790   -1.369264
     39          6           0        7.842309   -2.710167   -0.545970
     40          6           0        6.731672   -3.240923    0.160903
     41          6           0        6.831891   -4.367443    1.020563
     42          6           0        5.720727   -4.843279    1.681403
     43          6           0        4.459159   -4.230637    1.525551
     44          6           0        4.304004   -3.126435    0.700115
     45          6           0        5.449497   -2.623338    0.008330
     46          6           0       -2.925250   -0.363468    0.271084
     47          6           0       -4.144746   -1.018735    0.185542
     48          1           0       -5.067233   -1.482466    2.758909
     49          1           0       -6.394315   -0.304699    2.759164
     50          1           0       -4.716517    0.254208    2.649504
     51          1           0       -6.036333    0.708402   -0.870311
     52          1           0       -6.963532    0.994058    0.615163
     53          1           0       -5.284355    1.549243    0.500070
     54          1           0       -8.309943   -1.249149    1.163930
     55          1           0       -9.420698   -3.266383    0.237489
     56          1           0       -8.134546   -4.906028   -1.101286
     57          1           0       -5.715155   -4.555131   -1.535803
     58          1           0       -3.218202   -3.717377   -1.702882
     59          1           0       -1.049741   -2.530390   -1.578466
     60          1           0       -1.791911    1.120474   -2.240561
     61          1           0       -1.730101    3.593676   -2.575055
     62          1           0        0.808044    1.568682    1.170914
     63          1           0        2.371738    5.802473    2.419527
     64          1           0        2.460824    8.280382    2.078693
     65          1           0        1.180228    9.311120    0.202963
     66          1           0       -0.176789    7.854329   -1.313217
     67          1           0       -0.280068   -2.365031    1.317474
     68          1           0        1.773177   -3.617871    1.751355
     69          1           0        1.900295    0.236832   -1.346214
     70          1           0        6.302562   -0.133268   -2.174608
     71          1           0        8.543919   -1.214726   -1.906967
     72          1           0        8.814311   -3.181361   -0.427662
     73          1           0        7.798869   -4.847407    1.146897
     74          1           0        5.809282   -5.706412    2.336014
     75          1           0        3.609423   -4.638855    2.062952
     76          1           0       -2.822641    0.566726    0.822541
 ---------------------------------------------------------------------

 The electronic state is 1-A.
 Alpha  occ. eigenvalues --  -19.20405 -19.20364 -19.20063 -14.37128 -10.26234
 Alpha  occ. eigenvalues --  -10.25925 -10.25872 -10.25835 -10.25693 -10.25176
 Alpha  occ. eigenvalues --  -10.23806 -10.23654 -10.23264 -10.20848 -10.20490
 Alpha  occ. eigenvalues --  -10.20065 -10.20045 -10.19987 -10.19787 -10.19759
 Alpha  occ. eigenvalues --  -10.19738 -10.19732 -10.19673 -10.19575 -10.19531
 Alpha  occ. eigenvalues --  -10.19474 -10.19372 -10.19224 -10.19142 -10.19121
 Alpha  occ. eigenvalues --  -10.19108 -10.19090 -10.18998 -10.18948 -10.18906
 Alpha  occ. eigenvalues --  -10.18894 -10.18867 -10.18855 -10.18850 -10.18811
 Alpha  occ. eigenvalues --  -10.18795 -10.18545 -10.18483 -10.18271 -10.18121
 Alpha  occ. eigenvalues --  -10.18110 -10.18102  -1.11049  -1.09202  -1.07656
 Alpha  occ. eigenvalues --   -0.97023  -0.88776  -0.87662  -0.87362  -0.86221
 Alpha  occ. eigenvalues --   -0.84945  -0.83855  -0.81773  -0.81028  -0.78916
 Alpha  occ. eigenvalues --   -0.77925  -0.77409  -0.77163  -0.75742  -0.74564
 Alpha  occ. eigenvalues --   -0.74448  -0.74004  -0.73856  -0.73157  -0.72539
 Alpha  occ. eigenvalues --   -0.70767  -0.69462  -0.68800  -0.66208  -0.65093
 Alpha  occ. eigenvalues --   -0.64659  -0.64168  -0.63527  -0.62343  -0.61918
 Alpha  occ. eigenvalues --   -0.61046  -0.59714  -0.59085  -0.58654  -0.58082
 Alpha  occ. eigenvalues --   -0.57218  -0.56536  -0.55539  -0.54058  -0.52650
 Alpha  occ. eigenvalues --   -0.51776  -0.51567  -0.51020  -0.50541  -0.49903
 Alpha  occ. eigenvalues --   -0.49404  -0.48506  -0.48171  -0.47548  -0.47313
 Alpha  occ. eigenvalues --   -0.47032  -0.46142  -0.45222  -0.45096  -0.44994
 Alpha  occ. eigenvalues --   -0.44883  -0.44580  -0.44089  -0.43955  -0.43693
 Alpha  occ. eigenvalues --   -0.43542  -0.43086  -0.42890  -0.42760  -0.42337
 Alpha  occ. eigenvalues --   -0.42254  -0.41599  -0.41124  -0.41004  -0.40030
 Alpha  occ. eigenvalues --   -0.39651  -0.39303  -0.39250  -0.38634  -0.38559
 Alpha  occ. eigenvalues --   -0.38248  -0.38161  -0.37925  -0.37656  -0.37545
 Alpha  occ. eigenvalues --   -0.37378  -0.37135  -0.36859  -0.36060  -0.35589
 Alpha  occ. eigenvalues --   -0.35447  -0.34409  -0.34246  -0.34142  -0.33442
 Alpha  occ. eigenvalues --   -0.33230  -0.32843  -0.32156  -0.31979  -0.31883
 Alpha  occ. eigenvalues --   -0.30366  -0.28979  -0.27801  -0.26657  -0.26344
 Alpha  occ. eigenvalues --   -0.25007  -0.24699  -0.24379  -0.24320  -0.24178
 Alpha  occ. eigenvalues --   -0.22675  -0.20599  -0.19056  -0.17373
 Alpha virt. eigenvalues --   -0.04485  -0.03290  -0.02053  -0.01478  -0.00935
 Alpha virt. eigenvalues --   -0.00639  -0.00488   0.00033   0.00955   0.01320
 Alpha virt. eigenvalues --    0.02550   0.04221   0.06571   0.07022   0.08333

 Mulliken charges:
               1
     1  C   -0.437575
     2  C   -0.062907
     3  C   -0.437701
     4  C    0.101825
     5  C   -0.203358
     6  C   -0.132204
     7  C   -0.136345
     8  C   -0.193379
     9  C    0.079706
    10  C    0.085354
    11  C   -0.205229
    12  C   -0.176089
    13  C    0.283018
    14  N   -0.670209
    15  C    0.281508
    16  C   -0.167178
    17  C   -0.216890
    18  C    0.346322
    19  C    0.351943
    20  C   -0.254106
    21  O   -0.573364
    22  C    0.343184
    23  C   -0.204196
    24  C   -0.134680
    25  C   -0.134416
    26  C   -0.204417
    27  C    0.341573
    28  O   -0.572978
    29  C    0.316532
    30  C   -0.177653
    31  C   -0.211869
    32  C    0.076947
    33  C    0.308101
    34  C   -0.260168
    35  O   -0.573864
    36  C    0.309580
    37  C   -0.203221
    38  C   -0.134300
    39  C   -0.204613
    40  C    0.140875
    41  C   -0.202893
    42  C   -0.127650
    43  C   -0.226919
    44  C    0.151559
    45  C   -0.002991
    46  C   -0.249410
    47  C    0.097669
    48  H    0.156954
    49  H    0.145157
    50  H    0.145878
    51  H    0.156454
    52  H    0.145048
    53  H    0.147292
    54  H    0.124243
    55  H    0.126949
    56  H    0.127792
    57  H    0.128025
    58  H    0.133518
    59  H    0.145281
    60  H    0.149247
    61  H    0.151837
    62  H    0.162471
    63  H    0.149809
    64  H    0.135285
    65  H    0.135008
    66  H    0.148207
    67  H    0.146508
    68  H    0.139702
    69  H    0.157183
    70  H    0.138488
    71  H    0.131096
    72  H    0.125630
    73  H    0.127449
    74  H    0.128836
    75  H    0.128047
    76  H    0.139678
 Sum of Mulliken charges =  -0.00000

 Dipole moment (field-independent basis, Debye):
    X=             -1.4385    Y=              0.4980    Z=              0.5900  Tot=              1.6326
 Quadrupole moment (field-independent basis, Debye-Ang):
   XX=           -250.9651   YY=           -243.9944   ZZ=           -262.3191
   XY=              1.9824   XZ=              0.6140   YZ=             -1.3999

 Normal termination of Gaussian 16 at Sat Nov  5 01:41:20 2022.
