 Gaussian 16, Revision B.01,
 Gaussian 16:  ES64L-G16RevB.01 20-Dec-2017

 -----------------------------
 #p b3lyp/6-31g(d) opt SCF=XQC
 -----------------------------

 ------------------------------
 Gaussian input prepared by ASE
 ------------------------------
 Symbolic Z-matrix:
 Charge =  0 Multiplicity = 1

 SCF Done:  E(RB3LYP) =  -2190.15127273     A.U. after   15 cycles
 SCF Done:  E(RB3LYP) =  -2190.16401361     A.U. after   13 cycles
 SCF Done:  E(RB3LYP) =  -2190.16490716     A.U. after   12 cycles
 SCF Done:  E(RB3LYP) =  -2190.16525832     A.U. after   11 cycles
 SCF Done:  E(RB3LYP) =  -2190.16531359     A.U. after   10 cycles
 SCF Done:  E(RB3LYP) =  -2190.16532792     A.U. after   10 cycles
 SCF Done:  E(RB3LYP) =  -2190.16533244     A.U. after    9 cycles
 SCF Done:  E(RB3LYP) =  -2190.16533370     A.U. after    8 cycles
 SCF Done:  E(RB3LYP) =  -2190.16533429     A.U. after    8 cycles
 SCF Done:  E(RB3LYP) =  -2190.16533441     A.U. after    7 cycles
 SCF Done:  E(RB3LYP) =  -2190.16533442     A.U. after    7 cycles
 SCF Done:  E(RB3LYP) =  -2190.16533440     A.U. after    7 cycles
 SCF Done:  E(RB3LYP) =  -2190.16533440     A.U. after    6 cycles
 Optimization completed.
    -- Stationary point found.

                         Standard orientation:
 ---------------------------------------------------------------------
 Center     Atomic      Atomic             Coordinates (Angstroms)
 Number     Number       Type             X           Y           Z
 ---------------------------------------------------------------------
      1          6           0        9.491441   -4.422004    0.338348
      2          6           0        9.398921   -3.995565   -0.987703
      3          6           0        8.233478   -3.385886   -1.449793
      4          6           0        7.133841   -3.188647   -0.597518
      5          6           0        5.892433   -2.539115   -1.094292
      6          6           0        5.408205   -2.803461   -2.386497
      7          6           0        4.237740   -2.194043   -2.835723
      8          6           0        3.535152   -1.309180   -2.021276
      9          6           0        3.998107   -1.038582   -0.723937
     10          7           0        3.291695   -0.138258    0.121119
     11          6           0        1.873892   -0.184404    0.178208
     12          6           0        1.116777    0.997051    0.234089
     13          6           0       -0.271429    0.945800    0.299416
     14          6           0       -0.965620   -0.276291    0.291130
     15          6           0       -2.446686   -0.327757    0.349799
     16          6           0       -3.115644   -1.340633    1.054870
     17          6           0       -4.504216   -1.404890    1.068089
     18          6           0       -5.284336   -0.447102    0.406053
     19          6           0       -4.637920    0.619954   -0.254994
     20          6           0       -3.235140    0.636080   -0.292122
     21          6           0       -5.395525    1.759448   -0.832930
     22          6           0       -4.893277    3.058040   -0.630437
     23          6           0       -5.525920    4.181479   -1.152651
     24          6           0       -6.697172    4.025838   -1.894167
     25          6           0       -7.212736    2.750103   -2.098788
     26          6           0       -6.583256    1.601513   -1.584464
     27          6           0       -7.196997    0.280714   -1.875513
     28          6           0       -7.748595    0.038528   -3.145580
     29          6           0       -8.464859   -1.121263   -3.425678
     30          6           0       -8.644396   -2.071739   -2.421107
     31          6           0       -8.069107   -1.874709   -1.167931
     32          6           0       -7.330249   -0.717424   -0.884599
     33          7           0       -6.711290   -0.527753    0.390859
     34          6           0       -7.425623   -0.856828    1.594502
     35          6           0       -8.016937    0.195441    2.305632
     36          6           0       -8.724656   -0.050877    3.482101
     37          6           0       -8.850395   -1.355222    3.964007
     38          6           0       -8.265002   -2.410093    3.262968
     39          6           0       -7.556498   -2.164818    2.084974
     40          6           0       -0.196739   -1.451141    0.225504
     41          6           0        1.192732   -1.412452    0.180063
     42          6           0        4.003468    0.808928    0.908401
     43          6           0        3.631471    1.050527    2.240273
     44          6           0        4.338061    1.981622    2.997711
     45          6           0        5.424531    2.666913    2.456266
     46          6           0        5.817489    2.433269    1.127669
     47          6           0        6.967520    3.163721    0.532996
     48          6           0        8.117830    3.435917    1.292709
     49          6           0        9.197707    4.121754    0.738646
     50          6           0        9.151916    4.551132   -0.588897
     51          6           0        8.015897    4.288089   -1.356415
     52          6           0        6.936121    3.602894   -0.801337
     53          6           0        5.090816    1.507544    0.365237
     54          6           0        5.170513   -1.661169   -0.273093
     55          6           0        7.241899   -3.623870    0.734101
     56          6           0        8.407278   -4.232917    1.197217
     57          1           0       10.399843   -4.896941    0.699047
     58          1           0       10.239754   -4.129373   -1.663391
     59          1           0        8.182017   -3.033894   -2.476354
     60          1           0        5.933806   -3.506355   -3.025708
     61          1           0        3.869309   -2.405386   -3.836181
     62          1           0        2.632396   -0.826470   -2.381026
     63          1           0        1.623405    1.956851    0.236500
     64          1           0       -0.827412    1.876635    0.368133
     65          1           0       -2.545222   -2.085441    1.602646
     66          1           0       -4.991327   -2.202213    1.617011
     67          1           0       -2.746662    1.421533   -0.860710
     68          1           0       -3.997327    3.181474   -0.029369
     69          1           0       -5.115605    5.170628   -0.967995
     70          1           0       -7.215404    4.891715   -2.297393
     71          1           0       -8.139821    2.632095   -2.651780
     72          1           0       -7.611607    0.784823   -3.922857
     73          1           0       -8.882887   -1.277331   -4.416188
     74          1           0       -9.212606   -2.977748   -2.614504
     75          1           0       -8.200148   -2.624118   -0.396319
     76          1           0       -7.910335    1.204226    1.918768
     77          1           0       -9.177474    0.776468    4.022030
     78          1           0       -9.401251   -1.548725    4.880461
     79          1           0       -8.358211   -3.428370    3.631192
     80          1           0       -7.104862   -2.992131    1.546152
     81          1           0       -0.695895   -2.415763    0.198190
     82          1           0        1.758477   -2.337526    0.134580
     83          1           0        2.795415    0.509224    2.670874
     84          1           0        4.039813    2.169693    4.025832
     85          1           0        5.952858    3.404418    3.052812
     86          1           0        8.174807    3.083054    2.318683
     87          1           0       10.080420    4.312979    1.343385
     88          1           0        9.993598    5.085438   -1.021271
     89          1           0        7.965488    4.624446   -2.388768
     90          1           0        6.047129    3.426569   -1.400458
     91          1           0        5.388216    1.303784   -0.658046
     92          1           0        5.536616   -1.434216    0.722660
     93          1           0        6.395362   -3.505299    1.404676
     94          1           0        8.464685   -4.567978    2.229632
 ---------------------------------------------------------------------

 The electronic state is 1-A.
 Alpha  occ. eigenvalues --  -14.36327 -14.34574 -10.22867 -10.22856 -10.22767
 Alpha  occ. eigenvalues --  -10.22618 -10.22518 -10.22465 -10.19834 -10.19820
 Alpha  occ. eigenvalues --  -10.19786 -10.19738 -10.19654 -10.19647 -10.19526
 Alpha  occ. eigenvalues --  -10.19430 -10.19407 -10.19401 -10.19343 -10.19317
 Alpha  occ. eigenvalues --  -10.19311 -10.19266 -10.18983 -10.18964 -10.18959
 Alpha  occ. eigenvalues --  -10.18809 -10.18805 -10.18795 -10.18789 -10.18786
 Alpha  occ. eigenvalues --  -10.18777 -10.18752 -10.18718 -10.18714 -10.18703
 Alpha  occ. eigenvalues --  -10.18700 -10.18669 -10.18662 -10.18661 -10.18658
 Alpha  occ. eigenvalues --  -10.18626 -10.18616 -10.18605 -10.18603 -10.18602
 Alpha  occ. eigenvalues --  -10.18599 -10.18583 -10.18555 -10.18546 -10.18534
 Alpha  occ. eigenvalues --  -10.18469 -10.18446 -10.18427 -10.18409 -10.18351
 Alpha  occ. eigenvalues --  -10.18338  -0.96262  -0.95058  -0.86737  -0.86450
 Alpha  occ. eigenvalues --   -0.86267  -0.85834  -0.84881  -0.84732  -0.84326
 Alpha  occ. eigenvalues --   -0.83459  -0.82613  -0.78093  -0.77677  -0.77205
 Alpha  occ. eigenvalues --   -0.76899  -0.76508  -0.75027  -0.74909  -0.74765
 Alpha  occ. eigenvalues --   -0.74376  -0.74299  -0.73924  -0.73884  -0.72367
 Alpha  occ. eigenvalues --   -0.72219  -0.71855  -0.71601  -0.70532  -0.68790
 Alpha  occ. eigenvalues --   -0.63771  -0.63476  -0.62875  -0.62631  -0.62068
 Alpha  occ. eigenvalues --   -0.61540  -0.61165  -0.60825  -0.60531  -0.60201
 Alpha  occ. eigenvalues --   -0.59418  -0.58913  -0.58357  -0.57886  -0.57386
 Alpha  occ. eigenvalues --   -0.57196  -0.56975  -0.55810  -0.53361  -0.53308
 Alpha  occ. eigenvalues --   -0.52921  -0.51703  -0.51636  -0.50197  -0.49973
 Alpha  occ. eigenvalues --   -0.49299  -0.49180  -0.48352  -0.48318  -0.47721
 Alpha  occ. eigenvalues --   -0.46874  -0.46731  -0.45902  -0.45818  -0.45603
 Alpha  occ. eigenvalues --   -0.45454  -0.45000  -0.44681  -0.44430  -0.44108
 Alpha  occ. eigenvalues --   -0.43826  -0.43586  -0.43179  -0.43103  -0.42871
 Alpha  occ. eigenvalues --   -0.42699  -0.42395  -0.42341  -0.42185  -0.41860
 Alpha  occ. eigenvalues --   -0.41776  -0.41751  -0.41552  -0.41486  -0.41459
 Alpha  occ. eigenvalues --   -0.41074  -0.39992  -0.38184  -0.37524  -0.37248
 Alpha  occ. eigenvalues --   -0.37176  -0.37065  -0.36918  -0.36760  -0.36556
 Alpha  occ. eigenvalues --   -0.36534  -0.36249  -0.36146  -0.36001  -0.35604
 Alpha  occ. eigenvalues --   -0.35384  -0.35327  -0.35219  -0.34888  -0.34720
 Alpha  occ. eigenvalues --   -0.34409  -0.33800  -0.33687  -0.33662  -0.33371
 Alpha  occ. eigenvalues --   -0.33288  -0.33170  -0.32489  -0.30663  -0.28722
 Alpha  occ. eigenvalues --   -0.27350  -0.27074  -0.26909  -0.26372  -0.25925
 Alpha  occ. eigenvalues --   -0.25713  -0.25328  -0.25035  -0.24938  -0.24742
 Alpha  occ. eigenvalues --   -0.24738  -0.23520  -0.22622  -0.22336  -0.22258
 Alpha  occ. eigenvalues --   -0.22243  -0.19733  -0.17852
 Alpha virt. eigenvalues --   -0.03209  -0.02968  -0.02541  -0.01985  -0.01630
 Alpha virt. eigenvalues --   -0.01151  -0.00813  -0.00442   0.00128   0.00155
 Alpha virt. eigenvalues --    0.00273   0.00385   0.01377   0.02055   0.02914

 Mulliken charges:
               1
     1  C   -0.126409
     2  C   -0.133630
     3  C   -0.173300
     4  C    0.087591
     5  C    0.086773
     6  C   -0.175285
     7  C   -0.142675
     8  C   -0.164137
     9  C    0.282811
    10  N   -0.661794
    11  C    0.288266
    12  C   -0.172507
    13  C   -0.187122
    14  C    0.095236
    15  C    0.106506
    16  C   -0.193942
    17  C   -0.157962
    18  C    0.247886
    19  C    0.079826
    20  C   -0.271872
    21  C    0.062858
    22  C   -0.185018
    23  C   -0.131943
    24  C   -0.130966
    25  C   -0.186617
    26  C    0.061915
    27  C    0.074076
    28  C   -0.203199
    29  C   -0.129803
    30  C   -0.140156
    31  C   -0.154477
    32  C    0.245693
    33  N   -0.688217
    34  C    0.241237
    35  C   -0.124786
    36  C   -0.140519
    37  C   -0.119690
    38  C   -0.147350
    39  C   -0.155238
    40  C   -0.188901
    41  C   -0.172138
    42  C    0.282625
    43  C   -0.163883
    44  C   -0.142689
    45  C   -0.175270
    46  C    0.086746
    47  C    0.087573
    48  C   -0.173304
    49  C   -0.133631
    50  C   -0.126400
    51  C   -0.134265
    52  C   -0.171011
    53  C   -0.222240
    54  C   -0.222415
    55  C   -0.170985
    56  C   -0.134263
    57  H    0.128862
    58  H    0.129832
    59  H    0.132415
    60  H    0.130495
    61  H    0.132346
    62  H    0.144826
    63  H    0.144320
    64  H    0.131633
    65  H    0.131048
    66  H    0.131501
    67  H    0.139075
    68  H    0.134027
    69  H    0.129232
    70  H    0.129203
    71  H    0.135505
    72  H    0.134740
    73  H    0.127108
    74  H    0.129071
    75  H    0.130798
    76  H    0.146991
    77  H    0.135104
    78  H    0.132328
    79  H    0.133585
    80  H    0.142005
    81  H    0.133421
    82  H    0.144345
    83  H    0.144082
    84  H    0.131949
    85  H    0.130456
    86  H    0.132314
    87  H    0.129814
    88  H    0.128922
    89  H    0.130159
    90  H    0.133182
    91  H    0.147487
    92  H    0.147252
    93  H    0.132970
    94  H    0.129984
 Sum of Mulliken charges =  -0.00000

 Dipole moment (field-independent basis, Debye):
    X=             -0.2742    Y=             -0.3016    Z=              0.7085  Tot=              0.8174
 Quadrupole moment (field-independent basis, Debye-Ang):
   XX=           -289.4237   YY=           -301.3833   ZZ=           -299.1488
   XY=              4.5695   XZ=             -4.6453   YZ=             -4.9727

 1\1\GINC-NODE77\FOpt\RB3LYP\6-31G(d)\C54H38N2\WYKGROUP\05-Nov-2022\0\\
 #p b3lyp/6-31g(d) opt SCF=XQC\\Gaussian input prepared by ASE\\0,1\C,9
 .2013478773,4.7564277325,0.2055758853\C,9.1660624491,4.0766611371,1.42
 43845841\C,8.0369218916,3.3441735287,1.7876988492\C,6.9172208698,3.274
 4258046,0.9416001604\C,5.7146345668,2.4931947376,1.3330478682\C,5.2642
 66748,2.4819451047,2.6639089279\C,4.1296821206,1.752025352,3.014791140
 9\C,3.4304249356,1.0162891505,2.0610269511\C,3.8595805133,1.0215900314
 ,0.7244496962\N,3.1560164486,0.2765149025,-0.2622510343\C,1.7363559237

 Normal termination of Gaussian 16 at Sat Nov  5 02:04:47 2022.
