 Gaussian 16, Revision B.01,
 Gaussian 16:  ES64L-G16RevB.01 20-Dec-2017

 -------------------------------------------------------------------
 #p b3lyp/6-31g(d) 6D 10F nosymm GFInput td=(50-50,nstate=2) SCF=XQC
 -------------------------------------------------------------------

 ------------------------------
 Gaussian input prepared by ASE
 ------------------------------
 Symbolic Z-matrix:
 Charge =  0 Multiplicity = 1

                          Input orientation:
 ---------------------------------------------------------------------
 Center     Atomic      Atomic             Coordinates (Angstroms)
 Number     Number       Type             X           Y           Z
 ---------------------------------------------------------------------
      1          6           0        0.057452    3.765705   -0.947355
      2          6           0        1.359814    3.301085   -0.776225
      3          6           0        1.595006    1.984501   -0.345915
      4          6           0        2.977796    1.481176   -0.151393
      5          6           0        4.016684    1.857234   -1.021375
      6          6           0        5.311897    1.387589   -0.842944
      7          6           0        5.625085    0.514499    0.212077
      8          6           0        7.010874    0.019182    0.378369
      9          6           0        7.309343   -1.167589    1.092192
     10          7           0        8.543146   -1.614112    1.249306
     11          6           0        9.545611   -0.899912    0.692860
     12          6           0       10.916910   -1.362662    0.852667
     13          6           0       11.187706   -2.531768    1.591583
     14          6           0       12.485581   -2.983532    1.750500
     15          6           0       13.543962   -2.268894    1.168726
     16          6           0       13.292519   -1.118066    0.439114
     17          6           0       11.979695   -0.631367    0.258609
     18          6           0       11.690131    0.586503   -0.510370
     19          6           0       12.706967    1.351518   -1.122344
     20          6           0       12.416778    2.500335   -1.840300
     21          6           0       11.089208    2.933950   -1.974502
     22          6           0       10.070775    2.204906   -1.386639
     23          6           0       10.349713    1.033041   -0.656454
     24          6           0        9.263199    0.274226   -0.044412
     25          7           0        7.999118    0.713459   -0.189262
     26          6           0        4.591813    0.142350    1.087973
     27          6           0        3.296165    0.616657    0.908976
     28          6           0        0.489153    1.157929   -0.096704
     29          6           0       -0.828007    1.609596   -0.265572
     30          6           0       -1.979004    0.708801   -0.003253
     31          6           0       -3.156208    1.192486    0.592358
     32          6           0       -4.235731    0.352251    0.849138
     33          6           0       -4.173446   -1.001827    0.497127
     34          7           0       -5.275759   -1.860727    0.747301
     35          6           0       -5.233024   -3.060600    1.468607
     36          6           0       -4.156528   -3.665505    2.123118
     37          6           0       -4.395346   -4.863507    2.793380
     38          6           0       -5.673761   -5.447168    2.819367
     39          6           0       -6.745011   -4.833293    2.177254
     40          6           0       -6.532736   -3.628388    1.496759
     41          6           0       -7.396426   -2.732944    0.757906
     42          6           0       -8.756321   -2.746946    0.427357
     43          6           0       -9.285872   -1.709420   -0.330681
     44          6           0       -8.476833   -0.641268   -0.785587
     45          6           0       -9.041958    0.430626   -1.654618
     46          6           0       -8.459289    0.665381   -2.889656
     47          6           0       -8.961737    1.643864   -3.776368
     48          6           0      -10.059655    2.393512   -3.427129
     49          6           0      -10.685462    2.210338   -2.165763
     50          6           0      -11.805023    2.996207   -1.779750
     51          6           0      -12.389453    2.842363   -0.544050
     52          6           0      -11.867025    1.895835    0.368248
     53          6           0      -10.788003    1.112143    0.023084
     54          6           0      -10.171375    1.225910   -1.254567
     55          6           0       -7.113295   -0.620319   -0.464946
     56          6           0       -6.590357   -1.656383    0.310907
     57          6           0       -3.010817   -1.498146   -0.105622
     58          6           0       -1.929554   -0.654007   -0.342098
     59          6           0       -1.030027    2.931459   -0.696033
     60          1           0       -0.111659    4.786373   -1.279959
     61          1           0        2.199147    3.968129   -0.949715
     62          1           0        3.797581    2.504263   -1.866130
     63          1           0        6.099874    1.679710   -1.528452
     64          1           0        6.516889   -1.775090    1.522708
     65          1           0       10.350260   -3.063613    2.028822
     66          1           0       12.683556   -3.886007    2.322117
     67          1           0       14.566833   -2.615819    1.288256
     68          1           0       14.132405   -0.589455    0.002884
     69          1           0       13.742996    1.044531   -1.036011
     70          1           0       13.224118    3.065434   -2.298337
     71          1           0       10.861921    3.836397   -2.535167
     72          1           0        9.036759    2.518972   -1.470976
     73          1           0        4.801117   -0.495058    1.941754
     74          1           0        2.526501    0.339759    1.623691
     75          1           0        0.658403    0.138259    0.236586
     76          1           0       -3.213683    2.234089    0.894860
     77          1           0       -5.123782    0.736563    1.341002
     78          1           0       -3.168838   -3.216647    2.116455
     79          1           0       -3.573447   -5.353166    3.308701
     80          1           0       -5.825653   -6.383055    3.349441
     81          1           0       -7.735375   -5.280179    2.206679
     82          1           0       -9.392582   -3.567321    0.749115
     83          1           0      -10.336172   -1.726384   -0.604783
     84          1           0       -7.611043    0.058150   -3.193268
     85          1           0       -8.482109    1.787464   -4.740886
     86          1           0      -10.461731    3.140425   -4.107631
     87          1           0      -12.188483    3.731803   -2.483245
     88          1           0      -13.243749    3.452064   -0.262232
     89          1           0      -12.317179    1.790937    1.351877
     90          1           0      -10.389680    0.400429    0.737691
     91          1           0       -6.487267    0.195597   -0.809737
     92          1           0       -2.967958   -2.540332   -0.406301
     93          1           0       -1.046948   -1.051183   -0.835088
     94          1           0       -2.040074    3.295695   -0.860013
 ---------------------------------------------------------------------

 SCF Done:  E(RB3LYP) =  -2319.40863279     A.U. after   16 cycles

 Excitation energies and oscillator strengths:

 Excited state symmetry could not be determined.
 Excited State   1:      Triplet-?Sym    2.5935 eV  478.06 nm  f=0.0000  <S**2>=2.000
     186 ->197        -0.11106
     192 ->201        -0.13073
     194 ->197         0.58311
     194 ->198         0.21741
 This state for optimization and/or second-order correction.
 Total Energy, E(TD-HF/TD-DFT) =  -2319.31332341
 Copying the excited state density for this state as the 1-particle RhoCI density.

 Excited state symmetry could not be determined.
 Excited State   2:      Triplet-?Sym    2.6184 eV  473.51 nm  f=0.0000  <S**2>=2.000
     190 ->206        -0.15178
     193 ->199         0.23034
     193 ->203         0.21197
     195 ->199         0.52207
     195 ->200        -0.17984
     195 ->203         0.17330
     196 ->199         0.12580

 Excited state symmetry could not be determined.
 Excited State   3:      Singlet-?Sym    3.2336 eV  383.42 nm  f=0.0022  <S**2>=0.000
     196 ->197         0.70066

 Excited state symmetry could not be determined.
 Excited State   4:      Singlet-?Sym    3.3459 eV  370.55 nm  f=0.0001  <S**2>=0.000
     195 ->197         0.70191

 Alpha  occ. eigenvalues --  -14.38378 -14.34644 -14.34361 -10.24148 -10.24112
 Alpha  occ. eigenvalues --  -10.23656 -10.23420 -10.23241 -10.22536 -10.22499
 Alpha  occ. eigenvalues --  -10.20961 -10.20878 -10.20807 -10.20772 -10.20759
 Alpha  occ. eigenvalues --  -10.20698 -10.20597 -10.20271 -10.20269 -10.20249
 Alpha  occ. eigenvalues --  -10.20223 -10.20197 -10.20183 -10.20024 -10.19773
 Alpha  occ. eigenvalues --  -10.19748 -10.19720 -10.19712 -10.19667 -10.19666
 Alpha  occ. eigenvalues --  -10.19641 -10.19630 -10.19616 -10.19589 -10.19547
 Alpha  occ. eigenvalues --  -10.19461 -10.19455 -10.19432 -10.19418 -10.19325
 Alpha  occ. eigenvalues --  -10.19248 -10.19036 -10.18985 -10.18929 -10.18892
 Alpha  occ. eigenvalues --  -10.18882 -10.18863 -10.18825 -10.18822 -10.18792
 Alpha  occ. eigenvalues --  -10.18776 -10.18769 -10.18692 -10.18686 -10.18654
 Alpha  occ. eigenvalues --  -10.18602 -10.18415 -10.18228 -10.18201  -0.99072
 Alpha  occ. eigenvalues --   -0.98329  -0.91229  -0.88193  -0.88029  -0.87278
 Alpha  occ. eigenvalues --   -0.86986  -0.85671  -0.84831  -0.84594  -0.84091
 Alpha  occ. eigenvalues --   -0.81690  -0.81285  -0.79811  -0.78762  -0.77891
 Alpha  occ. eigenvalues --   -0.77347  -0.76182  -0.76073  -0.75699  -0.75335
 Alpha  occ. eigenvalues --   -0.74832  -0.74399  -0.74133  -0.73520  -0.72710
 Alpha  occ. eigenvalues --   -0.72635  -0.71884  -0.70903  -0.69995  -0.67171
 Alpha  occ. eigenvalues --   -0.66152  -0.65229  -0.63606  -0.63263  -0.63096
 Alpha  occ. eigenvalues --   -0.62071  -0.61675  -0.61409  -0.61027  -0.60246
 Alpha  occ. eigenvalues --   -0.59872  -0.59426  -0.58908  -0.58604  -0.58053
 Alpha  occ. eigenvalues --   -0.57418  -0.56706  -0.56578  -0.54432  -0.53999
 Alpha  occ. eigenvalues --   -0.53077  -0.52461  -0.51986  -0.51211  -0.50746
 Alpha  occ. eigenvalues --   -0.50555  -0.50309  -0.49132  -0.48895  -0.48653
 Alpha  occ. eigenvalues --   -0.48124  -0.47961  -0.46934  -0.46482  -0.46305
 Alpha  occ. eigenvalues --   -0.46162  -0.45377  -0.45249  -0.44845  -0.44704
 Alpha  occ. eigenvalues --   -0.44385  -0.43950  -0.43808  -0.43612  -0.43474
 Alpha  occ. eigenvalues --   -0.43463  -0.43274  -0.43088  -0.42838  -0.42705
 Alpha  occ. eigenvalues --   -0.42478  -0.42317  -0.42238  -0.42161  -0.41758
 Alpha  occ. eigenvalues --   -0.41204  -0.40941  -0.40438  -0.39675  -0.39162
 Alpha  occ. eigenvalues --   -0.39056  -0.38424  -0.38229  -0.37945  -0.37930
 Alpha  occ. eigenvalues --   -0.37613  -0.36922  -0.36786  -0.36525  -0.36393
 Alpha  occ. eigenvalues --   -0.36310  -0.36144  -0.35936  -0.35365  -0.35173
 Alpha  occ. eigenvalues --   -0.34436  -0.34377  -0.34140  -0.34022  -0.33759
 Alpha  occ. eigenvalues --   -0.33383  -0.33359  -0.33019  -0.32440  -0.32205
 Alpha  occ. eigenvalues --   -0.31901  -0.31103  -0.30269  -0.28865  -0.28624
 Alpha  occ. eigenvalues --   -0.28194  -0.27181  -0.27006  -0.26403  -0.25826
 Alpha  occ. eigenvalues --   -0.25539  -0.25144  -0.24617  -0.24167  -0.23941
 Alpha  occ. eigenvalues --   -0.23452  -0.22598  -0.22041  -0.21440  -0.20042
 Alpha  occ. eigenvalues --   -0.19784
 Alpha virt. eigenvalues --   -0.07069  -0.05276  -0.04155  -0.03902  -0.03418
 Alpha virt. eigenvalues --   -0.02463  -0.02204  -0.01520  -0.00830  -0.00543
 Alpha virt. eigenvalues --    0.00533   0.00607   0.01464   0.01691   0.02700

 Mulliken charges:
               1
     1  C   -0.136351
     2  C   -0.173063
     3  C    0.090913
     4  C    0.097887
     5  C   -0.181954
     6  C   -0.164768
     7  C    0.098959
     8  C    0.250728
     9  C    0.005275
    10  N   -0.489978
    11  C    0.224664
    12  C    0.083223
    13  C   -0.181156
    14  C   -0.130713
    15  C   -0.127687
    16  C   -0.204603
    17  C    0.064478
    18  C    0.071422
    19  C   -0.206772
    20  C   -0.126311
    21  C   -0.132431
    22  C   -0.179557
    23  C    0.070926
    24  C    0.260560
    25  N   -0.580778
    26  C   -0.183852
    27  C   -0.185741
    28  C   -0.229068
    29  C    0.090199
    30  C    0.098717
    31  C   -0.191127
    32  C   -0.155889
    33  C    0.273120
    34  N   -0.742958
    35  C    0.314393
    36  C   -0.176564
    37  C   -0.141564
    38  C   -0.144793
    39  C   -0.196904
    40  C    0.057560
    41  C    0.066332
    42  C   -0.203059
    43  C   -0.189904
    44  C    0.062785
    45  C    0.014399
    46  C   -0.180262
    47  C   -0.137436
    48  C   -0.187237
    49  C    0.129001
    50  C   -0.195391
    51  C   -0.132083
    52  C   -0.136866
    53  C   -0.200652
    54  C    0.091682
    55  C   -0.228357
    56  C    0.320724
    57  C   -0.157455
    58  C   -0.190634
    59  C   -0.173862
    60  H    0.135336
    61  H    0.136596
    62  H    0.136575
    63  H    0.156771
    64  H    0.148957
    65  H    0.161689
    66  H    0.133467
    67  H    0.132346
    68  H    0.135983
    69  H    0.136354
    70  H    0.132538
    71  H    0.132906
    72  H    0.160415
    73  H    0.137223
    74  H    0.138151
    75  H    0.134881
    76  H    0.142043
    77  H    0.155304
    78  H    0.139203
    79  H    0.127256
    80  H    0.124893
    81  H    0.130447
    82  H    0.132511
    83  H    0.136665
    84  H    0.134352
    85  H    0.129766
    86  H    0.127749
    87  H    0.128113
    88  H    0.128606
    89  H    0.128719
    90  H    0.146923
    91  H    0.144502
    92  H    0.153927
    93  H    0.143053
    94  H    0.135612
 Sum of Mulliken charges =  -0.00000

 Dipole moment (field-independent basis, Debye):
    X=              1.6028    Y=              1.2965    Z=             -0.4620  Tot=              2.1127
 Quadrupole moment (field-independent basis, Debye-Ang):
   XX=           -303.1437   YY=           -316.5257   ZZ=           -329.4358
   XY=             -5.7537   XZ=             -7.4104   YZ=            -15.3731

 Normal termination of Gaussian 16 at Sat Nov  5 11:58:22 2022.
