 Gaussian 16, Revision B.01,
 Gaussian 16:  ES64L-G16RevB.01 20-Dec-2017

 -------------------------------------------------------------------
 #p b3lyp/6-31g(d) 6D 10F nosymm GFInput td=(50-50,nstate=2) SCF=XQC
 -------------------------------------------------------------------

 ------------------------------
 Gaussian input prepared by ASE
 ------------------------------
 Symbolic Z-matrix:
 Charge =  0 Multiplicity = 1

                          Input orientation:
 ---------------------------------------------------------------------
 Center     Atomic      Atomic             Coordinates (Angstroms)
 Number     Number       Type             X           Y           Z
 ---------------------------------------------------------------------
      1          6           0        9.201348    4.756428    0.205576
      2          6           0        9.166062    4.076661    1.424385
      3          6           0        8.036922    3.344174    1.787699
      4          6           0        6.917221    3.274426    0.941600
      5          6           0        5.714635    2.493195    1.333048
      6          6           0        5.264267    2.481945    2.663909
      7          6           0        4.129682    1.752025    3.014791
      8          6           0        3.430425    1.016289    2.061027
      9          6           0        3.859581    1.021590    0.724450
     10          7           0        3.156016    0.276515   -0.262251
     11          6           0        1.736356    0.278173   -0.273058
     12          6           0        1.017044   -0.898084   -0.539873
     13          6           0       -0.373486   -0.888676   -0.558509
     14          6           0       -1.106811    0.280699   -0.293421
     15          6           0       -2.589893    0.285440   -0.303123
     16          6           0       -3.314340    1.389663   -0.778953
     17          6           0       -4.703969    1.401656   -0.743952
     18          6           0       -5.430260    0.303912   -0.262604
     19          6           0       -4.727983   -0.845708    0.160036
     20          6           0       -3.324965   -0.814636    0.157535
     21          6           0       -5.428549   -2.104295    0.522788
     22          6           0       -4.890764   -3.318229    0.057227
     23          6           0       -5.468842   -4.545408    0.365315
     24          6           0       -6.619838   -4.582452    1.152548
     25          6           0       -7.170104   -3.391847    1.616060
     26          6           0       -6.595756   -2.141676    1.320712
     27          6           0       -7.242764   -0.927523    1.880274
     28          6           0       -7.760421   -0.958778    3.186812
     29          6           0       -8.504909    0.095750    3.706727
     30          6           0       -8.748149    1.216021    2.912605
     31          6           0       -8.207760    1.289157    1.630864
     32          6           0       -7.440889    0.238587    1.107694
     33          7           0       -6.857844    0.324959   -0.195561
     34          6           0       -7.621369    0.854339   -1.292878
     35          6           0       -8.200612   -0.061299   -2.180973
     36          6           0       -8.953929    0.381935   -3.268021
     37          6           0       -9.138054    1.749317   -3.481852
     38          6           0       -8.565139    2.669243   -2.602990
     39          6           0       -7.811024    2.226764   -1.514261
     40          6           0       -0.375212    1.449039   -0.018646
     41          6           0        1.015522    1.455865   -0.017076
     42          6           0        3.872538   -0.471041   -1.237624
     43          6           0        3.465559   -0.462797   -2.581103
     44          6           0        4.177346   -1.200594   -3.523937
     45          6           0        5.302776   -1.935784   -3.155008
     46          6           0        5.730848   -1.950376   -1.816832
     47          6           0        6.922987   -2.737742   -1.406185
     48          6           0        8.056300   -2.812198   -2.233545
     49          6           0        9.175572   -3.550633   -1.852187
     50          6           0        9.187111   -4.231769   -0.633682
     51          6           0        8.068628   -4.167254    0.199173
     52          6           0        6.949445   -3.429244   -0.183308
     53          6           0        4.999339   -1.219590   -0.869642
     54          6           0        4.995619    1.764807    0.374511
     55          6           0        6.967558    3.964485   -0.281342
     56          6           0        8.096622    4.696551   -0.645785
     57          1           0       10.081446    5.327194   -0.078176
     58          1           0       10.023577    4.108648    2.091546
     59          1           0        8.030466    2.797281    2.726444
     60          1           0        5.787005    3.066635    3.414769
     61          1           0        3.787241    1.750112    4.046321
     62          1           0        2.556192    0.438306    2.342182
     63          1           0        1.554581   -1.818767   -0.743069
     64          1           0       -0.900532   -1.809045   -0.793962
     65          1           0       -2.786811    2.248326   -1.184649
     66          1           0       -5.234603    2.271222   -1.113545
     67          1           0       -2.792715   -1.676346    0.548696
     68          1           0       -4.011266   -3.287591   -0.579003
     69          1           0       -5.032478   -5.463080   -0.019831
     70          1           0       -7.095958   -5.529610    1.391506
     71          1           0       -8.082090   -3.419641    2.204892
     72          1           0       -7.573784   -1.836309    3.799175
     73          1           0       -8.895403    0.039687    4.718945
     74          1           0       -9.339224    2.044415    3.294064
     75          1           0       -8.388375    2.168866    1.024512
     76          1           0       -8.048404   -1.121233   -2.001956
     77          1           0       -9.396644   -0.341256   -3.947775
     78          1           0       -9.724484    2.096200   -4.328343
     79          1           0       -8.703675    3.735366   -2.762216
     80          1           0       -7.369524    2.950094   -0.835570
     81          1           0       -0.904635    2.369888    0.209717
     82          1           0        1.551753    2.375488    0.194223
     83          1           0        2.598610    0.119341   -2.875941
     84          1           0        3.852158   -1.196200   -4.561042
     85          1           0        5.835364   -2.522053   -3.897672
     86          1           0        8.068257   -2.264354   -3.171684
     87          1           0       10.043956   -3.586232   -2.504952
     88          1           0       10.059508   -4.807179   -0.335880
     89          1           0        8.062898   -4.699910    1.146630
     90          1           0        6.075096   -3.407398    0.461191
     91          1           0        5.323008   -1.207699    0.165815
     92          1           0        5.336401    1.750415   -0.655404
     93          1           0        6.104012    3.946217   -0.940363
     94          1           0        8.109384    5.228219   -1.593735
 ---------------------------------------------------------------------

 SCF Done:  E(RB3LYP) =  -2190.16534093     A.U. after   15 cycles

 Excitation energies and oscillator strengths:

 Excited state symmetry could not be determined.
 Excited State   1:      Triplet-?Sym    2.7838 eV  445.37 nm  f=0.0000  <S**2>=2.000
     183 ->189         0.12004
     187 ->189         0.15648
     188 ->189         0.41881
     188 ->191        -0.40732
     188 ->192        -0.10919
 This state for optimization and/or second-order correction.
 Total Energy, E(TD-HF/TD-DFT) =  -2190.06303658
 Copying the excited state density for this state as the 1-particle RhoCI density.

 Excited state symmetry could not be determined.
 Excited State   2:      Triplet-?Sym    2.9972 eV  413.67 nm  f=0.0000  <S**2>=2.000
     184 ->190         0.14041
     185 ->191         0.10444
     185 ->192        -0.17804
     186 ->190        -0.15606
     187 ->190        -0.14137
     187 ->194         0.11448
     188 ->190         0.45488
     188 ->194        -0.29877

 Excited state symmetry could not be determined.
 Excited State   3:      Singlet-?Sym    3.4806 eV  356.21 nm  f=0.1861  <S**2>=0.000
     187 ->189         0.25299
     187 ->191         0.11141
     188 ->189         0.61993
     188 ->190        -0.15619

 Excited state symmetry could not be determined.
 Excited State   4:      Singlet-?Sym    3.5066 eV  353.57 nm  f=0.0563  <S**2>=0.000
     188 ->189         0.13308
     188 ->190         0.66493

 Alpha  occ. eigenvalues --  -14.36327 -14.34574 -10.22867 -10.22856 -10.22767
 Alpha  occ. eigenvalues --  -10.22618 -10.22519 -10.22465 -10.19834 -10.19820
 Alpha  occ. eigenvalues --  -10.19786 -10.19738 -10.19654 -10.19647 -10.19526
 Alpha  occ. eigenvalues --  -10.19430 -10.19406 -10.19401 -10.19343 -10.19318
 Alpha  occ. eigenvalues --  -10.19311 -10.19266 -10.18983 -10.18964 -10.18960
 Alpha  occ. eigenvalues --  -10.18809 -10.18805 -10.18795 -10.18789 -10.18786
 Alpha  occ. eigenvalues --  -10.18777 -10.18752 -10.18718 -10.18714 -10.18703
 Alpha  occ. eigenvalues --  -10.18700 -10.18669 -10.18662 -10.18661 -10.18658
 Alpha  occ. eigenvalues --  -10.18626 -10.18616 -10.18605 -10.18603 -10.18602
 Alpha  occ. eigenvalues --  -10.18599 -10.18582 -10.18555 -10.18546 -10.18534
 Alpha  occ. eigenvalues --  -10.18469 -10.18446 -10.18428 -10.18409 -10.18351
 Alpha  occ. eigenvalues --  -10.18338  -0.96262  -0.95058  -0.86737  -0.86450
 Alpha  occ. eigenvalues --   -0.86267  -0.85834  -0.84881  -0.84732  -0.84326
 Alpha  occ. eigenvalues --   -0.83459  -0.82613  -0.78093  -0.77677  -0.77205
 Alpha  occ. eigenvalues --   -0.76899  -0.76508  -0.75027  -0.74909  -0.74765
 Alpha  occ. eigenvalues --   -0.74376  -0.74299  -0.73924  -0.73884  -0.72367
 Alpha  occ. eigenvalues --   -0.72219  -0.71855  -0.71601  -0.70532  -0.68790
 Alpha  occ. eigenvalues --   -0.63771  -0.63476  -0.62875  -0.62631  -0.62068
 Alpha  occ. eigenvalues --   -0.61540  -0.61165  -0.60825  -0.60531  -0.60201
 Alpha  occ. eigenvalues --   -0.59418  -0.58913  -0.58357  -0.57886  -0.57386
 Alpha  occ. eigenvalues --   -0.57196  -0.56975  -0.55810  -0.53361  -0.53308
 Alpha  occ. eigenvalues --   -0.52921  -0.51703  -0.51636  -0.50197  -0.49973
 Alpha  occ. eigenvalues --   -0.49300  -0.49180  -0.48352  -0.48318  -0.47721
 Alpha  occ. eigenvalues --   -0.46874  -0.46731  -0.45902  -0.45818  -0.45603
 Alpha  occ. eigenvalues --   -0.45454  -0.45000  -0.44681  -0.44430  -0.44108
 Alpha  occ. eigenvalues --   -0.43826  -0.43586  -0.43179  -0.43103  -0.42871
 Alpha  occ. eigenvalues --   -0.42699  -0.42395  -0.42341  -0.42185  -0.41860
 Alpha  occ. eigenvalues --   -0.41776  -0.41751  -0.41552  -0.41486  -0.41459
 Alpha  occ. eigenvalues --   -0.41074  -0.39992  -0.38183  -0.37524  -0.37248
 Alpha  occ. eigenvalues --   -0.37176  -0.37065  -0.36918  -0.36760  -0.36556
 Alpha  occ. eigenvalues --   -0.36534  -0.36249  -0.36146  -0.36001  -0.35604
 Alpha  occ. eigenvalues --   -0.35384  -0.35327  -0.35219  -0.34888  -0.34720
 Alpha  occ. eigenvalues --   -0.34409  -0.33800  -0.33687  -0.33662  -0.33371
 Alpha  occ. eigenvalues --   -0.33288  -0.33170  -0.32489  -0.30663  -0.28722
 Alpha  occ. eigenvalues --   -0.27350  -0.27074  -0.26909  -0.26372  -0.25925
 Alpha  occ. eigenvalues --   -0.25713  -0.25328  -0.25035  -0.24938  -0.24742
 Alpha  occ. eigenvalues --   -0.24738  -0.23520  -0.22622  -0.22336  -0.22258
 Alpha  occ. eigenvalues --   -0.22243  -0.19733  -0.17852
 Alpha virt. eigenvalues --   -0.03208  -0.02968  -0.02541  -0.01985  -0.01630
 Alpha virt. eigenvalues --   -0.01151  -0.00813  -0.00442   0.00128   0.00155
 Alpha virt. eigenvalues --    0.00273   0.00385   0.01377   0.02055   0.02914

 Mulliken charges:
               1
     1  C   -0.126407
     2  C   -0.133629
     3  C   -0.173311
     4  C    0.087611
     5  C    0.086763
     6  C   -0.175278
     7  C   -0.142692
     8  C   -0.164104
     9  C    0.282771
    10  N   -0.661750
    11  C    0.288235
    12  C   -0.172495
    13  C   -0.187131
    14  C    0.095250
    15  C    0.106506
    16  C   -0.193941
    17  C   -0.157966
    18  C    0.247849
    19  C    0.079827
    20  C   -0.271878
    21  C    0.062879
    22  C   -0.185018
    23  C   -0.131939
    24  C   -0.130969
    25  C   -0.186620
    26  C    0.061939
    27  C    0.074035
    28  C   -0.203201
    29  C   -0.129795
    30  C   -0.140152
    31  C   -0.154486
    32  C    0.245719
    33  N   -0.688183
    34  C    0.241212
    35  C   -0.124781
    36  C   -0.140517
    37  C   -0.119685
    38  C   -0.147359
    39  C   -0.155230
    40  C   -0.188901
    41  C   -0.172132
    42  C    0.282598
    43  C   -0.163865
    44  C   -0.142704
    45  C   -0.175261
    46  C    0.086737
    47  C    0.087608
    48  C   -0.173325
    49  C   -0.133635
    50  C   -0.126388
    51  C   -0.134265
    52  C   -0.171030
    53  C   -0.222231
    54  C   -0.222413
    55  C   -0.170990
    56  C   -0.134261
    57  H    0.128861
    58  H    0.129832
    59  H    0.132415
    60  H    0.130496
    61  H    0.132347
    62  H    0.144823
    63  H    0.144319
    64  H    0.131633
    65  H    0.131047
    66  H    0.131504
    67  H    0.139075
    68  H    0.134025
    69  H    0.129231
    70  H    0.129202
    71  H    0.135505
    72  H    0.134742
    73  H    0.127107
    74  H    0.129072
    75  H    0.130796
    76  H    0.146986
    77  H    0.135104
    78  H    0.132328
    79  H    0.133585
    80  H    0.142008
    81  H    0.133420
    82  H    0.144346
    83  H    0.144079
    84  H    0.131950
    85  H    0.130455
    86  H    0.132316
    87  H    0.129814
    88  H    0.128920
    89  H    0.130160
    90  H    0.133180
    91  H    0.147490
    92  H    0.147257
    93  H    0.132970
    94  H    0.129983
 Sum of Mulliken charges =  -0.00000

 Dipole moment (field-independent basis, Debye):
    X=             -0.3069    Y=              0.4230    Z=             -0.6285  Tot=              0.8174
 Quadrupole moment (field-independent basis, Debye-Ang):
   XX=           -288.7584   YY=           -299.8059   ZZ=           -301.2143
   XY=             -5.1592   XZ=              3.6472   YZ=             -4.7788

 Normal termination of Gaussian 16 at Sat Nov  5 11:57:19 2022.
