 Gaussian 16, Revision B.01,
 Gaussian 16:  ES64L-G16RevB.01 20-Dec-2017

 -----------------------------
 #p b3lyp/6-31g(d) opt SCF=XQC
 -----------------------------

 ------------------------------
 Gaussian input prepared by ASE
 ------------------------------
 Symbolic Z-matrix:
 Charge =  0 Multiplicity = 1

 SCF Done:  E(RB3LYP) =  -2319.39763051     A.U. after   16 cycles
 SCF Done:  E(RB3LYP) =  -2319.40817696     A.U. after   12 cycles
 SCF Done:  E(RB3LYP) =  -2319.40853750     A.U. after   12 cycles
 SCF Done:  E(RB3LYP) =  -2319.40860788     A.U. after   11 cycles
 SCF Done:  E(RB3LYP) =  -2319.40862627     A.U. after   10 cycles
 SCF Done:  E(RB3LYP) =  -2319.40863022     A.U. after    9 cycles
 SCF Done:  E(RB3LYP) =  -2319.40863086     A.U. after    7 cycles
 SCF Done:  E(RB3LYP) =  -2319.40863108     A.U. after    7 cycles
 SCF Done:  E(RB3LYP) =  -2319.40863112     A.U. after    7 cycles
 SCF Done:  E(RB3LYP) =  -2319.40863112     A.U. after    6 cycles
 Optimization completed.
    -- Stationary point found.

                         Standard orientation:
 ---------------------------------------------------------------------
 Center     Atomic      Atomic             Coordinates (Angstroms)
 Number     Number       Type             X           Y           Z
 ---------------------------------------------------------------------
      1          6           0        0.098069   -3.770496    1.057739
      2          6           0       -1.204529   -3.287902    0.949827
      3          6           0       -1.440232   -1.928077    0.686776
      4          6           0       -2.823522   -1.400731    0.578613
      5          6           0       -3.842765   -2.154801   -0.029745
      6          6           0       -5.138363   -1.664249   -0.133495
      7          6           0       -5.471514   -0.392750    0.362228
      8          6           0       -6.857143    0.113970    0.233109
      9          6           0       -7.164376    1.496189    0.279279
     10          7           0       -8.398224    1.956543    0.169597
     11          6           0       -9.391748    1.057271   -0.000325
     12          6           0      -10.762984    1.532403   -0.119065
     13          6           0      -11.043334    2.911371   -0.041683
     14          6           0      -12.341237    3.376840   -0.153988
     15          6           0      -13.390012    2.464690   -0.347354
     16          6           0      -13.129101    1.106118   -0.425893
     17          6           0      -11.815978    0.599715   -0.315289
     18          6           0      -11.516483   -0.836365   -0.395040
     19          6           0      -12.523354   -1.806984   -0.589520
     20          6           0      -12.223993   -3.157974   -0.657800
     21          6           0      -10.896895   -3.595478   -0.531801
     22          6           0       -9.888095   -2.667984   -0.341084
     23          6           0      -10.176340   -1.290846   -0.272892
     24          6           0       -9.099867   -0.325252   -0.073540
     25          7           0       -7.836007   -0.773149    0.044170
     26          6           0       -4.458067    0.360712    0.977501
     27          6           0       -3.162056   -0.134196    1.083011
     28          6           0       -0.334613   -1.077691    0.536144
     29          6           0        0.982822   -1.547764    0.640190
     30          6           0        2.133821   -0.625773    0.466490
     31          6           0        3.291549   -0.756575    1.252028
     32          6           0        4.370761    0.109288    1.100759
     33          6           0        4.328206    1.126228    0.138813
     34          7           0        5.430516    2.005391   -0.026633
     35          6           0        5.378838    3.404074    0.026489
     36          6           0        4.290773    4.243576    0.280438
     37          6           0        4.521838    5.617557    0.297123
     38          6           0        5.803744    6.148496    0.072403
     39          6           0        6.886177    5.307073   -0.166504
     40          6           0        6.681853    3.922258   -0.188134
     41          6           0        7.557048    2.786361   -0.381672
     42          6           0        8.925019    2.646801   -0.642348
     43          6           0        9.465561    1.375342   -0.793048
     44          6           0        8.660000    0.215786   -0.698531
     45          6           0        9.238670   -1.139045   -0.928992
     46          6           0        8.685935   -1.942584   -1.913238
     47          6           0        9.203141   -3.224397   -2.205804
     48          6           0       10.285809   -3.707351   -1.510138
     49          6           0       10.880586   -2.936110   -0.476862
     50          6           0       11.983663   -3.432986    0.269026
     51          6           0       12.537501   -2.700032    1.292854
     52          6           0       11.999416   -1.434014    1.622696
     53          6           0       10.935801   -0.919159    0.914705
     54          6           0       10.351165   -1.637360   -0.166014
     55          6           0        7.288586    0.344467   -0.443287
     56          6           0        6.754187    1.623258   -0.276102
     57          6           0        3.185329    1.264745   -0.658679
     58          6           0        2.103827    0.405227   -0.487787
     59          6           0        1.185327   -2.912468    0.904781
     60          1           0        0.267555   -4.824281    1.262188
     61          1           0       -2.044399   -3.960577    1.096979
     62          1           0       -3.607254   -3.127439   -0.452561
     63          1           0       -5.910838   -2.254581   -0.614072
     64          1           0       -6.378412    2.240179    0.384739
     65          1           0      -10.213165    3.592533    0.107273
     66          1           0      -12.546623    4.441963   -0.092894
     67          1           0      -14.412830    2.820792   -0.436481
     68          1           0      -13.961710    0.428262   -0.575585
     69          1           0      -13.558793   -1.501941   -0.688847
     70          1           0      -13.023798   -3.878134   -0.808177
     71          1           0      -10.662487   -4.655144   -0.582545
     72          1           0       -8.854776   -2.978283   -0.236652
     73          1           0       -4.684089    1.329317    1.413115
     74          1           0       -2.408755    0.456757    1.596024
     75          1           0       -0.504264   -0.024452    0.332774
     76          1           0        3.333033   -1.523515    2.020032
     77          1           0        5.242879    0.014070    1.739981
     78          1           0        3.300059    3.841653    0.464808
     79          1           0        3.690928    6.290406    0.491291
     80          1           0        5.949427    7.224784    0.090188
     81          1           0        7.878968    5.718241   -0.329914
     82          1           0        9.559310    3.524156   -0.738752
     83          1           0       10.522628    1.263889   -1.013815
     84          1           0        7.850557   -1.561137   -2.493818
     85          1           0        8.747213   -3.817238   -2.994237
     86          1           0       10.699237   -4.687460   -1.736170
     87          1           0       12.379158   -4.414348    0.016915
     88          1           0       13.379465   -3.094104    1.855688
     89          1           0       12.425085   -0.866050    2.445733
     90          1           0       10.524975    0.046542    1.187660
     91          1           0        6.665149   -0.540016   -0.368941
     92          1           0        3.158414    2.033152   -1.424984
     93          1           0        1.237283    0.511206   -1.134047
     94          1           0        2.196326   -3.305212    0.962965
 ---------------------------------------------------------------------

 The electronic state is 1-A.
 Alpha  occ. eigenvalues --  -14.38378 -14.34644 -14.34361 -10.24148 -10.24112
 Alpha  occ. eigenvalues --  -10.23656 -10.23420 -10.23241 -10.22536 -10.22499
 Alpha  occ. eigenvalues --  -10.20961 -10.20878 -10.20807 -10.20772 -10.20759
 Alpha  occ. eigenvalues --  -10.20698 -10.20597 -10.20271 -10.20269 -10.20249
 Alpha  occ. eigenvalues --  -10.20223 -10.20197 -10.20183 -10.20024 -10.19773
 Alpha  occ. eigenvalues --  -10.19748 -10.19720 -10.19712 -10.19667 -10.19666
 Alpha  occ. eigenvalues --  -10.19641 -10.19630 -10.19616 -10.19589 -10.19547
 Alpha  occ. eigenvalues --  -10.19461 -10.19455 -10.19433 -10.19418 -10.19325
 Alpha  occ. eigenvalues --  -10.19248 -10.19036 -10.18985 -10.18929 -10.18892
 Alpha  occ. eigenvalues --  -10.18882 -10.18863 -10.18825 -10.18822 -10.18792
 Alpha  occ. eigenvalues --  -10.18776 -10.18769 -10.18692 -10.18686 -10.18654
 Alpha  occ. eigenvalues --  -10.18602 -10.18415 -10.18228 -10.18201  -0.99072
 Alpha  occ. eigenvalues --   -0.98329  -0.91229  -0.88193  -0.88029  -0.87278
 Alpha  occ. eigenvalues --   -0.86986  -0.85671  -0.84831  -0.84594  -0.84091
 Alpha  occ. eigenvalues --   -0.81690  -0.81285  -0.79811  -0.78762  -0.77891
 Alpha  occ. eigenvalues --   -0.77347  -0.76182  -0.76073  -0.75699  -0.75335
 Alpha  occ. eigenvalues --   -0.74832  -0.74399  -0.74133  -0.73520  -0.72710
 Alpha  occ. eigenvalues --   -0.72635  -0.71884  -0.70903  -0.69995  -0.67171
 Alpha  occ. eigenvalues --   -0.66152  -0.65229  -0.63606  -0.63263  -0.63096
 Alpha  occ. eigenvalues --   -0.62071  -0.61675  -0.61409  -0.61027  -0.60246
 Alpha  occ. eigenvalues --   -0.59872  -0.59426  -0.58908  -0.58604  -0.58053
 Alpha  occ. eigenvalues --   -0.57418  -0.56706  -0.56578  -0.54432  -0.53999
 Alpha  occ. eigenvalues --   -0.53077  -0.52461  -0.51986  -0.51211  -0.50746
 Alpha  occ. eigenvalues --   -0.50555  -0.50309  -0.49132  -0.48895  -0.48653
 Alpha  occ. eigenvalues --   -0.48124  -0.47961  -0.46934  -0.46482  -0.46305
 Alpha  occ. eigenvalues --   -0.46162  -0.45377  -0.45249  -0.44845  -0.44704
 Alpha  occ. eigenvalues --   -0.44385  -0.43950  -0.43808  -0.43612  -0.43474
 Alpha  occ. eigenvalues --   -0.43463  -0.43274  -0.43088  -0.42838  -0.42705
 Alpha  occ. eigenvalues --   -0.42478  -0.42317  -0.42238  -0.42161  -0.41758
 Alpha  occ. eigenvalues --   -0.41204  -0.40941  -0.40438  -0.39675  -0.39162
 Alpha  occ. eigenvalues --   -0.39056  -0.38424  -0.38229  -0.37945  -0.37930
 Alpha  occ. eigenvalues --   -0.37613  -0.36922  -0.36786  -0.36525  -0.36393
 Alpha  occ. eigenvalues --   -0.36310  -0.36144  -0.35936  -0.35365  -0.35173
 Alpha  occ. eigenvalues --   -0.34436  -0.34377  -0.34140  -0.34022  -0.33759
 Alpha  occ. eigenvalues --   -0.33383  -0.33359  -0.33019  -0.32440  -0.32205
 Alpha  occ. eigenvalues --   -0.31901  -0.31103  -0.30269  -0.28865  -0.28624
 Alpha  occ. eigenvalues --   -0.28193  -0.27181  -0.27006  -0.26403  -0.25826
 Alpha  occ. eigenvalues --   -0.25539  -0.25144  -0.24617  -0.24167  -0.23941
 Alpha  occ. eigenvalues --   -0.23452  -0.22598  -0.22041  -0.21440  -0.20042
 Alpha  occ. eigenvalues --   -0.19784
 Alpha virt. eigenvalues --   -0.07069  -0.05276  -0.04155  -0.03902  -0.03418
 Alpha virt. eigenvalues --   -0.02463  -0.02204  -0.01520  -0.00830  -0.00543
 Alpha virt. eigenvalues --    0.00533   0.00607   0.01464   0.01691   0.02700

 Mulliken charges:
               1
     1  C   -0.136353
     2  C   -0.173060
     3  C    0.090899
     4  C    0.097875
     5  C   -0.181943
     6  C   -0.164766
     7  C    0.098937
     8  C    0.250735
     9  C    0.005268
    10  N   -0.489969
    11  C    0.224671
    12  C    0.083213
    13  C   -0.181147
    14  C   -0.130712
    15  C   -0.127691
    16  C   -0.204595
    17  C    0.064471
    18  C    0.071420
    19  C   -0.206773
    20  C   -0.126308
    21  C   -0.132429
    22  C   -0.179571
    23  C    0.070942
    24  C    0.260544
    25  N   -0.580773
    26  C   -0.183836
    27  C   -0.185742
    28  C   -0.229046
    29  C    0.090180
    30  C    0.098722
    31  C   -0.191129
    32  C   -0.155889
    33  C    0.273126
    34  N   -0.742968
    35  C    0.314407
    36  C   -0.176564
    37  C   -0.141563
    38  C   -0.144792
    39  C   -0.196909
    40  C    0.057566
    41  C    0.066331
    42  C   -0.203061
    43  C   -0.189902
    44  C    0.062764
    45  C    0.014417
    46  C   -0.180258
    47  C   -0.137443
    48  C   -0.187238
    49  C    0.128993
    50  C   -0.195384
    51  C   -0.132079
    52  C   -0.136872
    53  C   -0.200649
    54  C    0.091685
    55  C   -0.228350
    56  C    0.320718
    57  C   -0.157460
    58  C   -0.190637
    59  C   -0.173850
    60  H    0.135336
    61  H    0.136595
    62  H    0.136576
    63  H    0.156771
    64  H    0.148958
    65  H    0.161689
    66  H    0.133466
    67  H    0.132345
    68  H    0.135982
    69  H    0.136355
    70  H    0.132538
    71  H    0.132906
    72  H    0.160416
    73  H    0.137223
    74  H    0.138151
    75  H    0.134880
    76  H    0.142043
    77  H    0.155302
    78  H    0.139201
    79  H    0.127255
    80  H    0.124893
    81  H    0.130447
    82  H    0.132511
    83  H    0.136666
    84  H    0.134352
    85  H    0.129767
    86  H    0.127748
    87  H    0.128114
    88  H    0.128605
    89  H    0.128719
    90  H    0.146922
    91  H    0.144501
    92  H    0.153927
    93  H    0.143052
    94  H    0.135614
 Sum of Mulliken charges =  -0.00000

 Dipole moment (field-independent basis, Debye):
    X=             -1.6007    Y=             -1.3675    Z=              0.1774  Tot=              2.1127
 Quadrupole moment (field-independent basis, Debye-Ang):
   XX=           -304.1535   YY=           -306.5221   ZZ=           -338.8810
   XY=             -1.7287   XZ=             10.0948   YZ=              2.7010

 1\1\GINC-NODE43\FOpt\RB3LYP\6-31G(d)\C56H35N3\WYKGROUP\05-Nov-2022\0\\
 #p b3lyp/6-31g(d) opt SCF=XQC\\Gaussian input prepared by ASE\\0,1\C,0
 .0574517718,3.76570473,-0.9473554561\C,1.3598136177,3.3010854896,-0.77
 62248398\C,1.5950060847,1.9845005705,-0.3459148006\C,2.9777961574,1.48
 11757285,-0.1513926476\C,4.0166844091,1.8572338953,-1.0213747631\C,5.3
 118967139,1.3875890925,-0.8429442577\C,5.625084578,0.5144994958,0.2120
 766392\C,7.0108738192,0.0191820276,0.3783688352\C,7.3093428655,-1.1675
 893294,1.0921922653\N,8.5431460123,-1.614112335,1.2493062636\C,9.54561

 Normal termination of Gaussian 16 at Sat Nov  5 01:51:12 2022.
