 Gaussian 16, Revision B.01,
 Gaussian 16:  ES64L-G16RevB.01 20-Dec-2017

 -------------------------------------------------------------------
 #p b3lyp/6-31g(d) 6D 10F nosymm GFInput td=(50-50,nstate=2) SCF=XQC
 -------------------------------------------------------------------

 ------------------------------
 Gaussian input prepared by ASE
 ------------------------------
 Symbolic Z-matrix:
 Charge =  0 Multiplicity = 1

                          Input orientation:
 ---------------------------------------------------------------------
 Center     Atomic      Atomic             Coordinates (Angstroms)
 Number     Number       Type             X           Y           Z
 ---------------------------------------------------------------------
      1          6           0       -1.132964   -5.881699   -4.401316
      2          6           0       -0.261646   -5.041160   -3.706298
      3          6           0       -0.759753   -4.106092   -2.799791
      4          6           0       -2.141311   -3.984423   -2.567058
      5          6           0       -2.675191   -2.992672   -1.600198
      6          6           0       -3.811842   -3.265685   -0.820218
      7          6           0       -4.294365   -2.325895    0.074251
      8          6           0       -3.673439   -1.077076    0.232536
      9          8           0       -4.287998   -0.320289    1.201979
     10          6           0       -3.945584    0.939741    1.661657
     11          6           0       -3.473012    1.023053    2.971820
     12          6           0       -3.299488    2.270128    3.569813
     13          6           0       -3.614337    3.429863    2.860765
     14          6           0       -4.084623    3.334007    1.550812
     15          6           0       -4.257281    2.092213    0.925332
     16          6           0       -4.687776    2.011240   -0.501694
     17          6           0       -6.027854    2.173375   -0.870181
     18          6           0       -6.405030    2.146416   -2.213410
     19          6           0       -5.438332    1.964375   -3.202506
     20          6           0       -4.098351    1.808507   -2.845570
     21          6           0       -3.709017    1.823551   -1.501130
     22          6           0       -2.272950    1.709208   -1.103448
     23          6           0       -1.435736    2.815355   -1.256927
     24          6           0       -0.109097    2.760089   -0.827705
     25          6           0        0.958608    3.737206   -0.833269
     26          6           0        1.028508    5.045692   -1.319378
     27          6           0        2.227121    5.743676   -1.208771
     28          6           0        3.345477    5.133778   -0.623412
     29          6           0        3.295918    3.830626   -0.126700
     30          6           0        2.086272    3.137273   -0.227241
     31          7           0        1.742995    1.806780    0.144992
     32          6           0        2.576305    0.896853    0.785825
     33          7           0        3.668200    1.381295    1.391153
     34          6           0        4.441881    0.467711    1.995276
     35          6           0        5.655391    0.949963    2.697519
     36          6           0        5.871400    2.324512    2.885167
     37          6           0        7.012726    2.772474    3.545714
     38          6           0        7.952710    1.855634    4.022907
     39          6           0        7.743210    0.486392    3.841140
     40          6           0        6.600347    0.034258    3.186202
     41          7           0        4.187567   -0.849109    2.013073
     42          6           0        3.068773   -1.233308    1.378842
     43          6           0        2.744086   -2.679642    1.364392
     44          6           0        3.524274   -3.585460    2.100714
     45          6           0        3.219908   -4.944330    2.091366
     46          6           0        2.137412   -5.416456    1.344892
     47          6           0        1.357539   -4.522304    0.607106
     48          6           0        1.657885   -3.162367    0.617001
     49          7           0        2.228182   -0.395892    0.752079
     50          6           0        0.391953    1.581639   -0.236971
     51          6           0       -0.427393    0.462760   -0.087377
     52          6           0       -1.759134    0.522733   -0.522818
     53          6           0       -2.537724   -0.758375   -0.534719
     54          6           0       -2.073419   -1.741450   -1.430217
     55          6           0       -3.004758   -4.835574   -3.278951
     56          6           0       -2.507502   -5.773566   -4.182426
     57          1           0       -0.745285   -6.611748   -5.106651
     58          1           0        0.811296   -5.117717   -3.862568
     59          1           0       -0.066461   -3.474235   -2.251622
     60          1           0       -4.303653   -4.231373   -0.892774
     61          1           0       -5.157871   -2.537915    0.696615
     62          1           0       -3.265583    0.103360    3.509828
     63          1           0       -2.929593    2.332198    4.589500
     64          1           0       -3.490461    4.405621    3.321870
     65          1           0       -4.317236    4.234420    0.988578
     66          1           0       -6.775403    2.320778   -0.095400
     67          1           0       -7.450107    2.269165   -2.484953
     68          1           0       -5.724888    1.943941   -4.250617
     69          1           0       -3.341957    1.668583   -3.613158
     70          1           0       -1.831270    3.726696   -1.696956
     71          1           0        0.159488    5.504606   -1.783040
     72          1           0        2.299075    6.761509   -1.581515
     73          1           0        4.279149    5.684851   -0.550233
     74          1           0        4.163977    3.373083    0.322731
     75          1           0        5.131472    3.028705    2.521494
     76          1           0        7.168387    3.837990    3.691028
     77          1           0        8.843879    2.206832    4.536421
     78          1           0        8.471917   -0.229874    4.210814
     79          1           0        6.426149   -1.025640    3.039931
     80          1           0        4.360935   -3.207453    2.676920
     81          1           0        3.827660   -5.636730    2.667583
     82          1           0        1.902002   -6.477459    1.337606
     83          1           0        0.517498   -4.883453    0.020527
     84          1           0        1.060026   -2.464033    0.042495
     85          1           0       -0.045997   -0.447025    0.349342
     86          1           0       -1.218680   -1.479866   -2.046856
     87          1           0       -4.078425   -4.742579   -3.141411
     88          1           0       -3.197778   -6.414786   -4.724662
 ---------------------------------------------------------------------

 SCF Done:  E(RB3LYP) =  -2256.99990459     A.U. after   16 cycles

 Excitation energies and oscillator strengths:

 Excited state symmetry could not be determined.
 Excited State   1:      Triplet-?Sym    2.9889 eV  414.82 nm  f=0.0000  <S**2>=2.000
     185 ->189        -0.20580
     185 ->190         0.33645
     185 ->191        -0.11295
     186 ->189        -0.17916
     186 ->190         0.16762
     186 ->191        -0.10442
     187 ->189        -0.20314
     187 ->190         0.32890
 This state for optimization and/or second-order correction.
 Total Energy, E(TD-HF/TD-DFT) =  -2256.89006460
 Copying the excited state density for this state as the 1-particle RhoCI density.

 Excited state symmetry could not be determined.
 Excited State   2:      Triplet-?Sym    3.1110 eV  398.54 nm  f=0.0000  <S**2>=2.000
     175 ->195        -0.10364
     176 ->196         0.12032
     177 ->188        -0.18341
     178 ->188         0.11098
     178 ->189        -0.20310
     179 ->188        -0.38120
     179 ->189        -0.15919
     182 ->188        -0.21312
     185 ->189        -0.13392
     186 ->189         0.23788

 Excited state symmetry could not be determined.
 Excited State   3:      Singlet-?Sym    3.1900 eV  388.67 nm  f=0.0001  <S**2>=0.000
     187 ->188         0.69884

 Excited state symmetry could not be determined.
 Excited State   4:      Singlet-?Sym    3.2953 eV  376.24 nm  f=0.0004  <S**2>=0.000
     185 ->188        -0.19309
     186 ->188         0.67607

 Alpha  occ. eigenvalues --  -19.18253 -14.40033 -14.33962 -14.33952 -14.33521
 Alpha  occ. eigenvalues --  -10.31186 -10.27917 -10.27914 -10.25331 -10.24773
 Alpha  occ. eigenvalues --  -10.23117 -10.23071 -10.20352 -10.20190 -10.20097
 Alpha  occ. eigenvalues --  -10.19988 -10.19851 -10.19795 -10.19740 -10.19721
 Alpha  occ. eigenvalues --  -10.19687 -10.19638 -10.19627 -10.19602 -10.19596
 Alpha  occ. eigenvalues --  -10.19582 -10.19538 -10.19440 -10.19406 -10.19403
 Alpha  occ. eigenvalues --  -10.19400 -10.19347 -10.19234 -10.19187 -10.19152
 Alpha  occ. eigenvalues --  -10.19127 -10.19083 -10.19071 -10.18935 -10.18929
 Alpha  occ. eigenvalues --  -10.18898 -10.18853 -10.18827 -10.18808 -10.18791
 Alpha  occ. eigenvalues --  -10.18791 -10.18759 -10.18742 -10.18738 -10.18731
 Alpha  occ. eigenvalues --  -10.18722 -10.18717 -10.18601 -10.18564 -10.18536
 Alpha  occ. eigenvalues --  -10.18279  -1.07076  -1.03799  -0.98758  -0.91239
 Alpha  occ. eigenvalues --   -0.90352  -0.87306  -0.86879  -0.85721  -0.85524
 Alpha  occ. eigenvalues --   -0.85357  -0.84695  -0.84224  -0.83729  -0.79480
 Alpha  occ. eigenvalues --   -0.77886  -0.77470  -0.77097  -0.76721  -0.76187
 Alpha  occ. eigenvalues --   -0.75433  -0.74991  -0.74778  -0.74413  -0.74348
 Alpha  occ. eigenvalues --   -0.73973  -0.73017  -0.72231  -0.70993  -0.70299
 Alpha  occ. eigenvalues --   -0.67988  -0.67973  -0.64772  -0.63718  -0.62920
 Alpha  occ. eigenvalues --   -0.62194  -0.61878  -0.61281  -0.61181  -0.60558
 Alpha  occ. eigenvalues --   -0.59875  -0.59199  -0.59036  -0.58523  -0.58256
 Alpha  occ. eigenvalues --   -0.57946  -0.57267  -0.56512  -0.55091  -0.54689
 Alpha  occ. eigenvalues --   -0.53393  -0.52451  -0.51986  -0.51507  -0.51337
 Alpha  occ. eigenvalues --   -0.49982  -0.49610  -0.48485  -0.47863  -0.47467
 Alpha  occ. eigenvalues --   -0.47353  -0.47076  -0.46814  -0.46329  -0.46081
 Alpha  occ. eigenvalues --   -0.45548  -0.45327  -0.44823  -0.44269  -0.44226
 Alpha  occ. eigenvalues --   -0.44016  -0.43914  -0.43535  -0.43494  -0.43415
 Alpha  occ. eigenvalues --   -0.43019  -0.42881  -0.42787  -0.42650  -0.42455
 Alpha  occ. eigenvalues --   -0.42172  -0.41727  -0.41669  -0.41577  -0.41155
 Alpha  occ. eigenvalues --   -0.40371  -0.39327  -0.38863  -0.38655  -0.38322
 Alpha  occ. eigenvalues --   -0.37812  -0.37377  -0.37305  -0.36673  -0.36520
 Alpha  occ. eigenvalues --   -0.36197  -0.35910  -0.35448  -0.35416  -0.35373
 Alpha  occ. eigenvalues --   -0.35239  -0.35131  -0.34998  -0.34815  -0.34475
 Alpha  occ. eigenvalues --   -0.34040  -0.33957  -0.33735  -0.33555  -0.33269
 Alpha  occ. eigenvalues --   -0.33051  -0.32594  -0.31838  -0.30409  -0.27985
 Alpha  occ. eigenvalues --   -0.26753  -0.26706  -0.25805  -0.25754  -0.25628
 Alpha  occ. eigenvalues --   -0.25436  -0.25057  -0.24985  -0.24812  -0.24713
 Alpha  occ. eigenvalues --   -0.24625  -0.24547  -0.24068  -0.23753  -0.21539
 Alpha  occ. eigenvalues --   -0.21161  -0.20173
 Alpha virt. eigenvalues --   -0.07001  -0.05557  -0.03559  -0.02073  -0.00878
 Alpha virt. eigenvalues --   -0.00848  -0.00557  -0.00522  -0.00316  -0.00065
 Alpha virt. eigenvalues --    0.00076   0.00393   0.00918   0.01247   0.03495

 Mulliken charges:
               1
     1  C   -0.128083
     2  C   -0.137084
     3  C   -0.184547
     4  C    0.090628
     5  C    0.096819
     6  C   -0.177297
     7  C   -0.188001
     8  C    0.318055
     9  O   -0.586395
    10  C    0.315086
    11  C   -0.165257
    12  C   -0.133583
    13  C   -0.126431
    14  C   -0.167365
    15  C    0.023867
    16  C    0.044455
    17  C   -0.169760
    18  C   -0.127774
    19  C   -0.126613
    20  C   -0.170536
    21  C    0.036191
    22  C    0.038411
    23  C   -0.251900
    24  C    0.076766
    25  C    0.050286
    26  C   -0.194518
    27  C   -0.139162
    28  C   -0.146140
    29  C   -0.146406
    30  C    0.309163
    31  N   -0.770923
    32  C    0.714046
    33  N   -0.552969
    34  C    0.452160
    35  C    0.076814
    36  C   -0.160267
    37  C   -0.140017
    38  C   -0.115996
    39  C   -0.139438
    40  C   -0.155293
    41  N   -0.543065
    42  C    0.455517
    43  C    0.076373
    44  C   -0.156671
    45  C   -0.138813
    46  C   -0.117435
    47  C   -0.146841
    48  C   -0.168195
    49  N   -0.554877
    50  C    0.318075
    51  C   -0.205426
    52  C    0.020251
    53  C    0.039929
    54  C   -0.235400
    55  C   -0.176477
    56  C   -0.133495
    57  H    0.128119
    58  H    0.131833
    59  H    0.138788
    60  H    0.132897
    61  H    0.142772
    62  H    0.142492
    63  H    0.134356
    64  H    0.131184
    65  H    0.135334
    66  H    0.136945
    67  H    0.130669
    68  H    0.131121
    69  H    0.136726
    70  H    0.136592
    71  H    0.133250
    72  H    0.128242
    73  H    0.129058
    74  H    0.173490
    75  H    0.164163
    76  H    0.135658
    77  H    0.135473
    78  H    0.135428
    79  H    0.161954
    80  H    0.161197
    81  H    0.134354
    82  H    0.136525
    83  H    0.149431
    84  H    0.168987
    85  H    0.186140
    86  H    0.141961
    87  H    0.131416
    88  H    0.129000
 Sum of Mulliken charges =  -0.00000

 Dipole moment (field-independent basis, Debye):
    X=              1.0997    Y=              0.3642    Z=              0.4412  Tot=              1.2396
 Quadrupole moment (field-independent basis, Debye-Ang):
   XX=           -288.9235   YY=           -285.4609   ZZ=           -303.5961
   XY=             -0.2268   XZ=             14.6856   YZ=              1.9444

 Normal termination of Gaussian 16 at Sat Nov  5 11:26:55 2022.
