 Gaussian 16, Revision B.01,
 Gaussian 16:  ES64L-G16RevB.01 20-Dec-2017

 -----------------------------
 #p b3lyp/6-31g(d) opt SCF=XQC
 -----------------------------

 ------------------------------
 Gaussian input prepared by ASE
 ------------------------------
 Symbolic Z-matrix:
 Charge =  0 Multiplicity = 1

 SCF Done:  E(RB3LYP) =  -2256.98311016     A.U. after   16 cycles
 SCF Done:  E(RB3LYP) =  -2256.99763902     A.U. after   13 cycles
 SCF Done:  E(RB3LYP) =  -2256.99793050     A.U. after   13 cycles
 SCF Done:  E(RB3LYP) =  -2256.99945414     A.U. after   12 cycles
 SCF Done:  E(RB3LYP) =  -2256.99968430     A.U. after   12 cycles
 SCF Done:  E(RB3LYP) =  -2256.99972924     A.U. after   11 cycles
 SCF Done:  E(RB3LYP) =  -2256.99974860     A.U. after   10 cycles
 SCF Done:  E(RB3LYP) =  -2256.99975694     A.U. after   10 cycles
 SCF Done:  E(RB3LYP) =  -2256.99976450     A.U. after   10 cycles
 SCF Done:  E(RB3LYP) =  -2256.99976845     A.U. after   10 cycles
 SCF Done:  E(RB3LYP) =  -2256.99986058     A.U. after   12 cycles
 SCF Done:  E(RB3LYP) =  -2256.99988373     A.U. after   10 cycles
 SCF Done:  E(RB3LYP) =  -2256.99990121     A.U. after   12 cycles
 SCF Done:  E(RB3LYP) =  -2256.99990583     A.U. after   10 cycles
 SCF Done:  E(RB3LYP) =  -2256.99990776     A.U. after   10 cycles
 SCF Done:  E(RB3LYP) =  -2256.99990766     A.U. after   10 cycles
 SCF Done:  E(RB3LYP) =  -2256.99990937     A.U. after   10 cycles
 SCF Done:  E(RB3LYP) =  -2256.99990933     A.U. after   10 cycles
 SCF Done:  E(RB3LYP) =  -2256.99990947     A.U. after    7 cycles
 SCF Done:  E(RB3LYP) =  -2256.99990948     A.U. after    6 cycles
 Optimization completed.
    -- Stationary point found.

                         Standard orientation:
 ---------------------------------------------------------------------
 Center     Atomic      Atomic             Coordinates (Angstroms)
 Number     Number       Type             X           Y           Z
 ---------------------------------------------------------------------
      1          6           0        3.693168    6.053512   -2.652598
      2          6           0        2.499147    5.355421   -2.463565
      3          6           0        2.465550    4.228297   -1.643394
      4          6           0        3.624720    3.767697   -0.993899
      5          6           0        3.592223    2.570320   -0.117173
      6          6           0        4.394627    2.480215    1.033005
      7          6           0        4.350353    1.353544    1.835977
      8          6           0        3.511974    0.269292    1.533207
      9          8           0        3.592320   -0.719786    2.484783
     10          6           0        2.897051   -1.914993    2.550443
     11          6           0        1.972334   -2.047241    3.586880
     12          6           0        1.383420   -3.285238    3.838767
     13          6           0        1.733235   -4.391074    3.063125
     14          6           0        2.657914   -4.246212    2.028564
     15          6           0        3.255165   -3.009775    1.749989
     16          6           0        4.183598   -2.855981    0.591263
     17          6           0        5.517242   -3.273067    0.664139
     18          6           0        6.357116   -3.169504   -0.445428
     19          6           0        5.863907   -2.653056   -1.643753
     20          6           0        4.533501   -2.240641   -1.728479
     21          6           0        3.684080   -2.330071   -0.619510
     22          6           0        2.243791   -1.940840   -0.706575
     23          6           0        1.345387   -2.800051   -1.341137
     24          6           0       -0.016271   -2.496661   -1.374278
     25          6           0       -1.157712   -3.196708   -1.923667
     26          6           0       -1.266721   -4.385725   -2.650083
     27          6           0       -2.522947   -4.800424   -3.081372
     28          6           0       -3.656642   -4.027668   -2.793409
     29          6           0       -3.571030   -2.840460   -2.064990
     30          6           0       -2.309162   -2.433973   -1.621651
     31          7           0       -1.904609   -1.272120   -0.905382
     32          6           0       -2.746613   -0.281202   -0.413293
     33          7           0       -4.049331   -0.574115   -0.310968
     34          6           0       -4.822734    0.411218    0.167727
     35          6           0       -6.271766    0.136335    0.319596
     36          6           0       -6.771541   -1.165200    0.153806
     37          6           0       -8.133455   -1.418329    0.297802
     38          6           0       -9.012243   -0.376518    0.604790
     39          6           0       -8.521473    0.920658    0.772818
     40          6           0       -7.159490    1.176783    0.635321
     41          7           0       -4.372648    1.623259    0.524643
     42          6           0       -3.051797    1.816718    0.385063
     43          6           0       -2.503516    3.141770    0.760749
     44          6           0       -3.332422    4.104997    1.357807
     45          6           0       -2.819468    5.349560    1.714448
     46          6           0       -1.475958    5.649890    1.476317
     47          6           0       -0.644824    4.698184    0.880072
     48          6           0       -1.154479    3.451607    0.525061
     49          7           0       -2.195939    0.892480   -0.077519
     50          6           0       -0.490203   -1.315928   -0.765982
     51          6           0        0.395426   -0.439873   -0.138459
     52          6           0        1.763223   -0.748217   -0.110282
     53          6           0        2.698022    0.313498    0.386199
     54          6           0        2.766704    1.477960   -0.403259
     55          6           0        4.819495    4.479887   -1.199057
     56          6           0        4.853261    5.609273   -2.015579
     57          1           0        3.719629    6.932937   -3.290310
     58          1           0        1.586940    5.692828   -2.948870
     59          1           0        1.523536    3.709119   -1.490270
     60          1           0        5.035421    3.309925    1.317010
     61          1           0        4.949840    1.285922    2.738182
     62          1           0        1.742462   -1.176962    4.193582
     63          1           0        0.662273   -3.385010    4.645258
     64          1           0        1.285811   -5.361613    3.257892
     65          1           0        2.922955   -5.100655    1.411603
     66          1           0        5.893898   -3.680048    1.598666
     67          1           0        7.392030   -3.493130   -0.373266
     68          1           0        6.512057   -2.571062   -2.512228
     69          1           0        4.144853   -1.839745   -2.660754
     70          1           0        1.713135   -3.717037   -1.793368
     71          1           0       -0.380017   -4.970626   -2.879057
     72          1           0       -2.625801   -5.721975   -3.647290
     73          1           0       -4.631711   -4.356243   -3.142780
     74          1           0       -4.451895   -2.255372   -1.849102
     75          1           0       -6.081170   -1.969816   -0.073400
     76          1           0       -8.510028   -2.429913    0.173059
     77          1           0      -10.075070   -0.575264    0.714867
     78          1           0       -9.201709    1.733650    1.011633
     79          1           0       -6.766553    2.178833    0.764237
     80          1           0       -4.372776    3.860305    1.538624
     81          1           0       -3.468378    6.086809    2.179409
     82          1           0       -1.077499    6.622152    1.754051
     83          1           0        0.399543    4.927080    0.687521
     84          1           0       -0.516258    2.710671    0.057244
     85          1           0        0.041562    0.472791    0.315105
     86          1           0        2.164732    1.495006   -1.306912
     87          1           0        5.736405    4.128714   -0.733999
     88          1           0        5.791942    6.137462   -2.162406
 ---------------------------------------------------------------------

 The electronic state is 1-A.
 Alpha  occ. eigenvalues --  -19.18253 -14.40033 -14.33962 -14.33952 -14.33521
 Alpha  occ. eigenvalues --  -10.31186 -10.27917 -10.27914 -10.25331 -10.24773
 Alpha  occ. eigenvalues --  -10.23117 -10.23072 -10.20352 -10.20190 -10.20097
 Alpha  occ. eigenvalues --  -10.19988 -10.19851 -10.19795 -10.19740 -10.19721
 Alpha  occ. eigenvalues --  -10.19687 -10.19638 -10.19627 -10.19602 -10.19596
 Alpha  occ. eigenvalues --  -10.19582 -10.19538 -10.19440 -10.19406 -10.19403
 Alpha  occ. eigenvalues --  -10.19400 -10.19347 -10.19234 -10.19187 -10.19152
 Alpha  occ. eigenvalues --  -10.19127 -10.19083 -10.19071 -10.18935 -10.18929
 Alpha  occ. eigenvalues --  -10.18898 -10.18853 -10.18827 -10.18808 -10.18791
 Alpha  occ. eigenvalues --  -10.18791 -10.18759 -10.18742 -10.18738 -10.18731
 Alpha  occ. eigenvalues --  -10.18722 -10.18717 -10.18601 -10.18564 -10.18536
 Alpha  occ. eigenvalues --  -10.18279  -1.07076  -1.03799  -0.98758  -0.91239
 Alpha  occ. eigenvalues --   -0.90352  -0.87306  -0.86879  -0.85721  -0.85524
 Alpha  occ. eigenvalues --   -0.85357  -0.84695  -0.84224  -0.83729  -0.79481
 Alpha  occ. eigenvalues --   -0.77886  -0.77470  -0.77097  -0.76721  -0.76187
 Alpha  occ. eigenvalues --   -0.75433  -0.74991  -0.74778  -0.74413  -0.74348
 Alpha  occ. eigenvalues --   -0.73973  -0.73017  -0.72231  -0.70993  -0.70299
 Alpha  occ. eigenvalues --   -0.67988  -0.67973  -0.64772  -0.63718  -0.62920
 Alpha  occ. eigenvalues --   -0.62194  -0.61878  -0.61281  -0.61181  -0.60558
 Alpha  occ. eigenvalues --   -0.59875  -0.59199  -0.59036  -0.58523  -0.58256
 Alpha  occ. eigenvalues --   -0.57946  -0.57267  -0.56512  -0.55091  -0.54689
 Alpha  occ. eigenvalues --   -0.53393  -0.52451  -0.51986  -0.51507  -0.51337
 Alpha  occ. eigenvalues --   -0.49982  -0.49610  -0.48485  -0.47863  -0.47467
 Alpha  occ. eigenvalues --   -0.47353  -0.47076  -0.46814  -0.46329  -0.46081
 Alpha  occ. eigenvalues --   -0.45548  -0.45327  -0.44823  -0.44269  -0.44226
 Alpha  occ. eigenvalues --   -0.44016  -0.43914  -0.43535  -0.43494  -0.43415
 Alpha  occ. eigenvalues --   -0.43019  -0.42881  -0.42787  -0.42650  -0.42455
 Alpha  occ. eigenvalues --   -0.42172  -0.41727  -0.41669  -0.41577  -0.41155
 Alpha  occ. eigenvalues --   -0.40371  -0.39328  -0.38863  -0.38655  -0.38322
 Alpha  occ. eigenvalues --   -0.37812  -0.37377  -0.37305  -0.36673  -0.36520
 Alpha  occ. eigenvalues --   -0.36197  -0.35910  -0.35448  -0.35416  -0.35373
 Alpha  occ. eigenvalues --   -0.35239  -0.35131  -0.34998  -0.34815  -0.34475
 Alpha  occ. eigenvalues --   -0.34040  -0.33957  -0.33735  -0.33555  -0.33269
 Alpha  occ. eigenvalues --   -0.33051  -0.32594  -0.31838  -0.30409  -0.27985
 Alpha  occ. eigenvalues --   -0.26753  -0.26706  -0.25805  -0.25754  -0.25628
 Alpha  occ. eigenvalues --   -0.25436  -0.25057  -0.24985  -0.24812  -0.24713
 Alpha  occ. eigenvalues --   -0.24625  -0.24547  -0.24068  -0.23753  -0.21539
 Alpha  occ. eigenvalues --   -0.21161  -0.20173
 Alpha virt. eigenvalues --   -0.07001  -0.05557  -0.03559  -0.02073  -0.00878
 Alpha virt. eigenvalues --   -0.00848  -0.00557  -0.00522  -0.00316  -0.00065
 Alpha virt. eigenvalues --    0.00076   0.00393   0.00918   0.01247   0.03495

 Mulliken charges:
               1
     1  C   -0.128083
     2  C   -0.137080
     3  C   -0.184548
     4  C    0.090626
     5  C    0.096822
     6  C   -0.177297
     7  C   -0.188001
     8  C    0.318048
     9  O   -0.586410
    10  C    0.315118
    11  C   -0.165261
    12  C   -0.133586
    13  C   -0.126434
    14  C   -0.167360
    15  C    0.023857
    16  C    0.044486
    17  C   -0.169749
    18  C   -0.127779
    19  C   -0.126609
    20  C   -0.170542
    21  C    0.036151
    22  C    0.038425
    23  C   -0.251880
    24  C    0.076774
    25  C    0.050286
    26  C   -0.194526
    27  C   -0.139161
    28  C   -0.146135
    29  C   -0.146409
    30  C    0.309158
    31  N   -0.770923
    32  C    0.714043
    33  N   -0.552957
    34  C    0.452139
    35  C    0.076829
    36  C   -0.160274
    37  C   -0.140008
    38  C   -0.116006
    39  C   -0.139427
    40  C   -0.155299
    41  N   -0.543065
    42  C    0.455540
    43  C    0.076353
    44  C   -0.156656
    45  C   -0.138814
    46  C   -0.117440
    47  C   -0.146842
    48  C   -0.168187
    49  N   -0.554889
    50  C    0.318049
    51  C   -0.205404
    52  C    0.020192
    53  C    0.039976
    54  C   -0.235413
    55  C   -0.176473
    56  C   -0.133496
    57  H    0.128119
    58  H    0.131829
    59  H    0.138788
    60  H    0.132895
    61  H    0.142772
    62  H    0.142491
    63  H    0.134356
    64  H    0.131184
    65  H    0.135333
    66  H    0.136944
    67  H    0.130669
    68  H    0.131121
    69  H    0.136726
    70  H    0.136591
    71  H    0.133251
    72  H    0.128242
    73  H    0.129057
    74  H    0.173493
    75  H    0.164163
    76  H    0.135657
    77  H    0.135474
    78  H    0.135427
    79  H    0.161953
    80  H    0.161197
    81  H    0.134354
    82  H    0.136526
    83  H    0.149434
    84  H    0.168987
    85  H    0.186141
    86  H    0.141963
    87  H    0.131415
    88  H    0.129000
 Sum of Mulliken charges =  -0.00000

 Dipole moment (field-independent basis, Debye):
    X=             -1.2295    Y=             -0.1550    Z=             -0.0285  Tot=              1.2396
 Quadrupole moment (field-independent basis, Debye-Ang):
   XX=           -280.9226   YY=           -286.1956   ZZ=           -311.0111
   XY=              0.7431   XZ=             -5.6644   YZ=              4.2438

 Normal termination of Gaussian 16 at Sat Nov  5 03:31:56 2022.
