 Gaussian 16, Revision B.01,
 Gaussian 16:  ES64L-G16RevB.01 20-Dec-2017

 -------------------------------------------------------------------
 #p b3lyp/6-31g(d) 6D 10F nosymm GFInput td=(50-50,nstate=2) SCF=XQC
 -------------------------------------------------------------------

 ------------------------------
 Gaussian input prepared by ASE
 ------------------------------
 Symbolic Z-matrix:
 Charge =  0 Multiplicity = 1

                          Input orientation:
 ---------------------------------------------------------------------
 Center     Atomic      Atomic             Coordinates (Angstroms)
 Number     Number       Type             X           Y           Z
 ---------------------------------------------------------------------
      1          7           0        0.688237   -4.228983   -2.722266
      2          6           0       -0.455313   -4.188803   -2.511288
      3          6           0       -1.875670   -4.176267   -2.303881
      4          6           0       -2.665259   -4.950562   -3.172426
      5          6           0       -4.050749   -4.948962   -3.055546
      6          6           0       -4.656495   -4.167852   -2.069571
      7          6           0       -3.877454   -3.400939   -1.205368
      8          6           0       -2.477334   -3.387118   -1.293303
      9          6           0       -1.694384   -2.553732   -0.340660
     10          6           0       -2.080762   -1.228629   -0.105119
     11          6           0       -1.390073   -0.414352    0.803062
     12          6           0       -1.832478    0.993616    1.017978
     13          6           0       -1.020317    1.938491    1.665809
     14          6           0       -1.505633    3.231343    1.833811
     15          6           0       -2.772828    3.554119    1.360680
     16          6           0       -3.528551    2.558266    0.718513
     17          6           0       -4.883661    2.837272    0.173016
     18          6           0       -5.684131    3.896816    0.690655
     19          6           0       -6.931670    4.159038    0.177637
     20          6           0       -7.463632    3.387090   -0.889436
     21          6           0       -8.745430    3.633564   -1.448070
     22          6           0       -9.223364    2.859322   -2.481781
     23          6           0       -8.439359    1.800836   -3.004761
     24          6           0       -7.193436    1.536097   -2.483379
     25          6           0       -6.670648    2.315420   -1.414780
     26          6           0       -5.391925    2.066142   -0.858114
     27          7           0       -3.051284    1.313140    0.554360
     28          6           0       -0.308023   -0.963596    1.504070
     29          6           0        0.093677   -2.282556    1.273511
     30          7           0        1.187452   -2.822357    2.001800
     31          6           0        1.144029   -3.952587    2.827474
     32          6           0        0.067844   -4.790827    3.129515
     33          6           0        0.296233   -5.847720    4.008514
     34          6           0        1.561762   -6.065837    4.579694
     35          6           0        2.626736   -5.219727    4.285096
     36          6           0        2.424551   -4.149368    3.405648
     37          6           0        3.276244   -3.092297    2.905668
     38          6           0        4.622549   -2.757797    3.089644
     39          6           0        5.150083   -1.659394    2.423088
     40          6           0        4.361124   -0.871542    1.551211
     41          6           0        4.957760    0.285976    0.840002
     42          6           0        6.282329    0.250304    0.371018
     43          6           0        6.842046    1.334652   -0.296978
     44          6           0        6.104920    2.507749   -0.530490
     45          6           0        6.702133    3.664363   -1.243146
     46          6           0        8.049292    4.015863   -1.049921
     47          6           0        8.610927    5.101856   -1.719530
     48          6           0        7.837646    5.863650   -2.597504
     49          6           0        6.497739    5.527659   -2.799763
     50          6           0        5.937285    4.440469   -2.131099
     51          6           0        4.780463    2.543925   -0.063209
     52          6           0        4.221794    1.460205    0.606495
     53          6           0        3.010132   -1.197344    1.362302
     54          6           0        2.482201   -2.291581    2.046957
     55          6           0       -0.589052   -3.075360    0.347384
     56          1           0       -2.175755   -5.540638   -3.940585
     57          1           0       -4.652344   -5.551065   -3.729786
     58          1           0       -5.737990   -4.160807   -1.966516
     59          1           0       -4.355212   -2.811758   -0.428463
     60          1           0       -2.921462   -0.802516   -0.639131
     61          1           0       -0.025577    1.681513    2.011556
     62          1           0       -0.892878    3.986484    2.318701
     63          1           0       -3.153726    4.564512    1.457909
     64          1           0       -5.319070    4.488690    1.524440
     65          1           0       -7.533616    4.963498    0.593693
     66          1           0       -9.345014    4.446735   -1.045530
     67          1           0      -10.205452    3.058176   -2.902202
     68          1           0       -8.827679    1.198567   -3.821632
     69          1           0       -6.588532    0.725488   -2.882835
     70          1           0       -4.789554    1.254808   -1.254065
     71          1           0        0.218568   -0.392486    2.260235
     72          1           0       -0.914333   -4.624940    2.699251
     73          1           0       -0.524801   -6.514837    4.256838
     74          1           0        1.706971   -6.900813    5.259157
     75          1           0        3.602700   -5.384408    4.734219
     76          1           0        5.251058   -3.348002    3.751405
     77          1           0        6.186193   -1.382058    2.590629
     78          1           0        6.869475   -0.654552    0.498826
     79          1           0        7.856864    1.256961   -0.677250
     80          1           0        8.653271    3.447015   -0.348418
     81          1           0        9.653095    5.358641   -1.547878
     82          1           0        8.275092    6.710460   -3.119425
     83          1           0        5.888321    6.107537   -3.488150
     84          1           0        4.901567    4.170899   -2.318452
     85          1           0        4.191967    3.447717   -0.195303
     86          1           0        3.206264    1.537213    0.985100
     87          1           0        2.402277   -0.633028    0.663282
     88          1           0       -0.258964   -4.094158    0.179031
 ---------------------------------------------------------------------

 SCF Done:  E(RB3LYP) =  -2165.73308985     A.U. after   16 cycles

 Excitation energies and oscillator strengths:

 Excited state symmetry could not be determined.
 Excited State   1:      Triplet-?Sym    2.5505 eV  486.13 nm  f=0.0000  <S**2>=2.000
     179 ->189         0.16819
     181 ->184        -0.22859
     181 ->185         0.51630
     181 ->186         0.23606
     181 ->188         0.12201
     181 ->189         0.19001
 This state for optimization and/or second-order correction.
 Total Energy, E(TD-HF/TD-DFT) =  -2165.63936229
 Copying the excited state density for this state as the 1-particle RhoCI density.

 Excited state symmetry could not be determined.
 Excited State   2:      Triplet-?Sym    2.8187 eV  439.87 nm  f=0.0000  <S**2>=2.000
     180 ->190        -0.17560
     182 ->187        -0.53970
     183 ->187        -0.31848
     183 ->195        -0.10915

 Excited state symmetry could not be determined.
 Excited State   3:      Singlet-?Sym    3.2308 eV  383.75 nm  f=0.0058  <S**2>=0.000
     182 ->184        -0.25139
     183 ->184         0.62108
     183 ->185         0.18053

 Excited state symmetry could not be determined.
 Excited State   4:      Singlet-?Sym    3.3680 eV  368.13 nm  f=0.0005  <S**2>=0.000
     182 ->184         0.63259
     182 ->185         0.14673
     183 ->184         0.25451

 Alpha  occ. eigenvalues --  -14.38201 -14.33493 -14.33332 -10.24416 -10.24297
 Alpha  occ. eigenvalues --  -10.24179 -10.24083 -10.23044 -10.22668 -10.22367
 Alpha  occ. eigenvalues --  -10.22356 -10.21999 -10.21791 -10.21625 -10.21593
 Alpha  occ. eigenvalues --  -10.21384 -10.21338 -10.21222 -10.20670 -10.20645
 Alpha  occ. eigenvalues --  -10.20604 -10.20549 -10.20372 -10.20243 -10.20164
 Alpha  occ. eigenvalues --  -10.20022 -10.19773 -10.19638 -10.19607 -10.19583
 Alpha  occ. eigenvalues --  -10.19582 -10.19573 -10.19517 -10.19506 -10.19498
 Alpha  occ. eigenvalues --  -10.19488 -10.19332 -10.18775 -10.18763 -10.18746
 Alpha  occ. eigenvalues --  -10.18720 -10.18705 -10.18678 -10.18667 -10.18664
 Alpha  occ. eigenvalues --  -10.18635 -10.18630 -10.18622 -10.18621 -10.18608
 Alpha  occ. eigenvalues --  -10.18604 -10.18594 -10.18515 -10.18025 -10.18017
 Alpha  occ. eigenvalues --   -0.98991  -0.95404  -0.90777  -0.88639  -0.87724
 Alpha  occ. eigenvalues --   -0.87220  -0.86518  -0.85106  -0.84316  -0.83614
 Alpha  occ. eigenvalues --   -0.83093  -0.81149  -0.80567  -0.79835  -0.78444
 Alpha  occ. eigenvalues --   -0.78164  -0.77475  -0.76628  -0.75570  -0.74932
 Alpha  occ. eigenvalues --   -0.74652  -0.74365  -0.73712  -0.73306  -0.73001
 Alpha  occ. eigenvalues --   -0.72098  -0.71530  -0.69768  -0.66474  -0.65871
 Alpha  occ. eigenvalues --   -0.65117  -0.64608  -0.63924  -0.62689  -0.62198
 Alpha  occ. eigenvalues --   -0.61620  -0.60961  -0.60395  -0.60133  -0.59716
 Alpha  occ. eigenvalues --   -0.59133  -0.58553  -0.57818  -0.57150  -0.56602
 Alpha  occ. eigenvalues --   -0.55619  -0.53895  -0.52783  -0.52070  -0.51823
 Alpha  occ. eigenvalues --   -0.51369  -0.51219  -0.50912  -0.50399  -0.49960
 Alpha  occ. eigenvalues --   -0.49167  -0.48887  -0.47940  -0.47830  -0.46939
 Alpha  occ. eigenvalues --   -0.46505  -0.46144  -0.45625  -0.45547  -0.45156
 Alpha  occ. eigenvalues --   -0.44984  -0.44433  -0.44264  -0.44050  -0.43686
 Alpha  occ. eigenvalues --   -0.43356  -0.43181  -0.42979  -0.42746  -0.42252
 Alpha  occ. eigenvalues --   -0.42010  -0.41984  -0.41771  -0.41625  -0.41214
 Alpha  occ. eigenvalues --   -0.41154  -0.41147  -0.40482  -0.40132  -0.39437
 Alpha  occ. eigenvalues --   -0.39295  -0.38896  -0.38302  -0.38205  -0.37760
 Alpha  occ. eigenvalues --   -0.37398  -0.37062  -0.36844  -0.36390  -0.36134
 Alpha  occ. eigenvalues --   -0.35911  -0.35630  -0.35356  -0.34690  -0.34571
 Alpha  occ. eigenvalues --   -0.34511  -0.34449  -0.33824  -0.33592  -0.33586
 Alpha  occ. eigenvalues --   -0.33359  -0.33111  -0.32774  -0.32646  -0.32311
 Alpha  occ. eigenvalues --   -0.30317  -0.29675  -0.28914  -0.28494  -0.27971
 Alpha  occ. eigenvalues --   -0.26780  -0.26383  -0.26259  -0.25293  -0.25065
 Alpha  occ. eigenvalues --   -0.24762  -0.24684  -0.24677  -0.23392  -0.22719
 Alpha  occ. eigenvalues --   -0.21541  -0.19870  -0.19789
 Alpha virt. eigenvalues --   -0.06005  -0.05638  -0.05245  -0.04077  -0.03562
 Alpha virt. eigenvalues --   -0.03014  -0.01316  -0.00718  -0.00082  -0.00027
 Alpha virt. eigenvalues --    0.00361   0.00821   0.02208   0.02674   0.03316

 Mulliken charges:
               1
     1  N   -0.480719
     2  C    0.226858
     3  C    0.100137
     4  C   -0.142186
     5  C   -0.132419
     6  C   -0.118720
     7  C   -0.187579
     8  C    0.082897
     9  C    0.065697
    10  C   -0.205470
    11  C    0.092830
    12  C    0.266319
    13  C   -0.173561
    14  C   -0.105315
    15  C   -0.170870
    16  C    0.254978
    17  C    0.100174
    18  C   -0.178096
    19  C   -0.203523
    20  C    0.146713
    21  C   -0.193366
    22  C   -0.133071
    23  C   -0.138359
    24  C   -0.185939
    25  C    0.136403
    26  C   -0.245813
    27  N   -0.569813
    28  C   -0.213313
    29  C    0.273622
    30  N   -0.749057
    31  C    0.317414
    32  C   -0.175985
    33  C   -0.140867
    34  C   -0.144534
    35  C   -0.196288
    36  C    0.058619
    37  C    0.065814
    38  C   -0.200773
    39  C   -0.196900
    40  C    0.091801
    41  C    0.094044
    42  C   -0.181142
    43  C   -0.182008
    44  C    0.094804
    45  C    0.089247
    46  C   -0.173851
    47  C   -0.133710
    48  C   -0.127014
    49  C   -0.133823
    50  C   -0.174059
    51  C   -0.181470
    52  C   -0.178306
    53  C   -0.239160
    54  C    0.323230
    55  C   -0.184716
    56  H    0.163141
    57  H    0.146967
    58  H    0.146805
    59  H    0.157145
    60  H    0.167426
    61  H    0.148159
    62  H    0.146843
    63  H    0.145340
    64  H    0.130902
    65  H    0.132068
    66  H    0.131458
    67  H    0.132362
    68  H    0.131537
    69  H    0.132027
    70  H    0.154008
    71  H    0.155123
    72  H    0.137140
    73  H    0.126810
    74  H    0.124422
    75  H    0.130323
    76  H    0.131704
    77  H    0.127600
    78  H    0.135521
    79  H    0.133273
    80  H    0.131741
    81  H    0.129657
    82  H    0.128676
    83  H    0.129639
    84  H    0.132563
    85  H    0.130050
    86  H    0.123530
    87  H    0.146704
    88  H    0.169529
 Sum of Mulliken charges =  -0.00000

 Dipole moment (field-independent basis, Debye):
    X=             -4.9478    Y=              2.0310    Z=              0.6301  Tot=              5.3854
 Quadrupole moment (field-independent basis, Debye-Ang):
   XX=           -274.9549   YY=           -288.6638   ZZ=           -308.0799
   XY=             13.6919   XZ=             17.4314   YZ=              1.8592

 Normal termination of Gaussian 16 at Sat Nov  5 11:35:21 2022.
