 Gaussian 16, Revision B.01,
 Gaussian 16:  ES64L-G16RevB.01 20-Dec-2017

 -----------------------------
 #p b3lyp/6-31g(d) opt SCF=XQC
 -----------------------------

 ------------------------------
 Gaussian input prepared by ASE
 ------------------------------
 Symbolic Z-matrix:
 Charge =  0 Multiplicity = 1

 SCF Done:  E(RB3LYP) =  -2165.72092442     A.U. after   16 cycles
 SCF Done:  E(RB3LYP) =  -2165.73214031     A.U. after   13 cycles
 SCF Done:  E(RB3LYP) =  -2165.73256007     A.U. after   13 cycles
 SCF Done:  E(RB3LYP) =  -2165.73269245     A.U. after   13 cycles
 SCF Done:  E(RB3LYP) =  -2165.73302665     A.U. after   11 cycles
 SCF Done:  E(RB3LYP) =  -2165.73306342     A.U. after   11 cycles
 SCF Done:  E(RB3LYP) =  -2165.73306632     A.U. after   11 cycles
 SCF Done:  E(RB3LYP) =  -2165.73307944     A.U. after   10 cycles
 SCF Done:  E(RB3LYP) =  -2165.73308437     A.U. after   10 cycles
 SCF Done:  E(RB3LYP) =  -2165.73308660     A.U. after   10 cycles
 SCF Done:  E(RB3LYP) =  -2165.73308811     A.U. after   10 cycles
 SCF Done:  E(RB3LYP) =  -2165.73308868     A.U. after   10 cycles
 SCF Done:  E(RB3LYP) =  -2165.73308876     A.U. after    7 cycles
 SCF Done:  E(RB3LYP) =  -2165.73308877     A.U. after    6 cycles
 SCF Done:  E(RB3LYP) =  -2165.73308877     A.U. after    6 cycles
 Optimization completed.
    -- Stationary point found.

                         Standard orientation:
 ---------------------------------------------------------------------
 Center     Atomic      Atomic             Coordinates (Angstroms)
 Number     Number       Type             X           Y           Z
 ---------------------------------------------------------------------
      1          7           0        0.267378    3.047960    3.991498
      2          6           0       -0.841976    3.087876    3.642822
      3          6           0       -2.227152    3.157029    3.272561
      4          6           0       -3.130895    3.651503    4.229692
      5          6           0       -4.492420    3.703899    3.952651
      6          6           0       -4.959795    3.257138    2.715245
      7          6           0       -4.067200    2.768584    1.763145
      8          6           0       -2.687384    2.709793    2.009949
      9          6           0       -1.778972    2.183778    0.954882
     10          6           0       -2.105475    0.992765    0.294921
     11          6           0       -1.294338    0.473178   -0.723401
     12          6           0       -1.677078   -0.802302   -1.394924
     13          6           0       -0.773311   -1.525194   -2.190356
     14          6           0       -1.206740   -2.703941   -2.788618
     15          6           0       -2.513636   -3.134169   -2.586750
     16          6           0       -3.361826   -2.361693   -1.774917
     17          6           0       -4.765530   -2.770228   -1.502062
     18          6           0       -5.475546   -3.618477   -2.400775
     19          6           0       -6.768985   -4.002901   -2.140898
     20          6           0       -7.440437   -3.572872   -0.965414
     21          6           0       -8.773634   -3.955232   -0.661749
     22          6           0       -9.387551   -3.513924    0.489244
     23          6           0       -8.694488   -2.668031    1.390739
     24          6           0       -7.401718   -2.278711    1.123481
     25          6           0       -6.739031   -2.715207   -0.056719
     26          6           0       -5.409181   -2.330705   -0.358061
     27          7           0       -2.934882   -1.227292   -1.195329
     28          6           0       -0.149237    1.189610   -1.096741
     29          6           0        0.193201    2.376012   -0.441481
     30          7           0        1.353380    3.091309   -0.842065
     31          6           0        1.383178    4.415365   -1.297070
     32          6           0        0.332148    5.320415   -1.465209
     33          6           0        0.639709    6.586334   -1.959860
     34          6           0        1.958865    6.945534   -2.285722
     35          6           0        2.999821    6.035320   -2.128299
     36          6           0        2.718516    4.756035   -1.634056
     37          6           0        3.528064    3.586656   -1.369585
     38          6           0        4.893717    3.302504   -1.481498
     39          6           0        5.362648    2.049023   -1.110057
     40          6           0        4.493521    1.050098   -0.609955
     41          6           0        5.027065   -0.274005   -0.205329
     42          6           0        6.285663   -0.396910    0.408288
     43          6           0        6.786063   -1.637839    0.789086
     44          6           0        6.052472   -2.817142    0.576653
     45          6           0        6.586397   -4.140817    0.982987
     46          6           0        7.954367   -4.438492    0.857398
     47          6           0        8.456516   -5.681496    1.239469
     48          6           0        7.601657   -6.657546    1.754905
     49          6           0        6.240158   -6.377455    1.885358
     50          6           0        5.739043   -5.133603    1.504676
     51          6           0        4.793794   -2.695223   -0.035483
     52          6           0        4.294650   -1.454405   -0.417960
     53          6           0        3.122823    1.324551   -0.496488
     54          6           0        2.655732    2.579397   -0.886363
     55          6           0       -0.611686    2.869675    0.588480
     56          1           0       -2.748915    3.981670    5.190396
     57          1           0       -5.182736    4.088575    4.697320
     58          1           0       -6.021056    3.295989    2.486077
     59          1           0       -4.436504    2.441689    0.795817
     60          1           0       -2.993916    0.439866    0.575087
     61          1           0        0.249476   -1.191601   -2.323434
     62          1           0       -0.524401   -3.290861   -3.397520
     63          1           0       -2.858005   -4.065417   -3.022199
     64          1           0       -5.001372   -3.942978   -3.321991
     65          1           0       -7.299569   -4.640217   -2.844393
     66          1           0       -9.303281   -4.604893   -1.354714
     67          1           0      -10.407900   -3.814203    0.711759
     68          1           0       -9.189978   -2.328280    2.296199
     69          1           0       -6.866368   -1.630663    1.813404
     70          1           0       -4.875946   -1.680894    0.328449
     71          1           0        0.475641    0.859774   -1.918924
     72          1           0       -0.690181    5.048727   -1.223661
     73          1           0       -0.160623    7.308469   -2.096964
     74          1           0        2.165106    7.941722   -2.666530
     75          1           0        4.018242    6.311507   -2.388827
     76          1           0        5.583030    4.052847   -1.859821
     77          1           0        6.417160    1.818983   -1.226658
     78          1           0        6.863753    0.497035    0.623961
     79          1           0        7.746747   -1.690075    1.293918
     80          1           0        8.624505   -3.696480    0.432169
     81          1           0        9.517077   -5.890774    1.125752
     82          1           0        7.992747   -7.626717    2.052570
     83          1           0        5.566417   -7.126057    2.294251
     84          1           0        4.682745   -4.916835    1.637819
     85          1           0        4.213833   -3.589397   -0.246941
     86          1           0        3.333047   -1.401998   -0.921097
     87          1           0        2.449032    0.587655   -0.072742
     88          1           0       -0.326365    3.788676    1.087758
 ---------------------------------------------------------------------

 The electronic state is 1-A.
 Alpha  occ. eigenvalues --  -14.38200 -14.33493 -14.33332 -10.24416 -10.24297
 Alpha  occ. eigenvalues --  -10.24179 -10.24083 -10.23044 -10.22669 -10.22367
 Alpha  occ. eigenvalues --  -10.22356 -10.21999 -10.21791 -10.21625 -10.21593
 Alpha  occ. eigenvalues --  -10.21384 -10.21338 -10.21222 -10.20670 -10.20645
 Alpha  occ. eigenvalues --  -10.20604 -10.20549 -10.20372 -10.20243 -10.20164
 Alpha  occ. eigenvalues --  -10.20022 -10.19773 -10.19638 -10.19607 -10.19583
 Alpha  occ. eigenvalues --  -10.19582 -10.19573 -10.19517 -10.19506 -10.19498
 Alpha  occ. eigenvalues --  -10.19488 -10.19332 -10.18775 -10.18763 -10.18746
 Alpha  occ. eigenvalues --  -10.18720 -10.18705 -10.18678 -10.18667 -10.18664
 Alpha  occ. eigenvalues --  -10.18635 -10.18630 -10.18622 -10.18621 -10.18608
 Alpha  occ. eigenvalues --  -10.18604 -10.18594 -10.18515 -10.18025 -10.18017
 Alpha  occ. eigenvalues --   -0.98991  -0.95404  -0.90777  -0.88639  -0.87724
 Alpha  occ. eigenvalues --   -0.87220  -0.86518  -0.85106  -0.84316  -0.83614
 Alpha  occ. eigenvalues --   -0.83093  -0.81149  -0.80567  -0.79835  -0.78444
 Alpha  occ. eigenvalues --   -0.78164  -0.77475  -0.76629  -0.75570  -0.74932
 Alpha  occ. eigenvalues --   -0.74652  -0.74365  -0.73712  -0.73306  -0.73001
 Alpha  occ. eigenvalues --   -0.72098  -0.71530  -0.69768  -0.66474  -0.65871
 Alpha  occ. eigenvalues --   -0.65117  -0.64608  -0.63924  -0.62689  -0.62198
 Alpha  occ. eigenvalues --   -0.61620  -0.60961  -0.60395  -0.60133  -0.59716
 Alpha  occ. eigenvalues --   -0.59133  -0.58553  -0.57818  -0.57150  -0.56602
 Alpha  occ. eigenvalues --   -0.55619  -0.53895  -0.52783  -0.52070  -0.51823
 Alpha  occ. eigenvalues --   -0.51369  -0.51219  -0.50912  -0.50399  -0.49960
 Alpha  occ. eigenvalues --   -0.49167  -0.48887  -0.47939  -0.47830  -0.46939
 Alpha  occ. eigenvalues --   -0.46505  -0.46144  -0.45625  -0.45547  -0.45156
 Alpha  occ. eigenvalues --   -0.44984  -0.44433  -0.44264  -0.44050  -0.43686
 Alpha  occ. eigenvalues --   -0.43356  -0.43181  -0.42979  -0.42746  -0.42252
 Alpha  occ. eigenvalues --   -0.42010  -0.41984  -0.41771  -0.41625  -0.41214
 Alpha  occ. eigenvalues --   -0.41154  -0.41147  -0.40482  -0.40132  -0.39437
 Alpha  occ. eigenvalues --   -0.39295  -0.38896  -0.38302  -0.38205  -0.37760
 Alpha  occ. eigenvalues --   -0.37398  -0.37062  -0.36844  -0.36390  -0.36134
 Alpha  occ. eigenvalues --   -0.35911  -0.35630  -0.35356  -0.34690  -0.34571
 Alpha  occ. eigenvalues --   -0.34511  -0.34449  -0.33824  -0.33592  -0.33586
 Alpha  occ. eigenvalues --   -0.33359  -0.33111  -0.32774  -0.32646  -0.32311
 Alpha  occ. eigenvalues --   -0.30317  -0.29675  -0.28914  -0.28494  -0.27971
 Alpha  occ. eigenvalues --   -0.26780  -0.26383  -0.26259  -0.25293  -0.25065
 Alpha  occ. eigenvalues --   -0.24762  -0.24684  -0.24677  -0.23392  -0.22719
 Alpha  occ. eigenvalues --   -0.21542  -0.19870  -0.19789
 Alpha virt. eigenvalues --   -0.06005  -0.05638  -0.05245  -0.04077  -0.03562
 Alpha virt. eigenvalues --   -0.03014  -0.01316  -0.00718  -0.00082  -0.00027
 Alpha virt. eigenvalues --    0.00361   0.00821   0.02208   0.02674   0.03316

 Mulliken charges:
               1
     1  N   -0.480707
     2  C    0.226852
     3  C    0.100125
     4  C   -0.142189
     5  C   -0.132418
     6  C   -0.118719
     7  C   -0.187582
     8  C    0.082912
     9  C    0.065635
    10  C   -0.205418
    11  C    0.092779
    12  C    0.266327
    13  C   -0.173572
    14  C   -0.105296
    15  C   -0.170897
    16  C    0.255013
    17  C    0.100199
    18  C   -0.178117
    19  C   -0.203521
    20  C    0.146705
    21  C   -0.193362
    22  C   -0.133061
    23  C   -0.138362
    24  C   -0.185954
    25  C    0.136410
    26  C   -0.245819
    27  N   -0.569829
    28  C   -0.213259
    29  C    0.273562
    30  N   -0.749040
    31  C    0.317396
    32  C   -0.175979
    33  C   -0.140863
    34  C   -0.144537
    35  C   -0.196295
    36  C    0.058643
    37  C    0.065799
    38  C   -0.200768
    39  C   -0.196897
    40  C    0.091795
    41  C    0.094034
    42  C   -0.181140
    43  C   -0.181998
    44  C    0.094793
    45  C    0.089242
    46  C   -0.173848
    47  C   -0.133710
    48  C   -0.127015
    49  C   -0.133824
    50  C   -0.174056
    51  C   -0.181468
    52  C   -0.178294
    53  C   -0.239164
    54  C    0.323243
    55  C   -0.184672
    56  H    0.163141
    57  H    0.146967
    58  H    0.146805
    59  H    0.157143
    60  H    0.167429
    61  H    0.148157
    62  H    0.146843
    63  H    0.145341
    64  H    0.130903
    65  H    0.132068
    66  H    0.131458
    67  H    0.132360
    68  H    0.131537
    69  H    0.132035
    70  H    0.154003
    71  H    0.155122
    72  H    0.137140
    73  H    0.126809
    74  H    0.124422
    75  H    0.130322
    76  H    0.131703
    77  H    0.127600
    78  H    0.135521
    79  H    0.133273
    80  H    0.131740
    81  H    0.129657
    82  H    0.128675
    83  H    0.129639
    84  H    0.132563
    85  H    0.130050
    86  H    0.123529
    87  H    0.146704
    88  H    0.169529
 Sum of Mulliken charges =  -0.00000

 Dipole moment (field-independent basis, Debye):
    X=             -4.7925    Y=             -1.6850    Z=             -1.7877  Tot=              5.3855
 Quadrupole moment (field-independent basis, Debye-Ang):
   XX=           -270.7159   YY=           -290.5741   ZZ=           -310.0950
   XY=             -8.1199   XZ=            -16.8165   YZ=              6.4528

 1\1\GINC-NODE24\FOpt\RB3LYP\6-31G(d)\C52H33N3\WYKGROUP\05-Nov-2022\0\\
 #p b3lyp/6-31g(d) opt SCF=XQC\\Gaussian input prepared by ASE\\0,1\N,0
 .6882373971,-4.2289831464,-2.7222659979\C,-0.4553133007,-4.1888032049,
 -2.5112879543\C,-1.8756696918,-4.1762668007,-2.3038812592\C,-2.6652594
 262,-4.9505621128,-3.172426448\C,-4.0507489521,-4.9489622952,-3.055545
 8417\C,-4.6564952242,-4.1678515043,-2.0695705029\C,-3.8774538925,-3.40
 09386988,-1.2053679576\C,-2.477333724,-3.387118118,-1.2933028287\C,-1.
 6943844975,-2.5537316478,-0.3406604987\C,-2.0807624415,-1.2286288823,-

 Normal termination of Gaussian 16 at Sat Nov  5 02:16:23 2022.
