 Gaussian 16, Revision B.01,
 Gaussian 16:  ES64L-G16RevB.01 20-Dec-2017

 -----------------------------
 #p b3lyp/6-31g(d) opt SCF=XQC
 -----------------------------

 ------------------------------
 Gaussian input prepared by ASE
 ------------------------------
 Symbolic Z-matrix:
 Charge =  0 Multiplicity = 1

 SCF Done:  E(RB3LYP) =  -1833.98892405     A.U. after   16 cycles
 SCF Done:  E(RB3LYP) =  -1833.99607679     A.U. after   14 cycles
 SCF Done:  E(RB3LYP) =  -1833.99999186     A.U. after   14 cycles
 SCF Done:  E(RB3LYP) =  -1834.00202191     A.U. after   13 cycles
 SCF Done:  E(RB3LYP) =  -1834.00231280     A.U. after   13 cycles
 SCF Done:  E(RB3LYP) =  -1834.00262417     A.U. after   12 cycles
 SCF Done:  E(RB3LYP) =  -1834.00268429     A.U. after   11 cycles
 SCF Done:  E(RB3LYP) =  -1834.00269725     A.U. after   11 cycles
 SCF Done:  E(RB3LYP) =  -1834.00270232     A.U. after   10 cycles
 SCF Done:  E(RB3LYP) =  -1834.00270565     A.U. after   10 cycles
 SCF Done:  E(RB3LYP) =  -1834.00270733     A.U. after    8 cycles
 SCF Done:  E(RB3LYP) =  -1834.00270856     A.U. after    8 cycles
 SCF Done:  E(RB3LYP) =  -1834.00270901     A.U. after    7 cycles
 SCF Done:  E(RB3LYP) =  -1834.00270917     A.U. after    7 cycles
 SCF Done:  E(RB3LYP) =  -1834.00270921     A.U. after    7 cycles
 SCF Done:  E(RB3LYP) =  -1834.00270919     A.U. after    7 cycles
 Optimization completed.
    -- Stationary point found.

                         Standard orientation:
 ---------------------------------------------------------------------
 Center     Atomic      Atomic             Coordinates (Angstroms)
 Number     Number       Type             X           Y           Z
 ---------------------------------------------------------------------
      1          6           0       -5.181388    1.183247   -3.929729
      2          6           0       -3.866175    1.094212   -3.420270
      3          6           0       -3.619282    0.531657   -2.186878
      4          6           0       -4.676038    0.018278   -1.381866
      5          6           0       -4.496042   -0.610295   -0.095418
      6          6           0       -3.186844   -0.749299    0.603550
      7          7           0       -2.224847    0.194944    0.372795
      8          6           0       -1.090245    0.106786    1.030641
      9          7           0       -0.130855    1.115248    0.768690
     10          6           0       -0.354774    2.482156    1.035317
     11          6           0       -1.533639    3.128432    1.406438
     12          6           0       -1.466222    4.498956    1.652020
     13          6           0       -0.257304    5.203992    1.532458
     14          6           0        0.913140    4.548264    1.161712
     15          6           0        0.871699    3.171643    0.909525
     16          6           0        1.879770    2.206479    0.514403
     17          6           0        3.246252    2.397443    0.221723
     18          6           0        3.984153    1.284320   -0.183410
     19          6           0        5.322858    0.903553   -0.647537
     20          6           0        6.522095    1.600164   -0.801400
     21          6           0        7.646346    0.931698   -1.290955
     22          6           0        7.584987   -0.426791   -1.627238
     23          6           0        6.401682   -1.156848   -1.483715
     24          6           0        5.283004   -0.489248   -0.998175
     25          7           0        3.979796   -0.955127   -0.748572
     26          6           0        3.099485   -2.032931   -0.899552
     27          6           0        3.335437   -3.317938   -1.378177
     28          6           0        2.253508   -4.195811   -1.454504
     29          6           0        0.968962   -3.793253   -1.066480
     30          6           0        0.733025   -2.507064   -0.580384
     31          6           0        1.792616   -1.600082   -0.474547
     32          6           0        1.911827   -0.196543   -0.051562
     33          6           0        1.210521    0.936280    0.416393
     34          6           0        3.252801    0.099399   -0.271482
     35          6           0       -0.848214   -0.897775    2.016549
     36          6           0        0.293807   -0.982736    2.852142
     37          6           0        0.397109   -2.004176    3.770256
     38          6           0       -0.628374   -2.975510    3.886078
     39          6           0       -1.756206   -2.904875    3.100745
     40          6           0       -1.902407   -1.852760    2.158349
     41          7           0       -3.048931   -1.773160    1.433775
     42          6           0       -5.600340   -1.131080    0.566341
     43          6           0       -6.901346   -1.041332    0.035756
     44          6           0       -7.102888   -0.433699   -1.180659
     45          6           0       -6.010785    0.095126   -1.915747
     46          6           0       -6.228125    0.690762   -3.187864
     47          1           0       -5.359676    1.633862   -4.902365
     48          1           0       -3.035272    1.476268   -4.007466
     49          1           0       -2.607255    0.494160   -1.810172
     50          1           0       -2.471451    2.590092    1.476492
     51          1           0       -2.371042    5.029813    1.934431
     52          1           0       -0.237833    6.272627    1.726879
     53          1           0        1.846806    5.097121    1.070452
     54          1           0        3.681208    3.389909    0.298900
     55          1           0        6.579612    2.654276   -0.543520
     56          1           0        8.580799    1.472001   -1.412424
     57          1           0        8.471870   -0.926550   -2.006559
     58          1           0        6.362297   -2.209497   -1.744528
     59          1           0        4.327751   -3.626196   -1.691159
     60          1           0        2.412165   -5.203304   -1.828597
     61          1           0        0.140524   -4.490957   -1.146908
     62          1           0       -0.272545   -2.216376   -0.300902
     63          1           0        1.079030   -0.240577    2.766520
     64          1           0        1.270860   -2.067443    4.412101
     65          1           0       -0.522838   -3.777765    4.611336
     66          1           0       -2.562494   -3.626499    3.182284
     67          1           0       -5.442393   -1.613521    1.524135
     68          1           0       -7.738218   -1.449159    0.595774
     69          1           0       -8.102173   -0.353693   -1.602450
     70          1           0       -7.246561    0.741278   -3.566160
 ---------------------------------------------------------------------

 The electronic state is 1-A.
 Alpha  occ. eigenvalues --  -14.39155 -14.38993 -14.34338 -14.33540 -10.28952
 Alpha  occ. eigenvalues --  -10.26865 -10.24383 -10.24266 -10.23733 -10.23711
 Alpha  occ. eigenvalues --  -10.22599 -10.21927 -10.21136 -10.21132 -10.20994
 Alpha  occ. eigenvalues --  -10.20748 -10.20651 -10.20359 -10.20273 -10.20268
 Alpha  occ. eigenvalues --  -10.20248 -10.19987 -10.19923 -10.19711 -10.19678
 Alpha  occ. eigenvalues --  -10.19606 -10.19529 -10.19468 -10.19441 -10.19364
 Alpha  occ. eigenvalues --  -10.19270 -10.19267 -10.19136 -10.19052 -10.18867
 Alpha  occ. eigenvalues --  -10.18845 -10.18822 -10.18771 -10.18720 -10.18667
 Alpha  occ. eigenvalues --  -10.18589 -10.18573 -10.18498 -10.18322 -10.18265
 Alpha  occ. eigenvalues --  -10.17742  -1.01633  -1.01280  -0.97859  -0.90096
 Alpha  occ. eigenvalues --   -0.87584  -0.87353  -0.86250  -0.84874  -0.84326
 Alpha  occ. eigenvalues --   -0.84075  -0.81686  -0.80138  -0.79624  -0.78139
 Alpha  occ. eigenvalues --   -0.77196  -0.75897  -0.75418  -0.74904  -0.74197
 Alpha  occ. eigenvalues --   -0.73563  -0.72762  -0.71999  -0.71658  -0.71130
 Alpha  occ. eigenvalues --   -0.67820  -0.65797  -0.65417  -0.64222  -0.62741
 Alpha  occ. eigenvalues --   -0.62015  -0.61686  -0.61057  -0.60265  -0.59296
 Alpha  occ. eigenvalues --   -0.58713  -0.57828  -0.57349  -0.56478  -0.55511
 Alpha  occ. eigenvalues --   -0.54249  -0.53535  -0.53066  -0.52421  -0.51330
 Alpha  occ. eigenvalues --   -0.50522  -0.50233  -0.48665  -0.48532  -0.48152
 Alpha  occ. eigenvalues --   -0.47945  -0.46932  -0.46802  -0.46229  -0.45713
 Alpha  occ. eigenvalues --   -0.44864  -0.44703  -0.44500  -0.44286  -0.43889
 Alpha  occ. eigenvalues --   -0.43683  -0.43448  -0.43174  -0.42983  -0.42406
 Alpha  occ. eigenvalues --   -0.42117  -0.41952  -0.41441  -0.41260  -0.40908
 Alpha  occ. eigenvalues --   -0.39563  -0.39090  -0.38807  -0.38465  -0.38018
 Alpha  occ. eigenvalues --   -0.37832  -0.37150  -0.36740  -0.36682  -0.36508
 Alpha  occ. eigenvalues --   -0.36157  -0.35229  -0.35137  -0.34646  -0.34284
 Alpha  occ. eigenvalues --   -0.33921  -0.33917  -0.33590  -0.33516  -0.33280
 Alpha  occ. eigenvalues --   -0.32140  -0.31791  -0.30067  -0.29292  -0.28840
 Alpha  occ. eigenvalues --   -0.28069  -0.26891  -0.25843  -0.25455  -0.24656
 Alpha  occ. eigenvalues --   -0.24533  -0.23878  -0.23694  -0.21566  -0.20732
 Alpha  occ. eigenvalues --   -0.19905  -0.19672
 Alpha virt. eigenvalues --   -0.07580  -0.05309  -0.04449  -0.01844  -0.01719
 Alpha virt. eigenvalues --   -0.00955  -0.00645  -0.00339   0.00632   0.02053
 Alpha virt. eigenvalues --    0.03478   0.03790   0.05683   0.06122   0.07544

 Mulliken charges:
               1
     1  C   -0.129780
     2  C   -0.140208
     3  C   -0.178756
     4  C    0.085100
     5  C    0.040285
     6  C    0.382749
     7  N   -0.508926
     8  C    0.367965
     9  N   -0.724176
    10  C    0.318157
    11  C   -0.166286
    12  C   -0.144901
    13  C   -0.140468
    14  C   -0.200277
    15  C    0.052792
    16  C    0.093446
    17  C   -0.325050
    18  C    0.178955
    19  C    0.004382
    20  C   -0.203622
    21  C   -0.141035
    22  C   -0.142912
    23  C   -0.167950
    24  C    0.352151
    25  N   -0.777840
    26  C    0.341088
    27  C   -0.169800
    28  C   -0.141213
    29  C   -0.148610
    30  C   -0.193876
    31  C    0.012818
    32  C    0.193703
    33  C    0.120874
    34  C    0.155831
    35  C    0.140257
    36  C   -0.172884
    37  C   -0.134161
    38  C   -0.126247
    39  C   -0.152126
    40  C    0.256380
    41  N   -0.540392
    42  C   -0.167982
    43  C   -0.140530
    44  C   -0.179363
    45  C    0.122991
    46  C   -0.196185
    47  H    0.128810
    48  H    0.131500
    49  H    0.165534
    50  H    0.152585
    51  H    0.129841
    52  H    0.125492
    53  H    0.128479
    54  H    0.139172
    55  H    0.133530
    56  H    0.128626
    57  H    0.130933
    58  H    0.141353
    59  H    0.140654
    60  H    0.130937
    61  H    0.131949
    62  H    0.143946
    63  H    0.167553
    64  H    0.144867
    65  H    0.144316
    66  H    0.150824
    67  H    0.153902
    68  H    0.131826
    69  H    0.131279
    70  H    0.127726
 Sum of Mulliken charges =  -0.00000

 Dipole moment (field-independent basis, Debye):
    X=              1.2810    Y=             -1.1566    Z=              1.3251  Tot=              2.1759
 Quadrupole moment (field-independent basis, Debye-Ang):
   XX=           -233.2912   YY=           -242.0290   ZZ=           -248.7200
   XY=             -0.8018   XZ=             -1.9096   YZ=             -3.8723

 1\1\GINC-NODE15\FOpt\RB3LYP\6-31G(d)\C42H24N4\WYKGROUP\05-Nov-2022\0\\
 #p b3lyp/6-31g(d) opt SCF=XQC\\Gaussian input prepared by ASE\\0,1\C,-
 4.9741539399,3.4141099069,2.5973973546\C,-3.6814536466,2.9215157586,2.
 3083662612\C,-3.4896841503,1.9511740013,1.3490213888\C,-4.5826959407,1
 .4107980379,0.6130491947\C,-4.4605059891,0.4158813776,-0.4250554722\C,
 -3.1819232632,-0.2368939613,-0.8262900554\N,-2.2028943341,-0.380722333
 9,0.1176881021\C,-1.096637327,-1.0064637572,-0.2177191978\N,-0.1183717
 144,-1.1431735887,0.7973430291\C,-0.3405151365,-1.8583434571,1.9926884

 Normal termination of Gaussian 16 at Sat Nov  5 02:18:20 2022.
