 Gaussian 16, Revision B.01,
 Gaussian 16:  ES64L-G16RevB.01 20-Dec-2017

 -------------------------------------------------------------------
 #p b3lyp/6-31g(d) 6D 10F nosymm GFInput td=(50-50,nstate=2) SCF=XQC
 -------------------------------------------------------------------

 ------------------------------
 Gaussian input prepared by ASE
 ------------------------------
 Symbolic Z-matrix:
 Charge =  0 Multiplicity = 1

                          Input orientation:
 ---------------------------------------------------------------------
 Center     Atomic      Atomic             Coordinates (Angstroms)
 Number     Number       Type             X           Y           Z
 ---------------------------------------------------------------------
      1          6           0       -4.974154    3.414110    2.597397
      2          6           0       -3.681454    2.921516    2.308366
      3          6           0       -3.489684    1.951174    1.349021
      4          6           0       -4.582696    1.410798    0.613049
      5          6           0       -4.460506    0.415881   -0.425055
      6          6           0       -3.181923   -0.236894   -0.826290
      7          7           0       -2.202894   -0.380722    0.117688
      8          6           0       -1.096637   -1.006464   -0.217719
      9          7           0       -0.118372   -1.143174    0.797343
     10          6           0       -0.340515   -1.858343    1.992688
     11          6           0       -1.527520   -2.388923    2.497298
     12          6           0       -1.457694   -3.095745    3.696763
     13          6           0       -0.238609   -3.269644    4.372371
     14          6           0        0.939881   -2.735853    3.858954
     15          6           0        0.896221   -2.021632    2.655466
     16          6           0        1.910665   -1.352269    1.863806
     17          6           0        3.289527   -1.191458    2.113377
     18          6           0        4.033100   -0.452117    1.192429
     19          6           0        5.385966    0.068234    0.965453
     20          6           0        6.596686   -0.070253    1.645222
     21          6           0        7.733709    0.580945    1.161929
     22          6           0        7.673709    1.368433    0.004946
     23          6           0        6.479021    1.527633   -0.702987
     24          6           0        5.347722    0.880305   -0.219245
     25          7           0        4.031336    0.852806   -0.713279
     26          6           0        3.148136    1.397917   -1.652543
     27          6           0        3.391607    2.283095   -2.698096
     28          6           0        2.305754    2.696045   -3.471046
     29          6           0        1.010272    2.237623   -3.198556
     30          6           0        0.766526    1.345030   -2.154475
     31          6           0        1.829131    0.895117   -1.363906
     32          6           0        1.943838    0.008741   -0.195905
     33          6           0        1.234468   -0.797591    0.721005
     34          6           0        3.295222    0.065895    0.127595
     35          6           0       -0.903722   -1.591658   -1.506155
     36          6           0        0.202794   -2.385417   -1.900125
     37          6           0        0.259686   -2.896384   -3.177865
     38          6           0       -0.778377   -2.633214   -4.106136
     39          6           0       -1.872878   -1.882115   -3.743286
     40          6           0       -1.971372   -1.357504   -2.427416
     41          7           0       -3.086922   -0.665823   -2.076722
     42          6           0       -5.595299    0.014034   -1.117428
     43          6           0       -6.872943    0.525694   -0.820749
     44          6           0       -7.019680    1.462944    0.174003
     45          6           0       -5.894036    1.931186    0.899522
     46          6           0       -6.054415    2.925361    1.902614
     47          1           0       -5.108923    4.176319    3.360114
     48          1           0       -2.824089    3.310966    2.850969
     49          1           0       -2.494082    1.575758    1.161003
     50          1           0       -2.472225   -2.235714    1.989095
     51          1           0       -2.368348   -3.512745    4.117575
     52          1           0       -0.217349   -3.822373    5.307357
     53          1           0        1.881396   -2.872674    4.384441
     54          1           0        3.729963   -1.622355    3.008071
     55          1           0        6.653265   -0.678777    2.543809
     56          1           0        8.677152    0.475380    1.689807
     57          1           0        8.570637    1.866157   -0.352814
     58          1           0        6.440691    2.137771   -1.599596
     59          1           0        4.392927    2.648693   -2.901473
     60          1           0        2.470280    3.389879   -4.290610
     61          1           0        0.179486    2.583260   -3.806750
     62          1           0       -0.246846    1.017383   -1.955713
     63          1           0        0.997513   -2.589247   -1.191899
     64          1           0        1.106187   -3.506664   -3.478537
     65          1           0       -0.709482   -3.039281   -5.111677
     66          1           0       -2.688292   -1.680829   -4.430362
     67          1           0       -5.480540   -0.722539   -1.904421
     68          1           0       -7.735408    0.170851   -1.378010
     69          1           0       -8.000345    1.865478    0.417190
     70          1           0       -7.056239    3.297986    2.103540
 ---------------------------------------------------------------------

 SCF Done:  E(RB3LYP) =  -1834.00270428     A.U. after   16 cycles

 Excitation energies and oscillator strengths:

 Excited state symmetry could not be determined.
 Excited State   1:      Triplet-?Sym    2.3208 eV  534.23 nm  f=0.0000  <S**2>=2.000
     145 ->153         0.19383
     150 ->153         0.47180
     150 ->154         0.34466
     150 ->156        -0.14710
     151 ->153        -0.23154
 This state for optimization and/or second-order correction.
 Total Energy, E(TD-HF/TD-DFT) =  -1833.91741630
 Copying the excited state density for this state as the 1-particle RhoCI density.

 Excited state symmetry could not be determined.
 Excited State   2:      Triplet-?Sym    2.5623 eV  483.88 nm  f=0.0000  <S**2>=2.000
     150 ->153         0.14355
     150 ->154         0.20274
     150 ->156        -0.12124
     151 ->153         0.56407
     151 ->154        -0.13825
     151 ->155         0.18019

 Excited state symmetry could not be determined.
 Excited State   3:      Singlet-?Sym    2.7636 eV  448.63 nm  f=0.0228  <S**2>=0.000
     151 ->153         0.56136
     152 ->153         0.41659

 Excited state symmetry could not be determined.
 Excited State   4:      Singlet-?Sym    2.7861 eV  445.01 nm  f=0.0553  <S**2>=0.000
     151 ->153        -0.41231
     152 ->153         0.56552

 Alpha  occ. eigenvalues --  -14.39155 -14.38993 -14.34338 -14.33539 -10.28951
 Alpha  occ. eigenvalues --  -10.26865 -10.24383 -10.24266 -10.23733 -10.23711
 Alpha  occ. eigenvalues --  -10.22599 -10.21927 -10.21136 -10.21132 -10.20994
 Alpha  occ. eigenvalues --  -10.20748 -10.20651 -10.20359 -10.20273 -10.20268
 Alpha  occ. eigenvalues --  -10.20248 -10.19987 -10.19923 -10.19711 -10.19678
 Alpha  occ. eigenvalues --  -10.19606 -10.19529 -10.19468 -10.19441 -10.19364
 Alpha  occ. eigenvalues --  -10.19270 -10.19267 -10.19136 -10.19052 -10.18867
 Alpha  occ. eigenvalues --  -10.18845 -10.18822 -10.18771 -10.18720 -10.18667
 Alpha  occ. eigenvalues --  -10.18589 -10.18573 -10.18498 -10.18322 -10.18265
 Alpha  occ. eigenvalues --  -10.17742  -1.01633  -1.01280  -0.97858  -0.90096
 Alpha  occ. eigenvalues --   -0.87584  -0.87353  -0.86250  -0.84874  -0.84326
 Alpha  occ. eigenvalues --   -0.84075  -0.81686  -0.80138  -0.79624  -0.78139
 Alpha  occ. eigenvalues --   -0.77196  -0.75897  -0.75418  -0.74904  -0.74197
 Alpha  occ. eigenvalues --   -0.73563  -0.72762  -0.71999  -0.71658  -0.71130
 Alpha  occ. eigenvalues --   -0.67820  -0.65797  -0.65417  -0.64222  -0.62741
 Alpha  occ. eigenvalues --   -0.62015  -0.61686  -0.61057  -0.60265  -0.59296
 Alpha  occ. eigenvalues --   -0.58713  -0.57828  -0.57349  -0.56478  -0.55511
 Alpha  occ. eigenvalues --   -0.54248  -0.53535  -0.53066  -0.52421  -0.51330
 Alpha  occ. eigenvalues --   -0.50522  -0.50233  -0.48665  -0.48532  -0.48152
 Alpha  occ. eigenvalues --   -0.47945  -0.46932  -0.46802  -0.46229  -0.45713
 Alpha  occ. eigenvalues --   -0.44864  -0.44703  -0.44500  -0.44286  -0.43889
 Alpha  occ. eigenvalues --   -0.43683  -0.43448  -0.43175  -0.42983  -0.42406
 Alpha  occ. eigenvalues --   -0.42117  -0.41952  -0.41441  -0.41260  -0.40908
 Alpha  occ. eigenvalues --   -0.39563  -0.39090  -0.38807  -0.38465  -0.38018
 Alpha  occ. eigenvalues --   -0.37832  -0.37150  -0.36740  -0.36682  -0.36508
 Alpha  occ. eigenvalues --   -0.36157  -0.35229  -0.35137  -0.34646  -0.34284
 Alpha  occ. eigenvalues --   -0.33921  -0.33917  -0.33590  -0.33515  -0.33280
 Alpha  occ. eigenvalues --   -0.32140  -0.31791  -0.30066  -0.29292  -0.28840
 Alpha  occ. eigenvalues --   -0.28069  -0.26891  -0.25843  -0.25455  -0.24656
 Alpha  occ. eigenvalues --   -0.24533  -0.23878  -0.23694  -0.21566  -0.20732
 Alpha  occ. eigenvalues --   -0.19905  -0.19672
 Alpha virt. eigenvalues --   -0.07580  -0.05309  -0.04449  -0.01844  -0.01719
 Alpha virt. eigenvalues --   -0.00955  -0.00645  -0.00339   0.00632   0.02053
 Alpha virt. eigenvalues --    0.03478   0.03790   0.05683   0.06122   0.07544

 Mulliken charges:
               1
     1  C   -0.129780
     2  C   -0.140209
     3  C   -0.178743
     4  C    0.085083
     5  C    0.040309
     6  C    0.382725
     7  N   -0.508942
     8  C    0.367997
     9  N   -0.724201
    10  C    0.318164
    11  C   -0.166293
    12  C   -0.144902
    13  C   -0.140467
    14  C   -0.200278
    15  C    0.052789
    16  C    0.093447
    17  C   -0.325050
    18  C    0.178952
    19  C    0.004375
    20  C   -0.203616
    21  C   -0.141032
    22  C   -0.142917
    23  C   -0.167952
    24  C    0.352148
    25  N   -0.777835
    26  C    0.341098
    27  C   -0.169795
    28  C   -0.141215
    29  C   -0.148616
    30  C   -0.193879
    31  C    0.012836
    32  C    0.193686
    33  C    0.120880
    34  C    0.155817
    35  C    0.140296
    36  C   -0.172895
    37  C   -0.134160
    38  C   -0.126246
    39  C   -0.152133
    40  C    0.256384
    41  N   -0.540393
    42  C   -0.167983
    43  C   -0.140526
    44  C   -0.179364
    45  C    0.122975
    46  C   -0.196178
    47  H    0.128810
    48  H    0.131500
    49  H    0.165528
    50  H    0.152592
    51  H    0.129841
    52  H    0.125492
    53  H    0.128480
    54  H    0.139171
    55  H    0.133530
    56  H    0.128626
    57  H    0.130933
    58  H    0.141352
    59  H    0.140655
    60  H    0.130937
    61  H    0.131955
    62  H    0.143943
    63  H    0.167556
    64  H    0.144866
    65  H    0.144314
    66  H    0.150824
    67  H    0.153901
    68  H    0.131826
    69  H    0.131279
    70  H    0.127726
 Sum of Mulliken charges =  -0.00000

 Dipole moment (field-independent basis, Debye):
    X=              1.2159    Y=             -0.8867    Z=             -1.5714  Tot=              2.1758
 Quadrupole moment (field-independent basis, Debye-Ang):
   XX=           -233.0932   YY=           -250.4837   ZZ=           -240.3521
   XY=              1.4057   XZ=             -0.2606   YZ=              0.7925

 Normal termination of Gaussian 16 at Sat Nov  5 11:31:35 2022.
