 Gaussian 16, Revision B.01,
 Gaussian 16:  ES64L-G16RevB.01 20-Dec-2017

 -----------------------------
 #p b3lyp/6-31g(d) opt SCF=XQC
 -----------------------------

 ------------------------------
 Gaussian input prepared by ASE
 ------------------------------
 Symbolic Z-matrix:
 Charge =  0 Multiplicity = 1

 SCF Done:  E(RB3LYP) =  -1940.73122953     A.U. after   15 cycles
 SCF Done:  E(RB3LYP) =  -1940.74001600     A.U. after   12 cycles
 SCF Done:  E(RB3LYP) =  -1940.74022752     A.U. after   11 cycles
 SCF Done:  E(RB3LYP) =  -1940.74026693     A.U. after   10 cycles
 SCF Done:  E(RB3LYP) =  -1940.74027532     A.U. after   10 cycles
 SCF Done:  E(RB3LYP) =  -1940.74027797     A.U. after   10 cycles
 SCF Done:  E(RB3LYP) =  -1940.74027832     A.U. after    7 cycles
 SCF Done:  E(RB3LYP) =  -1940.74027839     A.U. after    6 cycles
 SCF Done:  E(RB3LYP) =  -1940.74027841     A.U. after    6 cycles
 SCF Done:  E(RB3LYP) =  -1940.74027842     A.U. after    6 cycles
 Optimization completed.
    -- Stationary point found.

                         Standard orientation:
 ---------------------------------------------------------------------
 Center     Atomic      Atomic             Coordinates (Angstroms)
 Number     Number       Type             X           Y           Z
 ---------------------------------------------------------------------
      1          6           0       10.102068   -0.003850   -1.237409
      2          6           0        9.542788   -1.231720   -1.596756
      3          6           0        8.269495   -1.583878   -1.149739
      4          6           0        7.554442   -0.711262   -0.319576
      5          7           0        6.260394   -1.070209    0.146069
      6          6           0        5.937566   -2.232435    0.858071
      7          6           0        6.770363   -3.266777    1.293555
      8          6           0        6.187527   -4.309483    2.010822
      9          6           0        4.810979   -4.325007    2.294503
     10          6           0        3.988923   -3.285707    1.868786
     11          6           0        4.549028   -2.225281    1.147089
     12          6           0        4.009139   -1.006550    0.580013
     13          6           0        2.726316   -0.455142    0.532659
     14          6           0        2.510091    0.767177   -0.115821
     15          6           0        1.153657    1.371606   -0.172848
     16          6           0        0.017892    0.564422   -0.356771
     17          6           0       -1.286840    1.085630   -0.398381
     18          6           0       -2.435238    0.163857   -0.618117
     19          6           0       -2.409229   -0.771772   -1.671412
     20          6           0       -3.467642   -1.637395   -1.867477
     21          6           0       -4.607297   -1.631377   -1.033116
     22          6           0       -5.728837   -2.549450   -1.250673
     23          6           0       -5.730131   -3.475990   -2.317770
     24          6           0       -6.784452   -4.346006   -2.529612
     25          6           0       -7.889178   -4.317129   -1.668729
     26          6           0       -7.913341   -3.418606   -0.617057
     27          6           0       -6.850138   -2.519289   -0.377371
     28          6           0       -6.883735   -1.568415    0.739776
     29          6           0       -7.978736   -1.514403    1.631452
     30          6           0       -8.021467   -0.619823    2.685713
     31          6           0       -6.954011    0.264555    2.886379
     32          6           0       -5.869280    0.231989    2.028460
     33          6           0       -5.799401   -0.671966    0.944609
     34          6           0       -4.643106   -0.701975    0.040715
     35          6           0       -3.549225    0.172350    0.214741
     36          6           0       -1.440001    2.471581   -0.265202
     37          6           0       -0.307919    3.296585   -0.100026
     38          6           0        0.976035    2.758511   -0.044732
     39          6           0       -0.748922    4.696823   -0.032974
     40          6           0       -0.022755    5.878458    0.131704
     41          6           0       -0.709172    7.094187    0.149833
     42          6           0       -2.100655    7.129877    0.004662
     43          6           0       -2.829193    5.946482   -0.160068
     44          6           0       -2.149999    4.733325   -0.178899
     45          6           0       -2.692706    3.327486   -0.332499
     46          6           0        3.610403    1.418679   -0.721035
     47          6           0        4.897751    0.893516   -0.687478
     48          6           0        5.092641   -0.320358   -0.023515
     49          6           0        8.118477    0.516490    0.049749
     50          6           0        9.384137    0.869390   -0.417895
     51          1           0       11.090887    0.270703   -1.593687
     52          1           0       10.092307   -1.914350   -2.239153
     53          1           0        7.818946   -2.525636   -1.447230
     54          1           0        7.835415   -3.257470    1.086854
     55          1           0        6.814528   -5.125712    2.359428
     56          1           0        4.387783   -5.153922    2.854613
     57          1           0        2.926334   -3.293885    2.097290
     58          1           0        1.898029   -0.963398    1.018506
     59          1           0        0.150489   -0.506907   -0.477151
     60          1           0       -1.556541   -0.798350   -2.343932
     61          1           0       -3.405481   -2.333783   -2.695226
     62          1           0       -4.888749   -3.516699   -2.999201
     63          1           0       -6.751860   -5.045263   -3.360581
     64          1           0       -8.725105   -4.993934   -1.822670
     65          1           0       -8.780725   -3.416134    0.032114
     66          1           0       -8.817124   -2.187743    1.499302
     67          1           0       -8.879947   -0.607136    3.351588
     68          1           0       -6.972587    0.972887    3.710042
     69          1           0       -5.056878    0.926074    2.207418
     70          1           0       -3.547024    0.866896    1.044966
     71          1           0        1.837187    3.401423    0.115273
     72          1           0        1.058242    5.857491    0.244999
     73          1           0       -0.157575    8.021889    0.277742
     74          1           0       -2.619737    8.084537    0.019970
     75          1           0       -3.910511    5.980561   -0.272206
     76          1           0       -3.230676    3.186927   -1.280451
     77          1           0       -3.414288    3.091008    0.459687
     78          1           0        3.439326    2.348495   -1.255715
     79          1           0        5.718516    1.407322   -1.176991
     80          1           0        7.566698    1.179841    0.708482
     81          1           0        9.814658    1.824152   -0.128567
 ---------------------------------------------------------------------

 The electronic state is 1-A.
 Alpha  occ. eigenvalues --  -14.38263 -10.24070 -10.22406 -10.22380 -10.20239
 Alpha  occ. eigenvalues --  -10.20233 -10.20144 -10.20140 -10.20130 -10.20107
 Alpha  occ. eigenvalues --  -10.20087 -10.20062 -10.20040 -10.20015 -10.19992
 Alpha  occ. eigenvalues --  -10.19783 -10.19648 -10.19462 -10.19317 -10.19106
 Alpha  occ. eigenvalues --  -10.19062 -10.18995 -10.18981 -10.18957 -10.18953
 Alpha  occ. eigenvalues --  -10.18939 -10.18930 -10.18926 -10.18900 -10.18892
 Alpha  occ. eigenvalues --  -10.18888 -10.18883 -10.18873 -10.18834 -10.18821
 Alpha  occ. eigenvalues --  -10.18803 -10.18796 -10.18765 -10.18754 -10.18708
 Alpha  occ. eigenvalues --  -10.18696 -10.18693 -10.18677 -10.18650 -10.18634
 Alpha  occ. eigenvalues --  -10.18593 -10.18554 -10.18411 -10.18342 -10.18073
 Alpha  occ. eigenvalues --   -0.98979  -0.88660  -0.88195  -0.87139  -0.85499
 Alpha  occ. eigenvalues --   -0.84952  -0.84673  -0.84044  -0.83440  -0.80072
 Alpha  occ. eigenvalues --   -0.79627  -0.78246  -0.77615  -0.77052  -0.75968
 Alpha  occ. eigenvalues --   -0.75779  -0.75483  -0.75227  -0.73899  -0.72660
 Alpha  occ. eigenvalues --   -0.72009  -0.71802  -0.71552  -0.71054  -0.70301
 Alpha  occ. eigenvalues --   -0.68139  -0.64635  -0.64014  -0.63563  -0.62391
 Alpha  occ. eigenvalues --   -0.62300  -0.61829  -0.61416  -0.60436  -0.58865
 Alpha  occ. eigenvalues --   -0.58431  -0.58041  -0.57927  -0.57481  -0.56731
 Alpha  occ. eigenvalues --   -0.56199  -0.54616  -0.53860  -0.53562  -0.51534
 Alpha  occ. eigenvalues --   -0.51404  -0.50428  -0.49467  -0.48930  -0.48619
 Alpha  occ. eigenvalues --   -0.48326  -0.47926  -0.47099  -0.46695  -0.46494
 Alpha  occ. eigenvalues --   -0.46147  -0.46078  -0.44795  -0.44746  -0.44325
 Alpha  occ. eigenvalues --   -0.44193  -0.43339  -0.43301  -0.42959  -0.42935
 Alpha  occ. eigenvalues --   -0.42635  -0.42239  -0.42077  -0.42034  -0.41723
 Alpha  occ. eigenvalues --   -0.41579  -0.41469  -0.41312  -0.41277  -0.41126
 Alpha  occ. eigenvalues --   -0.40391  -0.39781  -0.38107  -0.37837  -0.37562
 Alpha  occ. eigenvalues --   -0.36994  -0.36806  -0.36471  -0.36196  -0.36026
 Alpha  occ. eigenvalues --   -0.35869  -0.35817  -0.35799  -0.35773  -0.35406
 Alpha  occ. eigenvalues --   -0.34802  -0.34606  -0.34384  -0.33821  -0.33414
 Alpha  occ. eigenvalues --   -0.32964  -0.32599  -0.32306  -0.31975  -0.31592
 Alpha  occ. eigenvalues --   -0.29325  -0.28219  -0.28100  -0.27818  -0.27306
 Alpha  occ. eigenvalues --   -0.26249  -0.26115  -0.25588  -0.24279  -0.23735
 Alpha  occ. eigenvalues --   -0.23117  -0.21569  -0.21510  -0.20986  -0.20814
 Alpha  occ. eigenvalues --   -0.19196
 Alpha virt. eigenvalues --   -0.04108  -0.03493  -0.02805  -0.02720  -0.02489
 Alpha virt. eigenvalues --   -0.01856  -0.01324  -0.01178   0.00405   0.01672
 Alpha virt. eigenvalues --    0.02769   0.03182   0.03920   0.04284   0.05622

 Mulliken charges:
               1
     1  C   -0.121167
     2  C   -0.142731
     3  C   -0.149025
     4  C    0.263305
     5  N   -0.736333
     6  C    0.311333
     7  C   -0.176573
     8  C   -0.141582
     9  C   -0.145256
    10  C   -0.196687
    11  C    0.058218
    12  C    0.064216
    13  C   -0.257324
    14  C    0.079714
    15  C    0.097018
    16  C   -0.242918
    17  C    0.016864
    18  C    0.093579
    19  C   -0.177505
    20  C   -0.209107
    21  C    0.073401
    22  C    0.069673
    23  C   -0.201733
    24  C   -0.132089
    25  C   -0.131128
    26  C   -0.203585
    27  C    0.071624
    28  C    0.069019
    29  C   -0.202935
    30  C   -0.131107
    31  C   -0.132375
    32  C   -0.201364
    33  C    0.068527
    34  C    0.075445
    35  C   -0.268120
    36  C    0.047615
    37  C    0.088699
    38  C   -0.253727
    39  C    0.085683
    40  C   -0.192046
    41  C   -0.138258
    42  C   -0.129466
    43  C   -0.204957
    44  C    0.108263
    45  C   -0.418737
    46  C   -0.192286
    47  C   -0.179694
    48  C    0.319202
    49  C   -0.148996
    50  C   -0.142772
    51  H    0.135663
    52  H    0.138878
    53  H    0.152739
    54  H    0.139564
    55  H    0.127017
    56  H    0.125059
    57  H    0.132285
    58  H    0.136682
    59  H    0.132465
    60  H    0.136814
    61  H    0.135997
    62  H    0.134654
    63  H    0.129887
    64  H    0.129632
    65  H    0.134257
    66  H    0.134367
    67  H    0.129842
    68  H    0.130440
    69  H    0.134672
    70  H    0.139868
    71  H    0.130621
    72  H    0.128420
    73  H    0.126831
    74  H    0.126437
    75  H    0.125764
    76  H    0.179024
    77  H    0.168779
    78  H    0.131000
    79  H    0.141135
    80  H    0.152529
    81  H    0.138861
 Sum of Mulliken charges =  -0.00000

 Dipole moment (field-independent basis, Debye):
    X=              1.5399    Y=              0.0048    Z=             -0.6432  Tot=              1.6689
 Quadrupole moment (field-independent basis, Debye-Ang):
   XX=           -229.3571   YY=           -265.3128   ZZ=           -280.3988
   XY=              6.2013   XZ=            -11.7009   YZ=              6.8910

 1\1\GINC-NODE42\FOpt\RB3LYP\6-31G(d)\C49H31N1\WYKGROUP\05-Nov-2022\0\\
 #p b3lyp/6-31g(d) opt SCF=XQC\\Gaussian input prepared by ASE\\0,1\C,1
 0.1137729343,0.4723832052,0.912274481\C,9.4978357795,1.608974858,1.439
 8842176\C,8.1932100077,1.9380494914,1.072769293\C,7.5025538159,1.13655
 6107,0.1548732127\N,6.176243114,1.4734732644,-0.229335947\C,5.76605244
 85,2.6951984169,-0.7780296632\C,6.5250299074,3.8244860305,-1.096970095
 6\C,5.8619439776,4.9129570458,-1.6599567875\C,4.4784209822,4.881812557
 6,-1.9059090653\C,3.730132358,3.7494992559,-1.5975497341\C,4.371673481

 Normal termination of Gaussian 16 at Sat Nov  5 01:48:07 2022.
