 Gaussian 16, Revision B.01,
 Gaussian 16:  ES64L-G16RevB.01 20-Dec-2017

 -------------------------------------------------------------------
 #p b3lyp/6-31g(d) 6D 10F nosymm GFInput td=(50-50,nstate=2) SCF=XQC
 -------------------------------------------------------------------

 ------------------------------
 Gaussian input prepared by ASE
 ------------------------------
 Symbolic Z-matrix:
 Charge =  0 Multiplicity = 1

                          Input orientation:
 ---------------------------------------------------------------------
 Center     Atomic      Atomic             Coordinates (Angstroms)
 Number     Number       Type             X           Y           Z
 ---------------------------------------------------------------------
      1          6           0       10.113773    0.472383    0.912274
      2          6           0        9.497836    1.608975    1.439884
      3          6           0        8.193210    1.938049    1.072769
      4          6           0        7.502554    1.136556    0.154873
      5          7           0        6.176243    1.473473   -0.229336
      6          6           0        5.766052    2.695198   -0.778030
      7          6           0        6.525030    3.824486   -1.096970
      8          6           0        5.861944    4.912957   -1.659957
      9          6           0        4.478421    4.881813   -1.905909
     10          6           0        3.730132    3.749499   -1.597550
     11          6           0        4.371673    2.641559   -1.031898
     12          6           0        3.919549    1.330566   -0.613281
     13          6           0        2.671983    0.701711   -0.606179
     14          6           0        2.545625   -0.603764   -0.115146
     15          6           0        1.227896   -1.290756   -0.103489
     16          6           0        0.054837   -0.582981    0.210076
     17          6           0       -1.216475   -1.182519    0.215895
     18          6           0       -2.407465   -0.366592    0.579998
     19          6           0       -2.400901    0.427672    1.743875
     20          6           0       -3.499679    1.196403    2.075118
     21          6           0       -4.663022    1.228013    1.274716
     22          6           0       -5.827071    2.042163    1.635535
     23          6           0       -5.846803    2.824040    2.812587
     24          6           0       -6.941246    3.595363    3.159937
     25          6           0       -8.069284    3.609799    2.329459
     26          6           0       -8.076047    2.852178    1.171915
     27          6           0       -6.971970    2.055909    0.792980
     28          6           0       -6.987268    1.254200   -0.435977
     29          6           0       -8.105160    1.248239   -1.300451
     30          6           0       -8.130755    0.493738   -2.459605
     31          6           0       -7.022042   -0.292436   -2.798038
     32          6           0       -5.914259   -0.304042   -1.969540
     33          6           0       -5.861164    0.457614   -0.780501
     34          6           0       -4.680367    0.441933    0.091517
     35          6           0       -3.545007   -0.336086   -0.219852
     36          6           0       -1.295422   -2.547034   -0.090575
     37          6           0       -0.124440   -3.275051   -0.387755
     38          6           0        1.124754   -2.658323   -0.404470
     39          6           0       -0.487729   -4.679356   -0.623540
     40          6           0        0.298302   -5.784870   -0.956247
     41          6           0       -0.318737   -7.027411   -1.113878
     42          6           0       -1.700704   -7.164579   -0.940884
     43          6           0       -2.489198   -6.057471   -0.607842
     44          6           0       -1.879199   -4.817998   -0.449671
     45          6           0       -2.495139   -3.478097   -0.103567
     46          6           0        3.699509   -1.259665    0.374515
     47          6           0        4.953506   -0.658274    0.377609
     48          6           0        5.058561    0.639526   -0.129343
     49          6           0        8.122913    0.001633   -0.382729
     50          6           0        9.420617   -0.331252    0.004926
     51          1           0       11.127274    0.214608    1.206286
     52          1           0       10.028068    2.236268    2.151212
     53          1           0        7.699944    2.805728    1.499648
     54          1           0        7.594922    3.852882   -0.919002
     55          1           0        6.430598    5.802929   -1.915822
     56          1           0        3.991664    5.748235   -2.344430
     57          1           0        2.662071    3.722900   -1.797337
     58          1           0        1.801406    1.216941   -1.002491
     59          1           0        0.130589    0.470417    0.463915
     60          1           0       -1.530207    0.419757    2.393411
     61          1           0       -3.450694    1.784584    2.983762
     62          1           0       -4.987906    2.828306    3.473046
     63          1           0       -6.921829    4.184204    4.072857
     64          1           0       -8.936734    4.210263    2.589287
     65          1           0       -8.962026    2.880118    0.548982
     66          1           0       -8.975559    1.847890   -1.062610
     67          1           0       -9.007802    0.514217   -3.100626
     68          1           0       -7.026731   -0.890348   -3.705220
     69          1           0       -5.070103   -0.919850   -2.255823
     70          1           0       -3.529946   -0.918269   -1.132270
     71          1           0        2.015274   -3.222947   -0.666566
     72          1           0        1.372271   -5.684936   -1.092020
     73          1           0        0.279940   -7.896636   -1.373270
     74          1           0       -2.165383   -8.138964   -1.066209
     75          1           0       -3.562784   -6.170261   -0.474892
     76          1           0       -3.009901   -3.491472    0.867321
     77          1           0       -3.253615   -3.186684   -0.841101
     78          1           0        3.598117   -2.258383    0.789229
     79          1           0        5.817006   -1.179916    0.777023
     80          1           0        7.588822   -0.604634   -1.107719
     81          1           0        9.894888   -1.214042   -0.415049
 ---------------------------------------------------------------------

 SCF Done:  E(RB3LYP) =  -1940.74027743     A.U. after   15 cycles

 Excitation energies and oscillator strengths:

 Excited state symmetry could not be determined.
 Excited State   1:      Triplet-?Sym    2.7895 eV  444.46 nm  f=0.0000  <S**2>=2.000
     154 ->178        -0.10190
     161 ->169         0.15112
     161 ->170         0.13217
     162 ->168         0.30120
     163 ->167        -0.14008
     163 ->168         0.21179
     164 ->167        -0.11482
     165 ->167         0.41483
 This state for optimization and/or second-order correction.
 Total Energy, E(TD-HF/TD-DFT) =  -1940.63776349
 Copying the excited state density for this state as the 1-particle RhoCI density.

 Excited state symmetry could not be determined.
 Excited State   2:      Triplet-?Sym    2.9640 eV  418.30 nm  f=0.0000  <S**2>=2.000
     162 ->168         0.15913
     163 ->167        -0.12265
     163 ->169        -0.12217
     163 ->170         0.13146
     164 ->171         0.21088
     165 ->169        -0.19478
     165 ->171         0.17314
     165 ->172        -0.10791
     166 ->169        -0.14045
     166 ->170         0.18381
     166 ->171         0.22329
     166 ->174         0.14075

 Excited state symmetry could not be determined.
 Excited State   3:      Singlet-?Sym    3.7075 eV  334.42 nm  f=0.0536  <S**2>=0.000
     166 ->167         0.67860
     166 ->169         0.10087

 Excited state symmetry could not be determined.
 Excited State   4:      Singlet-?Sym    3.8836 eV  319.25 nm  f=0.0149  <S**2>=0.000
     164 ->171         0.10236
     166 ->169        -0.30356
     166 ->170         0.52227
     166 ->171        -0.28674

 Alpha  occ. eigenvalues --  -14.38263 -10.24070 -10.22406 -10.22380 -10.20239
 Alpha  occ. eigenvalues --  -10.20233 -10.20144 -10.20140 -10.20130 -10.20107
 Alpha  occ. eigenvalues --  -10.20087 -10.20062 -10.20040 -10.20015 -10.19992
 Alpha  occ. eigenvalues --  -10.19783 -10.19647 -10.19462 -10.19317 -10.19105
 Alpha  occ. eigenvalues --  -10.19062 -10.18995 -10.18981 -10.18957 -10.18953
 Alpha  occ. eigenvalues --  -10.18938 -10.18930 -10.18925 -10.18900 -10.18892
 Alpha  occ. eigenvalues --  -10.18888 -10.18883 -10.18873 -10.18834 -10.18821
 Alpha  occ. eigenvalues --  -10.18804 -10.18796 -10.18765 -10.18754 -10.18708
 Alpha  occ. eigenvalues --  -10.18696 -10.18693 -10.18677 -10.18650 -10.18634
 Alpha  occ. eigenvalues --  -10.18593 -10.18554 -10.18411 -10.18342 -10.18073
 Alpha  occ. eigenvalues --   -0.98979  -0.88660  -0.88194  -0.87139  -0.85499
 Alpha  occ. eigenvalues --   -0.84952  -0.84673  -0.84044  -0.83440  -0.80072
 Alpha  occ. eigenvalues --   -0.79627  -0.78246  -0.77615  -0.77052  -0.75968
 Alpha  occ. eigenvalues --   -0.75779  -0.75483  -0.75227  -0.73899  -0.72660
 Alpha  occ. eigenvalues --   -0.72009  -0.71802  -0.71552  -0.71054  -0.70301
 Alpha  occ. eigenvalues --   -0.68139  -0.64635  -0.64014  -0.63563  -0.62391
 Alpha  occ. eigenvalues --   -0.62300  -0.61829  -0.61416  -0.60436  -0.58865
 Alpha  occ. eigenvalues --   -0.58431  -0.58041  -0.57927  -0.57481  -0.56731
 Alpha  occ. eigenvalues --   -0.56199  -0.54616  -0.53860  -0.53562  -0.51534
 Alpha  occ. eigenvalues --   -0.51404  -0.50428  -0.49467  -0.48930  -0.48619
 Alpha  occ. eigenvalues --   -0.48326  -0.47926  -0.47099  -0.46695  -0.46494
 Alpha  occ. eigenvalues --   -0.46147  -0.46078  -0.44795  -0.44746  -0.44325
 Alpha  occ. eigenvalues --   -0.44193  -0.43339  -0.43301  -0.42959  -0.42935
 Alpha  occ. eigenvalues --   -0.42635  -0.42239  -0.42078  -0.42034  -0.41724
 Alpha  occ. eigenvalues --   -0.41579  -0.41469  -0.41312  -0.41277  -0.41126
 Alpha  occ. eigenvalues --   -0.40391  -0.39781  -0.38107  -0.37837  -0.37562
 Alpha  occ. eigenvalues --   -0.36994  -0.36806  -0.36471  -0.36196  -0.36026
 Alpha  occ. eigenvalues --   -0.35869  -0.35817  -0.35799  -0.35773  -0.35406
 Alpha  occ. eigenvalues --   -0.34802  -0.34606  -0.34384  -0.33821  -0.33414
 Alpha  occ. eigenvalues --   -0.32964  -0.32599  -0.32306  -0.31975  -0.31592
 Alpha  occ. eigenvalues --   -0.29325  -0.28219  -0.28100  -0.27818  -0.27306
 Alpha  occ. eigenvalues --   -0.26249  -0.26115  -0.25588  -0.24279  -0.23735
 Alpha  occ. eigenvalues --   -0.23117  -0.21569  -0.21510  -0.20986  -0.20814
 Alpha  occ. eigenvalues --   -0.19196
 Alpha virt. eigenvalues --   -0.04108  -0.03493  -0.02805  -0.02720  -0.02489
 Alpha virt. eigenvalues --   -0.01856  -0.01324  -0.01178   0.00405   0.01672
 Alpha virt. eigenvalues --    0.02769   0.03182   0.03920   0.04284   0.05622

 Mulliken charges:
               1
     1  C   -0.121150
     2  C   -0.142753
     3  C   -0.149018
     4  C    0.263327
     5  N   -0.736352
     6  C    0.311328
     7  C   -0.176562
     8  C   -0.141582
     9  C   -0.145262
    10  C   -0.196683
    11  C    0.058212
    12  C    0.064210
    13  C   -0.257329
    14  C    0.079723
    15  C    0.097031
    16  C   -0.242943
    17  C    0.016911
    18  C    0.093603
    19  C   -0.177522
    20  C   -0.209105
    21  C    0.073422
    22  C    0.069679
    23  C   -0.201739
    24  C   -0.132089
    25  C   -0.131123
    26  C   -0.203576
    27  C    0.071616
    28  C    0.069001
    29  C   -0.202934
    30  C   -0.131106
    31  C   -0.132373
    32  C   -0.201362
    33  C    0.068535
    34  C    0.075425
    35  C   -0.268133
    36  C    0.047599
    37  C    0.088724
    38  C   -0.253749
    39  C    0.085680
    40  C   -0.192038
    41  C   -0.138262
    42  C   -0.129465
    43  C   -0.204956
    44  C    0.108259
    45  C   -0.418750
    46  C   -0.192293
    47  C   -0.179711
    48  C    0.319229
    49  C   -0.149010
    50  C   -0.142770
    51  H    0.135662
    52  H    0.138880
    53  H    0.152736
    54  H    0.139566
    55  H    0.127017
    56  H    0.125059
    57  H    0.132286
    58  H    0.136682
    59  H    0.132466
    60  H    0.136813
    61  H    0.135997
    62  H    0.134653
    63  H    0.129887
    64  H    0.129630
    65  H    0.134256
    66  H    0.134369
    67  H    0.129840
    68  H    0.130438
    69  H    0.134671
    70  H    0.139871
    71  H    0.130620
    72  H    0.128421
    73  H    0.126831
    74  H    0.126437
    75  H    0.125764
    76  H    0.179024
    77  H    0.168779
    78  H    0.131000
    79  H    0.141138
    80  H    0.152529
    81  H    0.138861
 Sum of Mulliken charges =  -0.00000

 Dipole moment (field-independent basis, Debye):
    X=              1.5574    Y=              0.0059    Z=              0.5998  Tot=              1.6689
 Quadrupole moment (field-independent basis, Debye-Ang):
   XX=           -228.1292   YY=           -268.0720   ZZ=           -278.9711
   XY=             -5.0578   XZ=              8.9514   YZ=              9.3412

 Normal termination of Gaussian 16 at Sat Nov  5 11:10:12 2022.
