 Gaussian 16, Revision B.01,
 Gaussian 16:  ES64L-G16RevB.01 20-Dec-2017

 -----------------------------
 #p b3lyp/6-31g(d) opt SCF=XQC
 -----------------------------

 ------------------------------
 Gaussian input prepared by ASE
 ------------------------------
 Symbolic Z-matrix:
 Charge =  0 Multiplicity = 1

 SCF Done:  E(RB3LYP) =  -2805.91174159     A.U. after   16 cycles
 SCF Done:  E(RB3LYP) =  -2805.93003376     A.U. after   13 cycles
 SCF Done:  E(RB3LYP) =  -2805.93163442     A.U. after   12 cycles
 SCF Done:  E(RB3LYP) =  -2805.93220348     A.U. after   13 cycles
 SCF Done:  E(RB3LYP) =  -2805.93264457     A.U. after   12 cycles
 SCF Done:  E(RB3LYP) =  -2805.93282311     A.U. after   11 cycles
 SCF Done:  E(RB3LYP) =  -2805.93287135     A.U. after   11 cycles
 SCF Done:  E(RB3LYP) =  -2805.93289175     A.U. after   11 cycles
 SCF Done:  E(RB3LYP) =  -2805.93291042     A.U. after   10 cycles
 SCF Done:  E(RB3LYP) =  -2805.93293006     A.U. after   11 cycles
 SCF Done:  E(RB3LYP) =  -2805.93299550     A.U. after   12 cycles
 SCF Done:  E(RB3LYP) =  -2805.92649352     A.U. after   14 cycles
 SCF Done:  E(RB3LYP) =  -2805.93226601     A.U. after   14 cycles
 SCF Done:  E(RB3LYP) =  -2805.93300021     A.U. after   10 cycles
 SCF Done:  E(RB3LYP) =  -2805.93300400     A.U. after   10 cycles
 SCF Done:  E(RB3LYP) =  -2805.93300512     A.U. after    8 cycles
 SCF Done:  E(RB3LYP) =  -2805.93300527     A.U. after    7 cycles
 SCF Done:  E(RB3LYP) =  -2805.93300532     A.U. after    7 cycles
 SCF Done:  E(RB3LYP) =  -2805.93300534     A.U. after    7 cycles
 SCF Done:  E(RB3LYP) =  -2805.93300535     A.U. after    7 cycles
 Optimization completed.
    -- Stationary point found.

                         Standard orientation:
 ---------------------------------------------------------------------
 Center     Atomic      Atomic             Coordinates (Angstroms)
 Number     Number       Type             X           Y           Z
 ---------------------------------------------------------------------
      1          6           0       -3.439942   -4.919666   -1.686292
      2          6           0       -2.402452   -5.537279   -0.721719
      3          6           0       -3.114205   -6.087113    0.534794
      4          6           0       -1.576079   -6.621842   -1.412689
      5          6           0       -2.007361   -7.817263   -1.976323
      6          6           0       -1.069023   -8.674020   -2.564695
      7          6           0        0.286862   -8.331733   -2.585584
      8          6           0        0.726351   -7.132061   -2.021081
      9          6           0       -0.209754   -6.277484   -1.434161
     10          6           0       -0.041319   -4.976130   -0.776122
     11          6           0        1.104847   -4.219638   -0.549215
     12          6           0        0.966967   -2.994481    0.115279
     13          6           0        1.906225   -1.970114    0.526281
     14          6           0        3.289427   -1.819798    0.387526
     15          6           0        3.912119   -0.687015    0.919119
     16          7           0        5.327745   -0.523750    0.809457
     17          6           0        6.182992   -1.591610    1.189740
     18          6           0        7.322670   -1.907079    0.430560
     19          6           0        8.154091   -2.958389    0.811863
     20          6           0        7.859401   -3.726494    1.940261
     21          6           0        6.721054   -3.423187    2.690274
     22          6           0        5.892802   -2.363176    2.327528
     23          6           0        5.853575    0.687926    0.301888
     24          6           0        7.048623    1.229322    0.807964
     25          6           0        7.553580    2.423468    0.306992
     26          6           0        6.889082    3.141207   -0.702890
     27          6           0        7.429072    4.418975   -1.226338
     28          6           0        6.572396    5.469203   -1.601380
     29          6           0        7.079703    6.669624   -2.095986
     30          6           0        8.457894    6.852716   -2.223727
     31          6           0        9.322531    5.820925   -1.853573
     32          6           0        8.814225    4.619019   -1.363600
     33          6           0        5.690502    2.595707   -1.193589
     34          6           0        5.183224    1.394174   -0.711740
     35          6           0        3.142556    0.299367    1.575024
     36          6           0        1.762286    0.182850    1.698424
     37          6           0        1.152477   -0.959799    1.176280
     38          7           0       -0.196760   -1.319427    1.164956
     39          6           0       -1.254815   -0.593524    1.791160
     40          6           0       -1.417001   -0.698197    3.176079
     41          6           0       -2.443662   -0.010537    3.826266
     42          6           0       -3.327928    0.784905    3.094600
     43          6           0       -3.171682    0.897111    1.714491
     44          6           0       -2.134822    0.219008    1.053428
     45          6           0       -2.200411    0.541038   -0.376824
     46          6           0       -1.373425    0.131837   -1.426933
     47          6           0       -1.639832    0.590242   -2.716592
     48          6           0       -2.718130    1.444738   -2.946462
     49          6           0       -3.545323    1.858281   -1.896164
     50          6           0       -3.292617    1.410076   -0.601167
     51          6           0       -4.033715    1.717982    0.732593
     52          6           0       -5.502744    1.167861    0.762379
     53          6           0       -5.773851   -0.033788    1.442716
     54          6           0       -7.057282   -0.557557    1.579281
     55          6           0       -8.140493    0.125627    1.037956
     56          6           0       -7.895973    1.281668    0.309184
     57          6           0       -6.598556    1.799113    0.120203
     58          6           0       -6.483434    2.925703   -0.838759
     59          6           0       -7.239369    2.852718   -2.025607
     60          6           0       -7.200951    3.856417   -2.986945
     61          6           0       -6.386166    4.970038   -2.780644
     62          6           0       -5.627673    5.053982   -1.618391
     63          6           0       -5.659749    4.049166   -0.630858
     64          6           0       -4.802450    4.235681    0.566453
     65          6           0       -4.750574    5.543419    1.089856
     66          6           0       -3.857928    5.914433    2.086320
     67          6           0       -2.964278    4.962031    2.563531
     68          6           0       -3.036276    3.652932    2.093323
     69          6           0       -3.974306    3.232623    1.132468
     70          6           0       -0.320099   -2.559420    0.535411
     71          6           0       -1.477074   -3.315350    0.310576
     72          6           0       -1.318369   -4.524912   -0.349089
     73          1           0       -4.174881   -5.671553   -1.996942
     74          1           0       -2.955386   -4.523792   -2.584371
     75          1           0       -3.981708   -4.099395   -1.201185
     76          1           0       -2.395917   -6.529464    1.232472
     77          1           0       -3.651510   -5.287032    1.057508
     78          1           0       -3.843696   -6.858039    0.260234
     79          1           0       -3.060066   -8.091134   -1.964607
     80          1           0       -1.396669   -9.610707   -3.007847
     81          1           0        1.005630   -9.005176   -3.045245
     82          1           0        1.781950   -6.872415   -2.040817
     83          1           0        2.082724   -4.566718   -0.873525
     84          1           0        3.884511   -2.573221   -0.119536
     85          1           0        7.550050   -1.325517   -0.457059
     86          1           0        9.030586   -3.186676    0.210721
     87          1           0        8.506079   -4.549867    2.229809
     88          1           0        6.479132   -4.007639    3.574329
     89          1           0        5.015685   -2.126355    2.921063
     90          1           0        7.573115    0.714144    1.606117
     91          1           0        8.463659    2.829491    0.740246
     92          1           0        5.499331    5.351171   -1.478458
     93          1           0        6.395947    7.468239   -2.372484
     94          1           0        8.853747    7.789128   -2.607556
     95          1           0       10.397337    5.947369   -1.956336
     96          1           0        9.496777    3.813190   -1.108060
     97          1           0        5.163087    3.101333   -1.997884
     98          1           0        4.266662    0.989038   -1.127827
     99          1           0        3.647880    1.168039    1.984896
    100          1           0        1.181788    0.951131    2.199257
    101          1           0       -0.732104   -1.329625    3.734197
    102          1           0       -2.557927   -0.102198    4.902509
    103          1           0       -4.131203    1.313589    3.599249
    104          1           0       -0.535139   -0.530155   -1.247839
    105          1           0       -1.004242    0.278964   -3.541046
    106          1           0       -2.923878    1.800200   -3.952649
    107          1           0       -4.367566    2.523841   -2.112238
    108          1           0       -4.960400   -0.589846    1.886201
    109          1           0       -7.199851   -1.487998    2.122280
    110          1           0       -9.156227   -0.238219    1.165897
    111          1           0       -8.730101    1.817989   -0.132451
    112          1           0       -7.843908    1.969265   -2.204387
    113          1           0       -7.786808    3.759322   -3.896855
    114          1           0       -6.324996    5.757679   -3.526625
    115          1           0       -4.964185    5.901267   -1.477940
    116          1           0       -5.441510    6.281049    0.693630
    117          1           0       -3.852565    6.931829    2.467541
    118          1           0       -2.219246    5.221430    3.310813
    119          1           0       -2.330066    2.940246    2.494643
    120          1           0       -2.449490   -2.960698    0.639678
 ---------------------------------------------------------------------

 The electronic state is 1-A.
 Alpha  occ. eigenvalues --  -14.38021 -14.35820 -10.24017 -10.23175 -10.22434
 Alpha  occ. eigenvalues --  -10.22407 -10.22405 -10.22333 -10.22048 -10.21095
 Alpha  occ. eigenvalues --  -10.21051 -10.20789 -10.20439 -10.20430 -10.20415
 Alpha  occ. eigenvalues --  -10.20393 -10.20355 -10.20309 -10.20299 -10.20251
 Alpha  occ. eigenvalues --  -10.20139 -10.19856 -10.19633 -10.19534 -10.19481
 Alpha  occ. eigenvalues --  -10.19329 -10.19324 -10.19214 -10.19140 -10.19090
 Alpha  occ. eigenvalues --  -10.19087 -10.19085 -10.19037 -10.19032 -10.19002
 Alpha  occ. eigenvalues --  -10.18994 -10.18867 -10.18817 -10.18810 -10.18775
 Alpha  occ. eigenvalues --  -10.18775 -10.18762 -10.18762 -10.18758 -10.18714
 Alpha  occ. eigenvalues --  -10.18692 -10.18685 -10.18615 -10.18532 -10.18515
 Alpha  occ. eigenvalues --  -10.18484 -10.18419 -10.18407 -10.18393 -10.18391
 Alpha  occ. eigenvalues --  -10.18362 -10.18351 -10.18304 -10.18293 -10.18282
 Alpha  occ. eigenvalues --  -10.18225 -10.18212 -10.18206 -10.18200 -10.18165
 Alpha  occ. eigenvalues --  -10.18145 -10.18141 -10.18110 -10.18067 -10.18042
 Alpha  occ. eigenvalues --  -10.17652 -10.17506  -0.99000  -0.95723  -0.90079
 Alpha  occ. eigenvalues --   -0.88102  -0.87754  -0.85839  -0.85606  -0.85573
 Alpha  occ. eigenvalues --   -0.84809  -0.84580  -0.84113  -0.83501  -0.82768
 Alpha  occ. eigenvalues --   -0.81197  -0.80543  -0.78522  -0.78283  -0.77608
 Alpha  occ. eigenvalues --   -0.77113  -0.76946  -0.76385  -0.75163  -0.74647
 Alpha  occ. eigenvalues --   -0.74465  -0.74254  -0.73979  -0.73799  -0.73407
 Alpha  occ. eigenvalues --   -0.73164  -0.72752  -0.72708  -0.72262  -0.71984
 Alpha  occ. eigenvalues --   -0.71321  -0.70143  -0.69180  -0.68267  -0.68083
 Alpha  occ. eigenvalues --   -0.65685  -0.63856  -0.63418  -0.63119  -0.62579
 Alpha  occ. eigenvalues --   -0.62322  -0.61625  -0.61100  -0.60934  -0.60005
 Alpha  occ. eigenvalues --   -0.59867  -0.59759  -0.59165  -0.58884  -0.58267
 Alpha  occ. eigenvalues --   -0.57905  -0.57666  -0.57387  -0.57091  -0.57040
 Alpha  occ. eigenvalues --   -0.56346  -0.56038  -0.54852  -0.53178  -0.52825
 Alpha  occ. eigenvalues --   -0.52381  -0.51812  -0.51418  -0.51228  -0.50985
 Alpha  occ. eigenvalues --   -0.50840  -0.49358  -0.48838  -0.48563  -0.48160
 Alpha  occ. eigenvalues --   -0.48022  -0.47376  -0.47232  -0.47042  -0.46752
 Alpha  occ. eigenvalues --   -0.46056  -0.45659  -0.45513  -0.45230  -0.44741
 Alpha  occ. eigenvalues --   -0.44707  -0.44272  -0.44113  -0.44018  -0.43670
 Alpha  occ. eigenvalues --   -0.43547  -0.43446  -0.43408  -0.43392  -0.43265
 Alpha  occ. eigenvalues --   -0.43022  -0.42844  -0.42633  -0.42528  -0.42423
 Alpha  occ. eigenvalues --   -0.42276  -0.42124  -0.42040  -0.41903  -0.41701
 Alpha  occ. eigenvalues --   -0.41492  -0.41459  -0.41076  -0.40913  -0.40682
 Alpha  occ. eigenvalues --   -0.40195  -0.39522  -0.38944  -0.38689  -0.38574
 Alpha  occ. eigenvalues --   -0.38299  -0.37817  -0.37432  -0.37255  -0.37128
 Alpha  occ. eigenvalues --   -0.36808  -0.36710  -0.36583  -0.36559  -0.36434
 Alpha  occ. eigenvalues --   -0.36192  -0.35941  -0.35700  -0.35598  -0.35409
 Alpha  occ. eigenvalues --   -0.34938  -0.34857  -0.34756  -0.34577  -0.34221
 Alpha  occ. eigenvalues --   -0.33965  -0.33923  -0.33889  -0.33806  -0.33462
 Alpha  occ. eigenvalues --   -0.33317  -0.33141  -0.32976  -0.32793  -0.32702
 Alpha  occ. eigenvalues --   -0.31926  -0.31459  -0.31303  -0.29820  -0.28933
 Alpha  occ. eigenvalues --   -0.27915  -0.27856  -0.27065  -0.26867  -0.26208
 Alpha  occ. eigenvalues --   -0.26096  -0.25034  -0.24811  -0.24810  -0.24364
 Alpha  occ. eigenvalues --   -0.24274  -0.24017  -0.23938  -0.23681  -0.23512
 Alpha  occ. eigenvalues --   -0.22622  -0.22157  -0.22011  -0.21295  -0.19277
 Alpha  occ. eigenvalues --   -0.17104
 Alpha virt. eigenvalues --   -0.04315  -0.03726  -0.03128  -0.02475  -0.02459
 Alpha virt. eigenvalues --   -0.02269  -0.01751  -0.01099  -0.00204  -0.00120
 Alpha virt. eigenvalues --    0.00196   0.00549   0.00771   0.01109   0.01274

 Mulliken charges:
               1
     1  C   -0.436525
     2  C   -0.064820
     3  C   -0.436433
     4  C    0.101211
     5  C   -0.204035
     6  C   -0.133522
     7  C   -0.136480
     8  C   -0.193742
     9  C    0.077728
    10  C    0.076189
    11  C   -0.275030
    12  C    0.069006
    13  C    0.058886
    14  C   -0.246115
    15  C    0.257329
    16  N   -0.658228
    17  C    0.285881
    18  C   -0.167116
    19  C   -0.140485
    20  C   -0.130007
    21  C   -0.139419
    22  C   -0.165180
    23  C    0.300646
    24  C   -0.175985
    25  C   -0.189383
    26  C    0.093836
    27  C    0.091720
    28  C   -0.176182
    29  C   -0.133863
    30  C   -0.128418
    31  C   -0.133841
    32  C   -0.175995
    33  C   -0.188670
    34  C   -0.177862
    35  C   -0.173690
    36  C   -0.183916
    37  C    0.314147
    38  N   -0.737011
    39  C    0.152074
    40  C   -0.138724
    41  C   -0.148770
    42  C   -0.169763
    43  C   -0.013022
    44  C    0.111346
    45  C    0.072964
    46  C   -0.177960
    47  C   -0.142787
    48  C   -0.130586
    49  C   -0.198663
    50  C    0.129970
    51  C   -0.235536
    52  C    0.133446
    53  C   -0.190601
    54  C   -0.129018
    55  C   -0.130815
    56  C   -0.181235
    57  C    0.042613
    58  C    0.025155
    59  C   -0.181490
    60  C   -0.131425
    61  C   -0.131189
    62  C   -0.181733
    63  C    0.023747
    64  C    0.042936
    65  C   -0.182040
    66  C   -0.130840
    67  C   -0.128673
    68  C   -0.189463
    69  C    0.133258
    70  C    0.308571
    71  C   -0.260602
    72  C    0.093826
    73  H    0.142075
    74  H    0.158228
    75  H    0.146239
    76  H    0.156661
    77  H    0.141551
    78  H    0.143035
    79  H    0.121542
    80  H    0.123949
    81  H    0.125314
    82  H    0.126575
    83  H    0.134158
    84  H    0.144476
    85  H    0.143680
    86  H    0.129075
    87  H    0.125044
    88  H    0.129026
    89  H    0.140875
    90  H    0.144100
    91  H    0.131745
    92  H    0.130088
    93  H    0.127473
    94  H    0.126442
    95  H    0.127520
    96  H    0.129326
    97  H    0.132373
    98  H    0.144095
    99  H    0.143332
   100  H    0.140946
   101  H    0.149639
   102  H    0.139760
   103  H    0.150221
   104  H    0.158844
   105  H    0.132623
   106  H    0.129344
   107  H    0.158819
   108  H    0.147631
   109  H    0.130019
   110  H    0.131529
   111  H    0.138069
   112  H    0.141299
   113  H    0.133620
   114  H    0.133675
   115  H    0.141664
   116  H    0.137906
   117  H    0.131662
   118  H    0.130908
   119  H    0.147899
   120  H    0.136331
 Sum of Mulliken charges =  -0.00000

 Dipole moment (field-independent basis, Debye):
    X=             -3.2378    Y=              0.9659    Z=              0.7686  Tot=              3.4651
 Quadrupole moment (field-independent basis, Debye-Ang):
   XX=           -384.3438   YY=           -391.0462   ZZ=           -393.5578
   XY=             -5.7271   XZ=              2.7906   YZ=             -5.5333

 1\1\GINC-NODE63\FOpt\RB3LYP\6-31G(d)\C70H48N2\WYKGROUP\05-Nov-2022\0\\
 #p b3lyp/6-31g(d) opt SCF=XQC\\Gaussian input prepared by ASE\\0,1\C,2
 .2605312553,-5.2091304619,2.4202093502\C,1.3470918121,-5.7210940725,1.
 2836552615\C,2.1951174032,-6.4401543079,0.2105570173\C,0.2437653487,-6
 .6312137767,1.8230626319\C,0.3660148182,-7.8431320752,2.493157508\C,-0
 .790383914,-8.5176457792,2.9036030439\C,-2.0544182151,-7.9789043873,2.
 6428459007\C,-2.183787212,-6.7616291769,1.9701399344\C,-1.030172049,-6
 .0888568663,1.5607261818\C,-0.86302563,-4.8163781332,0.8481482711\C,-1

 Normal termination of Gaussian 16 at Sat Nov  5 06:22:04 2022.
