 Gaussian 16, Revision B.01,
 Gaussian 16:  ES64L-G16RevB.01 20-Dec-2017

 -------------------------------------------------------------------
 #p b3lyp/6-31g(d) 6D 10F nosymm GFInput td=(50-50,nstate=2) SCF=XQC
 -------------------------------------------------------------------

 ------------------------------
 Gaussian input prepared by ASE
 ------------------------------
 Symbolic Z-matrix:
 Charge =  0 Multiplicity = 1

                          Input orientation:
 ---------------------------------------------------------------------
 Center     Atomic      Atomic             Coordinates (Angstroms)
 Number     Number       Type             X           Y           Z
 ---------------------------------------------------------------------
      1          6           0        2.260531   -5.209130    2.420209
      2          6           0        1.347092   -5.721094    1.283655
      3          6           0        2.195117   -6.440154    0.210557
      4          6           0        0.243765   -6.631214    1.823063
      5          6           0        0.366015   -7.843132    2.493158
      6          6           0       -0.790384   -8.517646    2.903603
      7          6           0       -2.054418   -7.978904    2.642846
      8          6           0       -2.183787   -6.761629    1.970140
      9          6           0       -1.030172   -6.088857    1.560726
     10          6           0       -0.863026   -4.816378    0.848148
     11          6           0       -1.811365   -3.913555    0.375889
     12          6           0       -1.358140   -2.761769   -0.279509
     13          6           0       -2.028644   -1.635331   -0.897587
     14          6           0       -3.371899   -1.275444   -1.043336
     15          6           0       -3.695504   -0.095388   -1.718823
     16          7           0       -5.062494    0.280408   -1.899911
     17          6           0       -5.983003   -0.669805   -2.415807
     18          6           0       -7.283413   -0.770476   -1.892798
     19          6           0       -8.178073   -1.707910   -2.405347
     20          6           0       -7.792829   -2.573850   -3.430941
     21          6           0       -6.497381   -2.484473   -3.944919
     22          6           0       -5.600830   -1.539033   -3.451409
     23          6           0       -5.481964    1.583127   -1.540398
     24          6           0       -6.456848    2.264887   -2.290177
     25          6           0       -6.857546    3.546849   -1.932471
     26          6           0       -6.298593    4.215153   -0.829062
     27          6           0       -6.724584    5.586122   -0.458586
     28          6           0       -5.804416    6.518416    0.052930
     29          6           0       -6.205177    7.806559    0.403764
     30          6           0       -7.536340    8.197450    0.247371
     31          6           0       -8.462302    7.284812   -0.261442
     32          6           0       -8.061704    5.995319   -0.607501
     33          6           0       -5.317939    3.527948   -0.093525
     34          6           0       -4.919858    2.239435   -0.431843
     35          6           0       -2.669284    0.728133   -2.232704
     36          6           0       -1.326596    0.402924   -2.073399
     37          6           0       -1.015167   -0.785516   -1.409491
     38          7           0        0.233471   -1.338573   -1.118064
     39          6           0        1.492820   -0.813043   -1.538072
     40          6           0        1.902765   -1.018925   -2.858988
     41          6           0        3.130420   -0.527900   -3.307774
     42          6           0        3.968379    0.168990   -2.434756
     43          6           0        3.566293    0.381163   -1.117557
     44          6           0        2.328132   -0.098306   -0.660420
     45          6           0        2.163788    0.291263    0.744875
     46          6           0        1.095110    0.068535    1.618032
     47          6           0        1.173797    0.555231    2.922356
     48          6           0        2.306383    1.253380    3.341362
     49          6           0        3.375973    1.480356    2.467947
     50          6           0        3.313180    1.001412    1.160876
     51          6           0        4.338043    1.120647   -0.004623
     52          6           0        5.681064    0.359515    0.275620
     53          6           0        5.888964   -0.905624   -0.304480
     54          6           0        7.077079   -1.619482   -0.166756
     55          6           0        8.127253   -1.073534    0.562762
     56          6           0        7.928597    0.145407    1.196837
     57          6           0        6.715765    0.858054    1.107802
     58          6           0        6.593121    2.041940    1.994052
     59          6           0        7.083261    1.926014    3.309991
     60          6           0        7.015331    2.977394    4.217209
     61          6           0        6.439482    4.185273    3.822222
     62          6           0        5.943788    4.313794    2.529566
     63          6           0        6.010493    3.260757    1.595452
     64          6           0        5.441869    3.503115    0.245921
     65          6           0        5.696733    4.772389   -0.311580
     66          6           0        5.083537    5.213545   -1.476389
     67          6           0        4.162628    4.377492   -2.097962
     68          6           0        3.937379    3.100892   -1.588479
     69          6           0        4.593784    2.602356   -0.448129
     70          6           0        0.037729   -2.545441   -0.444063
     71          6           0        0.997027   -3.449417    0.028321
     72          6           0        0.526997   -4.583013    0.674399
     73          1           0        2.795027   -6.042127    2.891805
     74          1           0        1.678263   -4.695897    3.191968
     75          1           0        3.007097   -4.506415    2.032247
     76          1           0        1.566224   -6.810872   -0.605181
     77          1           0        2.941531   -5.758855   -0.214596
     78          1           0        2.728391   -7.293199    0.646220
     79          1           0        1.345270   -8.269173    2.700232
     80          1           0       -0.704853   -9.465660    3.428077
     81          1           0       -2.944634   -8.512025    2.966482
     82          1           0       -3.169616   -6.348754    1.770713
     83          1           0       -2.875471   -4.093951    0.506349
     84          1           0       -4.163975   -1.903054   -0.646340
     85          1           0       -7.585686   -0.112323   -1.084560
     86          1           0       -9.179312   -1.770200   -1.986574
     87          1           0       -8.490941   -3.308181   -3.822568
     88          1           0       -6.182165   -3.147417   -4.746672
     89          1           0       -4.599140   -1.467976   -3.862833
     90          1           0       -6.889844    1.788026   -3.163484
     91          1           0       -7.591635    4.057125   -2.550157
     92          1           0       -4.759593    6.236951    0.151074
     93          1           0       -5.472468    8.510243    0.790708
     94          1           0       -7.848689    9.202194    0.519066
     95          1           0       -9.503585    7.573695   -0.379900
     96          1           0       -8.798442    5.285524   -0.973488
     97          1           0       -4.884790    3.995294    0.786636
     98          1           0       -4.176015    1.728106    0.170310
     99          1           0       -2.943946    1.637023   -2.758458
    100          1           0       -0.547547    1.047706   -2.467615
    101          1           0        1.249684   -1.573341   -3.526362
    102          1           0        3.435989   -0.696350   -4.336369
    103          1           0        4.926670    0.544171   -2.781663
    104          1           0        0.215055   -0.471963    1.291848
    105          1           0        0.349576    0.388215    3.610366
    106          1           0        2.365399    1.631252    4.358627
    107          1           0        4.233859    2.028837    2.827031
    108          1           0        5.100819   -1.360184   -0.887390
    109          1           0        7.175977   -2.590092   -0.645326
    110          1           0        9.079293   -1.589583    0.650974
    111          1           0        8.734058    0.577328    1.782608
    112          1           0        7.496627    0.974802    3.629746
    113          1           0        7.390817    2.846964    5.228440
    114          1           0        6.357765    5.014418    4.519680
    115          1           0        5.460255    5.240143    2.236467
    116          1           0        6.403644    5.421595    0.195664
    117          1           0        5.310663    6.197342   -1.877651
    118          1           0        3.626615    4.700857   -2.986171
    119          1           0        3.220545    2.478277   -2.104435
    120          1           0        2.057954   -3.261012   -0.108128
 ---------------------------------------------------------------------

 SCF Done:  E(RB3LYP) =  -2805.93301128     A.U. after   16 cycles

 Excitation energies and oscillator strengths:

 Excited state symmetry could not be determined.
 Excited State   1:      Triplet-?Sym    2.8080 eV  441.54 nm  f=0.0000  <S**2>=2.000
     236 -> 247        0.10115
     239 -> 247       -0.10569
     240 -> 247        0.12915
     241 -> 244        0.33458
     241 -> 246        0.25745
     241 -> 247        0.43533
     241 -> 248       -0.11614
 This state for optimization and/or second-order correction.
 Total Energy, E(TD-HF/TD-DFT) =  -2805.82981864
 Copying the excited state density for this state as the 1-particle RhoCI density.

 Excited state symmetry could not be determined.
 Excited State   2:      Triplet-?Sym    2.8362 eV  437.15 nm  f=0.0000  <S**2>=2.000
     239 -> 244        0.24380
     240 -> 244       -0.14663
     240 -> 248        0.26244
     241 -> 244        0.43670
     241 -> 246       -0.12816
     241 -> 247       -0.26369

 Excited state symmetry could not be determined.
 Excited State   3:      Singlet-?Sym    3.0698 eV  403.88 nm  f=0.0100  <S**2>=0.000
     241 -> 242        0.67227
     241 -> 243       -0.17453

 Excited state symmetry could not be determined.
 Excited State   4:      Singlet-?Sym    3.2703 eV  379.13 nm  f=0.0104  <S**2>=0.000
     241 -> 244        0.69096

 Alpha  occ. eigenvalues --  -14.38021 -14.35820 -10.24017 -10.23175 -10.22434
 Alpha  occ. eigenvalues --  -10.22407 -10.22405 -10.22333 -10.22048 -10.21095
 Alpha  occ. eigenvalues --  -10.21052 -10.20789 -10.20439 -10.20430 -10.20415
 Alpha  occ. eigenvalues --  -10.20393 -10.20355 -10.20309 -10.20299 -10.20251
 Alpha  occ. eigenvalues --  -10.20139 -10.19856 -10.19633 -10.19534 -10.19481
 Alpha  occ. eigenvalues --  -10.19329 -10.19324 -10.19214 -10.19141 -10.19090
 Alpha  occ. eigenvalues --  -10.19087 -10.19085 -10.19037 -10.19032 -10.19003
 Alpha  occ. eigenvalues --  -10.18994 -10.18867 -10.18817 -10.18810 -10.18775
 Alpha  occ. eigenvalues --  -10.18775 -10.18762 -10.18762 -10.18758 -10.18715
 Alpha  occ. eigenvalues --  -10.18692 -10.18685 -10.18615 -10.18533 -10.18515
 Alpha  occ. eigenvalues --  -10.18484 -10.18419 -10.18407 -10.18393 -10.18391
 Alpha  occ. eigenvalues --  -10.18362 -10.18351 -10.18304 -10.18293 -10.18282
 Alpha  occ. eigenvalues --  -10.18225 -10.18212 -10.18206 -10.18200 -10.18165
 Alpha  occ. eigenvalues --  -10.18144 -10.18141 -10.18110 -10.18066 -10.18042
 Alpha  occ. eigenvalues --  -10.17652 -10.17506  -0.99000  -0.95723  -0.90079
 Alpha  occ. eigenvalues --   -0.88102  -0.87754  -0.85839  -0.85606  -0.85573
 Alpha  occ. eigenvalues --   -0.84809  -0.84580  -0.84113  -0.83501  -0.82768
 Alpha  occ. eigenvalues --   -0.81197  -0.80543  -0.78522  -0.78283  -0.77608
 Alpha  occ. eigenvalues --   -0.77113  -0.76946  -0.76385  -0.75163  -0.74647
 Alpha  occ. eigenvalues --   -0.74465  -0.74254  -0.73979  -0.73799  -0.73407
 Alpha  occ. eigenvalues --   -0.73164  -0.72752  -0.72708  -0.72262  -0.71984
 Alpha  occ. eigenvalues --   -0.71321  -0.70143  -0.69180  -0.68267  -0.68083
 Alpha  occ. eigenvalues --   -0.65685  -0.63856  -0.63418  -0.63119  -0.62579
 Alpha  occ. eigenvalues --   -0.62322  -0.61625  -0.61100  -0.60934  -0.60005
 Alpha  occ. eigenvalues --   -0.59867  -0.59759  -0.59165  -0.58884  -0.58267
 Alpha  occ. eigenvalues --   -0.57905  -0.57666  -0.57387  -0.57091  -0.57040
 Alpha  occ. eigenvalues --   -0.56346  -0.56038  -0.54852  -0.53178  -0.52825
 Alpha  occ. eigenvalues --   -0.52381  -0.51812  -0.51418  -0.51228  -0.50985
 Alpha  occ. eigenvalues --   -0.50840  -0.49358  -0.48838  -0.48563  -0.48160
 Alpha  occ. eigenvalues --   -0.48023  -0.47376  -0.47232  -0.47042  -0.46752
 Alpha  occ. eigenvalues --   -0.46056  -0.45659  -0.45513  -0.45230  -0.44741
 Alpha  occ. eigenvalues --   -0.44707  -0.44272  -0.44113  -0.44018  -0.43670
 Alpha  occ. eigenvalues --   -0.43547  -0.43446  -0.43408  -0.43392  -0.43265
 Alpha  occ. eigenvalues --   -0.43022  -0.42844  -0.42633  -0.42528  -0.42423
 Alpha  occ. eigenvalues --   -0.42276  -0.42124  -0.42040  -0.41903  -0.41701
 Alpha  occ. eigenvalues --   -0.41492  -0.41459  -0.41076  -0.40913  -0.40682
 Alpha  occ. eigenvalues --   -0.40195  -0.39522  -0.38944  -0.38689  -0.38574
 Alpha  occ. eigenvalues --   -0.38299  -0.37817  -0.37432  -0.37255  -0.37128
 Alpha  occ. eigenvalues --   -0.36808  -0.36710  -0.36583  -0.36559  -0.36434
 Alpha  occ. eigenvalues --   -0.36192  -0.35941  -0.35700  -0.35598  -0.35409
 Alpha  occ. eigenvalues --   -0.34938  -0.34857  -0.34756  -0.34577  -0.34221
 Alpha  occ. eigenvalues --   -0.33965  -0.33923  -0.33889  -0.33806  -0.33462
 Alpha  occ. eigenvalues --   -0.33317  -0.33141  -0.32976  -0.32793  -0.32702
 Alpha  occ. eigenvalues --   -0.31926  -0.31459  -0.31303  -0.29820  -0.28933
 Alpha  occ. eigenvalues --   -0.27915  -0.27856  -0.27065  -0.26867  -0.26208
 Alpha  occ. eigenvalues --   -0.26096  -0.25034  -0.24811  -0.24810  -0.24364
 Alpha  occ. eigenvalues --   -0.24274  -0.24017  -0.23938  -0.23681  -0.23512
 Alpha  occ. eigenvalues --   -0.22622  -0.22157  -0.22011  -0.21295  -0.19277
 Alpha  occ. eigenvalues --   -0.17104
 Alpha virt. eigenvalues --   -0.04315  -0.03726  -0.03128  -0.02475  -0.02459
 Alpha virt. eigenvalues --   -0.02269  -0.01751  -0.01099  -0.00204  -0.00120
 Alpha virt. eigenvalues --    0.00196   0.00549   0.00771   0.01109   0.01274

 Mulliken charges:
               1
     1  C   -0.436528
     2  C   -0.064830
     3  C   -0.436448
     4  C    0.101260
     5  C   -0.204046
     6  C   -0.133530
     7  C   -0.136475
     8  C   -0.193749
     9  C    0.077726
    10  C    0.076173
    11  C   -0.275016
    12  C    0.069017
    13  C    0.058875
    14  C   -0.246133
    15  C    0.257334
    16  N   -0.658241
    17  C    0.285855
    18  C   -0.167100
    19  C   -0.140494
    20  C   -0.130003
    21  C   -0.139438
    22  C   -0.165149
    23  C    0.300685
    24  C   -0.175994
    25  C   -0.189391
    26  C    0.093849
    27  C    0.091713
    28  C   -0.176186
    29  C   -0.133862
    30  C   -0.128418
    31  C   -0.133838
    32  C   -0.175994
    33  C   -0.188662
    34  C   -0.177876
    35  C   -0.173689
    36  C   -0.183912
    37  C    0.314155
    38  N   -0.736975
    39  C    0.152064
    40  C   -0.138717
    41  C   -0.148780
    42  C   -0.169771
    43  C   -0.012997
    44  C    0.111335
    45  C    0.072957
    46  C   -0.177945
    47  C   -0.142786
    48  C   -0.130589
    49  C   -0.198673
    50  C    0.129973
    51  C   -0.235529
    52  C    0.133437
    53  C   -0.190611
    54  C   -0.129024
    55  C   -0.130810
    56  C   -0.181235
    57  C    0.042594
    58  C    0.025189
    59  C   -0.181486
    60  C   -0.131422
    61  C   -0.131193
    62  C   -0.181733
    63  C    0.023746
    64  C    0.042925
    65  C   -0.182039
    66  C   -0.130838
    67  C   -0.128677
    68  C   -0.189453
    69  C    0.133246
    70  C    0.308525
    71  C   -0.260580
    72  C    0.093814
    73  H    0.142075
    74  H    0.158228
    75  H    0.146241
    76  H    0.156664
    77  H    0.141554
    78  H    0.143039
    79  H    0.121540
    80  H    0.123949
    81  H    0.125313
    82  H    0.126574
    83  H    0.134157
    84  H    0.144477
    85  H    0.143682
    86  H    0.129076
    87  H    0.125046
    88  H    0.129027
    89  H    0.140875
    90  H    0.144099
    91  H    0.131744
    92  H    0.130088
    93  H    0.127473
    94  H    0.126441
    95  H    0.127519
    96  H    0.129326
    97  H    0.132371
    98  H    0.144097
    99  H    0.143331
   100  H    0.140944
   101  H    0.149638
   102  H    0.139760
   103  H    0.150222
   104  H    0.158844
   105  H    0.132623
   106  H    0.129341
   107  H    0.158819
   108  H    0.147634
   109  H    0.130020
   110  H    0.131529
   111  H    0.138069
   112  H    0.141299
   113  H    0.133619
   114  H    0.133676
   115  H    0.141663
   116  H    0.137907
   117  H    0.131662
   118  H    0.130909
   119  H    0.147899
   120  H    0.136329
 Sum of Mulliken charges =  -0.00000

 Dipole moment (field-independent basis, Debye):
    X=              3.4355    Y=              0.4336    Z=             -0.1282  Tot=              3.4651
 Quadrupole moment (field-independent basis, Debye-Ang):
   XX=           -384.3642   YY=           -391.9485   ZZ=           -392.4213
   XY=              3.8523   XZ=              5.0427   YZ=              5.7620

 Normal termination of Gaussian 16 at Sat Nov  5 13:16:29 2022.
