 Gaussian 16, Revision B.01,
 Gaussian 16:  ES64L-G16RevB.01 20-Dec-2017

 -------------------------------------------------------------------
 #p b3lyp/6-31g(d) 6D 10F nosymm GFInput td=(50-50,nstate=2) SCF=XQC
 -------------------------------------------------------------------

 ------------------------------
 Gaussian input prepared by ASE
 ------------------------------
 Symbolic Z-matrix:
 Charge =  0 Multiplicity = 1

                          Input orientation:
 ---------------------------------------------------------------------
 Center     Atomic      Atomic             Coordinates (Angstroms)
 Number     Number       Type             X           Y           Z
 ---------------------------------------------------------------------
      1          6           0        3.458259    3.694697   -0.278389
      2          6           0        3.359853    2.903326    1.062759
      3          6           0        4.428480    3.437960    2.021069
      4          6           0        5.815682    3.405827    1.919987
      5          6           0        6.588863    4.064421    2.885337
      6          6           0        5.979335    4.774881    3.922582
      7          6           0        4.586575    4.845057    4.011581
      8          6           0        3.812501    4.178816    3.061382
      9          6           0        2.349559    4.079093    2.920095
     10          6           0        1.269283    4.564632    3.662117
     11          6           0       -0.018135    4.186761    3.261873
     12          6           0       -0.245326    3.294889    2.205655
     13          6           0        0.850007    2.785940    1.484435
     14          6           0        2.107753    3.273469    1.806723
     15          7           0        0.802536    1.765312    0.507871
     16          6           0       -0.475708    1.293891    0.053691
     17          6           0       -0.950078    1.687325   -1.199986
     18          6           0       -2.192323    1.247815   -1.652548
     19          6           0       -2.995186    0.401498   -0.868342
     20          6           0       -4.319898   -0.064642   -1.349584
     21          6           0       -4.515558   -0.387122   -2.713042
     22          6           0       -5.738484   -0.830007   -3.204893
     23          6           0       -6.798782   -0.958350   -2.304086
     24          6           0       -6.639734   -0.630170   -0.933878
     25          6           0       -5.400087   -0.188959   -0.466303
     26          6           0       -7.928480   -0.832837   -0.302937
     27          6           0       -8.388501   -0.694452    1.008805
     28          6           0       -9.718001   -1.002513    1.323373
     29          6           0      -10.224441   -0.857565    2.712348
     30          6           0      -11.123794   -1.790094    3.257733
     31          6           0      -11.597034   -1.654090    4.562020
     32          6           0      -11.179215   -0.583527    5.354675
     33          6           0      -10.285088    0.350521    4.828293
     34          6           0       -9.815971    0.216131    3.522387
     35          6           0      -10.570741   -1.459857    0.291300
     36          6           0      -10.139157   -1.607036   -1.022606
     37          6           0       -8.812725   -1.281146   -1.315488
     38          7           0       -8.120098   -1.354304   -2.529154
     39          6           0       -8.667504   -1.758826   -3.777823
     40          6           0       -8.086741   -2.816178   -4.489196
     41          6           0       -8.620508   -3.202725   -5.718385
     42          6           0       -9.743836   -2.553819   -6.234729
     43          6           0      -10.327715   -1.506530   -5.519257
     44          6           0       -9.788495   -1.100539   -4.298778
     45          6           0       -2.502551    0.011923    0.390063
     46          6           0       -1.262585    0.451100    0.847704
     47          6           0        1.953538    0.937700    0.364184
     48          6           0        1.840053   -0.373926   -0.121229
     49          6           0        2.951624   -1.209213   -0.187224
     50          6           0        4.215341   -0.774331    0.231949
     51          6           0        5.380670   -1.698796    0.252563
     52          6           0        5.261294   -2.922823    0.923231
     53          6           0        6.333267   -3.819637    1.028702
     54          6           0        7.575750   -3.524414    0.478239
     55          6           0        7.706074   -2.309253   -0.198268
     56          6           0        6.625837   -1.397365   -0.347084
     57          6           0        7.117214   -0.315595   -1.188898
     58          6           0        6.545072    0.841025   -1.741792
     59          6           0        7.325838    1.685262   -2.526488
     60          6           0        8.679099    1.396193   -2.768126
     61          6           0        9.270994    0.247456   -2.251015
     62          6           0        8.476302   -0.606861   -1.481073
     63          7           0        8.825896   -1.813796   -0.872261
     64          6           0       10.095182   -2.449293   -0.950345
     65          6           0       10.797983   -2.758523    0.221064
     66          6           0       12.038614   -3.390867    0.142217
     67          6           0       12.594228   -3.700597   -1.100781
     68          6           0       11.897078   -3.383522   -2.268286
     69          6           0       10.647080   -2.768867   -2.197402
     70          6           0        4.326300    0.547512    0.689489
     71          6           0        3.239629    1.417588    0.734871
     72          1           0        3.427756    4.772866   -0.089546
     73          1           0        4.398268    3.455183   -0.787650
     74          1           0        2.629095    3.431000   -0.942488
     75          1           0        6.307434    2.887016    1.101351
     76          1           0        7.672964    4.025248    2.821357
     77          1           0        6.592764    5.284343    4.661140
     78          1           0        4.115616    5.412348    4.810481
     79          1           0        1.411066    5.208407    4.525502
     80          1           0       -0.876749    4.564018    3.811561
     81          1           0       -1.256619    2.981681    1.972095
     82          1           0       -0.342848    2.349328   -1.810251
     83          1           0       -2.557399    1.588559   -2.617074
     84          1           0       -3.675321   -0.310757   -3.396913
     85          1           0       -5.858036   -1.071559   -4.255759
     86          1           0       -5.280877    0.088263    0.577466
     87          1           0       -7.707575   -0.376150    1.793331
     88          1           0      -11.433708   -2.643782    2.661183
     89          1           0      -12.286280   -2.392782    4.963153
     90          1           0      -11.546909   -0.477993    6.371769
     91          1           0       -9.959274    1.193613    5.432161
     92          1           0       -9.143871    0.965679    3.113500
     93          1           0      -11.607180   -1.681835    0.527983
     94          1           0      -10.817474   -1.959363   -1.792561
     95          1           0       -7.229791   -3.334285   -4.070023
     96          1           0       -8.164157   -4.022633   -6.266094
     97          1           0      -10.161731   -2.862452   -7.188720
     98          1           0      -11.198453   -0.992726   -5.917141
     99          1           0      -10.222169   -0.270004   -3.750499
    100          1           0       -3.087334   -0.665522    1.005696
    101          1           0       -0.890707    0.132235    1.817162
    102          1           0        0.873605   -0.751895   -0.433292
    103          1           0        2.832699   -2.219924   -0.567999
    104          1           0        4.315540   -3.163172    1.400125
    105          1           0        6.194456   -4.756224    1.562095
    106          1           0        8.407996   -4.215260    0.560103
    107          1           0        5.500913    1.071890   -1.566152
    108          1           0        6.882414    2.578598   -2.957578
    109          1           0        9.275187    2.075174   -3.371982
    110          1           0       10.314896    0.020877   -2.441287
    111          1           0       10.370987   -2.493508    1.183338
    112          1           0       12.577131   -3.629503    1.055301
    113          1           0       13.564304   -4.186118   -1.159231
    114          1           0       12.319891   -3.626787   -3.239240
    115          1           0       10.089233   -2.541966   -3.100565
    116          1           0        5.294076    0.904819    1.024041
 ---------------------------------------------------------------------

 SCF Done:  E(RB3LYP) =  -2782.69258294     A.U. after   16 cycles

 Excitation energies and oscillator strengths:

 Excited state symmetry could not be determined.
 Excited State   1:      Triplet-?Sym    2.9376 eV  422.06 nm  f=0.0000  <S**2>=2.000
     233 -> 240       -0.18481
     234 -> 240        0.14602
     234 -> 242        0.22963
     237 -> 240        0.51019
     237 -> 250        0.14836
 This state for optimization and/or second-order correction.
 Total Energy, E(TD-HF/TD-DFT) =  -2782.58462760
 Copying the excited state density for this state as the 1-particle RhoCI density.

 Excited state symmetry could not be determined.
 Excited State   2:      Triplet-?Sym    3.0125 eV  411.57 nm  f=0.0000  <S**2>=2.000
     230 -> 238        0.27290
     232 -> 238        0.27982
     232 -> 239        0.22595
     232 -> 241        0.12543
     235 -> 238        0.14988
     235 -> 239       -0.35814
     235 -> 241        0.19077

 Excited state symmetry could not be determined.
 Excited State   3:      Singlet-?Sym    3.5228 eV  351.94 nm  f=0.0044  <S**2>=0.000
     236 -> 239        0.12627
     237 -> 238       -0.31346
     237 -> 239        0.59287
     237 -> 247       -0.10098

 Excited state symmetry could not be determined.
 Excited State   4:      Singlet-?Sym    3.6512 eV  339.58 nm  f=0.4093  <S**2>=0.000
     237 -> 240        0.68823

 Alpha  occ. eigenvalues --  -14.38865 -14.37682 -14.36708 -10.24479 -10.23734
 Alpha  occ. eigenvalues --  -10.23042 -10.22907 -10.22749 -10.22697 -10.22206
 Alpha  occ. eigenvalues --  -10.21920 -10.21873 -10.20595 -10.20590 -10.20531
 Alpha  occ. eigenvalues --  -10.20526 -10.20524 -10.20343 -10.20317 -10.19981
 Alpha  occ. eigenvalues --  -10.19974 -10.19870 -10.19864 -10.19785 -10.19762
 Alpha  occ. eigenvalues --  -10.19649 -10.19602 -10.19594 -10.19522 -10.19500
 Alpha  occ. eigenvalues --  -10.19477 -10.19461 -10.19460 -10.19405 -10.19372
 Alpha  occ. eigenvalues --  -10.19331 -10.19311 -10.19171 -10.19133 -10.19120
 Alpha  occ. eigenvalues --  -10.19074 -10.18746 -10.18732 -10.18680 -10.18619
 Alpha  occ. eigenvalues --  -10.18586 -10.18572 -10.18558 -10.18472 -10.18450
 Alpha  occ. eigenvalues --  -10.18402 -10.18362 -10.18301 -10.18285 -10.18271
 Alpha  occ. eigenvalues --  -10.18256 -10.18228 -10.18209 -10.18192 -10.18181
 Alpha  occ. eigenvalues --  -10.18130 -10.18028 -10.18022 -10.17979 -10.17908
 Alpha  occ. eigenvalues --  -10.17853 -10.17706 -10.17563 -10.17372 -10.17340
 Alpha  occ. eigenvalues --  -10.17321  -0.99575  -0.98551  -0.96586  -0.88214
 Alpha  occ. eigenvalues --   -0.87694  -0.86819  -0.86544  -0.85964  -0.85300
 Alpha  occ. eigenvalues --   -0.84437  -0.83998  -0.83701  -0.83474  -0.82818
 Alpha  occ. eigenvalues --   -0.80276  -0.79614  -0.78052  -0.77911  -0.76736
 Alpha  occ. eigenvalues --   -0.76614  -0.76189  -0.76039  -0.75536  -0.75269
 Alpha  occ. eigenvalues --   -0.75164  -0.74570  -0.74124  -0.73704  -0.73319
 Alpha  occ. eigenvalues --   -0.73107  -0.72345  -0.71478  -0.71000  -0.70940
 Alpha  occ. eigenvalues --   -0.70885  -0.70426  -0.68937  -0.65558  -0.64324
 Alpha  occ. eigenvalues --   -0.64008  -0.63728  -0.62871  -0.62633  -0.62085
 Alpha  occ. eigenvalues --   -0.61939  -0.61476  -0.61391  -0.60665  -0.60269
 Alpha  occ. eigenvalues --   -0.59983  -0.59426  -0.59306  -0.58029  -0.57767
 Alpha  occ. eigenvalues --   -0.57384  -0.57140  -0.57090  -0.56522  -0.56146
 Alpha  occ. eigenvalues --   -0.54374  -0.54221  -0.53038  -0.52885  -0.52218
 Alpha  occ. eigenvalues --   -0.52158  -0.51989  -0.50846  -0.50610  -0.50504
 Alpha  occ. eigenvalues --   -0.49735  -0.48941  -0.48722  -0.47807  -0.47415
 Alpha  occ. eigenvalues --   -0.47082  -0.46761  -0.46689  -0.46391  -0.46348
 Alpha  occ. eigenvalues --   -0.45909  -0.45491  -0.45344  -0.44865  -0.44664
 Alpha  occ. eigenvalues --   -0.44560  -0.44547  -0.44066  -0.43938  -0.43837
 Alpha  occ. eigenvalues --   -0.43673  -0.43430  -0.43313  -0.43090  -0.43038
 Alpha  occ. eigenvalues --   -0.42656  -0.42573  -0.42392  -0.42336  -0.42190
 Alpha  occ. eigenvalues --   -0.41977  -0.41966  -0.41529  -0.41480  -0.41411
 Alpha  occ. eigenvalues --   -0.41065  -0.40949  -0.40911  -0.40525  -0.39970
 Alpha  occ. eigenvalues --   -0.38518  -0.38347  -0.38220  -0.37782  -0.37676
 Alpha  occ. eigenvalues --   -0.37494  -0.37280  -0.37225  -0.37078  -0.36814
 Alpha  occ. eigenvalues --   -0.36606  -0.36288  -0.36251  -0.36146  -0.35966
 Alpha  occ. eigenvalues --   -0.35664  -0.35471  -0.35388  -0.35185  -0.35010
 Alpha  occ. eigenvalues --   -0.34716  -0.34557  -0.34342  -0.34231  -0.33774
 Alpha  occ. eigenvalues --   -0.33457  -0.33322  -0.33167  -0.33089  -0.32777
 Alpha  occ. eigenvalues --   -0.32685  -0.31978  -0.31463  -0.31127  -0.30358
 Alpha  occ. eigenvalues --   -0.28683  -0.27516  -0.27334  -0.26922  -0.26815
 Alpha  occ. eigenvalues --   -0.26544  -0.25985  -0.25772  -0.25751  -0.25006
 Alpha  occ. eigenvalues --   -0.24833  -0.24689  -0.23885  -0.23612  -0.23511
 Alpha  occ. eigenvalues --   -0.23041  -0.21341  -0.20837  -0.20619  -0.19544
 Alpha  occ. eigenvalues --   -0.19456  -0.18108
 Alpha virt. eigenvalues --   -0.03346  -0.03036  -0.02780  -0.02406  -0.02261
 Alpha virt. eigenvalues --   -0.01674  -0.01449  -0.01104  -0.01032  -0.00944
 Alpha virt. eigenvalues --   -0.00025   0.00209   0.00595   0.00871   0.01843

 Mulliken charges:
               1
     1  C   -0.428399
     2  C   -0.136480
     3  C    0.110076
     4  C   -0.213454
     5  C   -0.134483
     6  C   -0.135003
     7  C   -0.195298
     8  C    0.071181
     9  C    0.102476
    10  C   -0.203356
    11  C   -0.143294
    12  C   -0.182527
    13  C    0.320242
    14  C   -0.016944
    15  N   -0.713048
    16  C    0.210909
    17  C   -0.133740
    18  C   -0.193206
    19  C    0.103126
    20  C    0.080869
    21  C   -0.192841
    22  C   -0.177351
    23  C    0.319258
    24  C    0.063305
    25  C   -0.256443
    26  C    0.065447
    27  C   -0.257202
    28  C    0.083169
    29  C    0.088505
    30  C   -0.175922
    31  C   -0.134067
    32  C   -0.127799
    33  C   -0.134298
    34  C   -0.173793
    35  C   -0.192433
    36  C   -0.177625
    37  C    0.317140
    38  N   -0.739395
    39  C    0.261826
    40  C   -0.149231
    41  C   -0.142626
    42  C   -0.120663
    43  C   -0.142652
    44  C   -0.148813
    45  C   -0.190964
    46  C   -0.139964
    47  C    0.302430
    48  C   -0.190234
    49  C   -0.184249
    50  C    0.085290
    51  C    0.021179
    52  C   -0.188062
    53  C   -0.142848
    54  C   -0.178000
    55  C    0.310357
    56  C    0.000747
    57  C    0.053957
    58  C   -0.211261
    59  C   -0.151369
    60  C   -0.141580
    61  C   -0.179745
    62  C    0.309655
    63  N   -0.728893
    64  C    0.259176
    65  C   -0.146959
    66  C   -0.142968
    67  C   -0.121112
    68  C   -0.143225
    69  C   -0.146791
    70  C   -0.267019
    71  C    0.118777
    72  H    0.154137
    73  H    0.152222
    74  H    0.153865
    75  H    0.145384
    76  H    0.128318
    77  H    0.126197
    78  H    0.128332
    79  H    0.122808
    80  H    0.124495
    81  H    0.138420
    82  H    0.143594
    83  H    0.138254
    84  H    0.132893
    85  H    0.143703
    86  H    0.136267
    87  H    0.135641
    88  H    0.130008
    89  H    0.128810
    90  H    0.128143
    91  H    0.129227
    92  H    0.130290
    93  H    0.132733
    94  H    0.142506
    95  H    0.153208
    96  H    0.140572
    97  H    0.137337
    98  H    0.140547
    99  H    0.153609
   100  H    0.139413
   101  H    0.150361
   102  H    0.145265
   103  H    0.131530
   104  H    0.126051
   105  H    0.125956
   106  H    0.137734
   107  H    0.154804
   108  H    0.122425
   109  H    0.124751
   110  H    0.137895
   111  H    0.152646
   112  H    0.138194
   113  H    0.134699
   114  H    0.137971
   115  H    0.152986
   116  H    0.144333
 Sum of Mulliken charges =  -0.00000

 Dipole moment (field-independent basis, Debye):
    X=             -1.5970    Y=             -2.1341    Z=             -2.8088  Tot=              3.8723
 Quadrupole moment (field-independent basis, Debye-Ang):
   XX=           -326.3539   YY=           -392.9590   ZZ=           -370.6184
   XY=             -4.1256   XZ=             16.2303   YZ=              9.2082

 Normal termination of Gaussian 16 at Sat Nov  5 12:21:33 2022.
