 Gaussian 16, Revision B.01,
 Gaussian 16:  ES64L-G16RevB.01 20-Dec-2017

 -----------------------------
 #p b3lyp/6-31g(d) opt SCF=XQC
 -----------------------------

 ------------------------------
 Gaussian input prepared by ASE
 ------------------------------
 Symbolic Z-matrix:
 Charge =  0 Multiplicity = 1

 SCF Done:  E(RB3LYP) =  -2782.67662942     A.U. after   16 cycles
 SCF Done:  E(RB3LYP) =  -2782.69111178     A.U. after   13 cycles
 SCF Done:  E(RB3LYP) =  -2782.69168809     A.U. after   12 cycles
 SCF Done:  E(RB3LYP) =  -2782.69236077     A.U. after   12 cycles
 SCF Done:  E(RB3LYP) =  -2782.69249076     A.U. after   11 cycles
 SCF Done:  E(RB3LYP) =  -2782.69254752     A.U. after   11 cycles
 SCF Done:  E(RB3LYP) =  -2782.69257103     A.U. after   11 cycles
 SCF Done:  E(RB3LYP) =  -2782.69257896     A.U. after   10 cycles
 SCF Done:  E(RB3LYP) =  -2782.69258272     A.U. after   10 cycles
 SCF Done:  E(RB3LYP) =  -2782.69258354     A.U. after    9 cycles
 SCF Done:  E(RB3LYP) =  -2782.69258363     A.U. after    7 cycles
 SCF Done:  E(RB3LYP) =  -2782.69258364     A.U. after    6 cycles
 Optimization completed on the basis of negligible forces.
    -- Stationary point found.

                         Standard orientation:
 ---------------------------------------------------------------------
 Center     Atomic      Atomic             Coordinates (Angstroms)
 Number     Number       Type             X           Y           Z
 ---------------------------------------------------------------------
      1          6           0        3.590394    2.070494   -2.918781
      2          6           0        3.487350    2.587900   -1.450345
      3          6           0        4.593919    3.621976   -1.221550
      4          6           0        5.976667    3.469351   -1.238705
      5          6           0        6.792965    4.600385   -1.105019
      6          6           0        6.231203    5.874312   -0.988010
      7          6           0        4.844134    6.042462   -1.007792
      8          6           0        4.026940    4.918097   -1.125874
      9          6           0        2.558806    4.803680   -1.165841
     10          6           0        1.512423    5.725801   -1.075751
     11          6           0        0.203990    5.227440   -1.067600
     12          6           0       -0.077535    3.855082   -1.072593
     13          6           0        0.983390    2.933152   -1.131124
     14          6           0        2.264901    3.443881   -1.273827
     15          7           0        0.877994    1.531488   -0.983335
     16          6           0       -0.425905    0.931272   -0.938438
     17          6           0       -0.908735    0.246665   -2.056344
     18          6           0       -2.175411   -0.333160   -2.034151
     19          6           0       -2.995048   -0.248527   -0.895357
     20          6           0       -4.345688   -0.864160   -0.872755
     21          6           0       -4.579703   -2.105169   -1.510273
     22          6           0       -5.827959   -2.717924   -1.510544
     23          6           0       -6.874948   -2.071194   -0.848945
     24          6           0       -6.677163   -0.819912   -0.212044
     25          6           0       -5.412730   -0.227428   -0.225885
     26          6           0       -7.960420   -0.418094    0.328160
     27          6           0       -8.389551    0.690614    1.061679
     28          6           0       -9.723642    0.784581    1.477368
     29          6           0      -10.197417    1.958309    2.254956
     30          6           0      -11.121349    1.808857    3.303719
     31          6           0      -11.563923    2.910861    4.034016
     32          6           0      -11.090125    4.189718    3.735655
     33          6           0      -10.170991    4.354862    2.697913
     34          6           0       -9.732506    3.252826    1.965268
     35          6           0      -10.612965   -0.264488    1.145611
     36          6           0      -10.212622   -1.379396    0.416925
     37          6           0       -8.880496   -1.445192    0.001575
     38          7           0       -8.214585   -2.446156   -0.714457
     39          6           0       -8.800976   -3.638557   -1.221204
     40          6           0       -8.275048   -4.886256   -0.863469
     41          6           0       -8.846748   -6.052736   -1.371127
     42          6           0       -9.953979   -5.984164   -2.219002
     43          6           0      -10.483328   -4.739700   -2.566462
     44          6           0       -9.905600   -3.567548   -2.079178
     45          6           0       -2.493732    0.441457    0.222965
     46          6           0       -1.229249    1.025035    0.204267
     47          6           0        1.993349    0.842759   -0.424742
     48          6           0        1.820223   -0.369003    0.261208
     49          6           0        2.897378   -1.001817    0.875156
     50          6           0        4.184687   -0.451311    0.835302
     51          6           0        5.313782   -1.077632    1.574166
     52          6           0        5.160297   -1.350178    2.939615
     53          6           0        6.198812   -1.890210    3.710574
     54          6           0        7.440949   -2.169094    3.150890
     55          6           0        7.604919   -1.907152    1.788626
     56          6           0        6.557898   -1.390162    0.978030
     57          6           0        7.074289   -1.354665   -0.383002
     58          6           0        6.536560   -1.008387   -1.632700
     59          6           0        7.334032   -1.093863   -2.770598
     60          6           0        8.670295   -1.518108   -2.682940
     61          6           0        9.227377   -1.887398   -1.462028
     62          6           0        8.415320   -1.819134   -0.326199
     63          7           0        8.729843   -2.146387    0.994234
     64          6           0        9.972020   -2.665834    1.450536
     65          6           0       10.684733   -1.998749    2.454922
     66          6           0       11.898387   -2.515615    2.907837
     67          6           0       12.417752   -3.686097    2.351137
     68          6           0       11.711062   -4.345367    1.343379
     69          6           0       10.487216   -3.845615    0.898667
     70          6           0        4.355149    0.745861    0.123513
     71          6           0        3.303813    1.384389   -0.529879
     72          1           0        3.605003    2.911024   -3.620448
     73          1           0        4.510563    1.490218   -3.048780
     74          1           0        2.739125    1.426248   -3.160371
     75          1           0        6.432321    2.490519   -1.362869
     76          1           0        7.873331    4.483505   -1.097996
     77          1           0        6.877815    6.742373   -0.889628
     78          1           0        4.410740    7.036666   -0.933029
     79          1           0        1.695382    6.794364   -1.007322
     80          1           0       -0.628786    5.924176   -1.015268
     81          1           0       -1.104416    3.514755   -1.001487
     82          1           0       -0.288304    0.183691   -2.945443
     83          1           0       -2.545532   -0.835328   -2.923271
     84          1           0       -3.750413   -2.611128   -1.995857
     85          1           0       -5.976832   -3.671137   -2.006710
     86          1           0       -5.262964    0.743380    0.238461
     87          1           0       -7.681976    1.467847    1.336822
     88          1           0      -11.475243    0.815275    3.564976
     89          1           0      -12.273253    2.767983    4.845232
     90          1           0      -11.433926    5.048680    4.305568
     91          1           0       -9.801480    5.346571    2.449741
     92          1           0       -9.040037    3.397461    1.140466
     93          1           0      -11.652447   -0.186037    1.450277
     94          1           0      -10.918621   -2.167547    0.177210
     95          1           0       -7.430781   -4.934158   -0.182717
     96          1           0       -8.432849   -7.017495   -1.091098
     97          1           0      -10.401643   -6.894905   -2.606479
     98          1           0      -11.341128   -4.677778   -3.230416
     99          1           0      -10.296423   -2.596397   -2.366568
    100          1           0       -3.092228    0.497686    1.127701
    101          1           0       -0.851396    1.544806    1.079985
    102          1           0        0.834150   -0.812782    0.331826
    103          1           0        2.732395   -1.939467    1.398856
    104          1           0        4.215314   -1.103784    3.414949
    105          1           0        6.034332   -2.081447    4.767621
    106          1           0        8.247427   -2.584883    3.745294
    107          1           0        5.505611   -0.684249   -1.713284
    108          1           0        6.917111   -0.829443   -3.738467
    109          1           0        9.280371   -1.564802   -3.581052
    110          1           0       10.257953   -2.219932   -1.394168
    111          1           0       10.286766   -1.076466    2.866682
    112          1           0       12.444730   -1.993723    3.688739
    113          1           0       13.367140   -4.082049    2.700537
    114          1           0       12.105519   -5.260088    0.909339
    115          1           0        9.921299   -4.366737    0.132800
    116          1           0        5.342185    1.193432    0.083211
 ---------------------------------------------------------------------

 The electronic state is 1-A.
 Alpha  occ. eigenvalues --  -14.38866 -14.37682 -14.36708 -10.24480 -10.23734
 Alpha  occ. eigenvalues --  -10.23042 -10.22907 -10.22749 -10.22697 -10.22206
 Alpha  occ. eigenvalues --  -10.21920 -10.21873 -10.20595 -10.20591 -10.20531
 Alpha  occ. eigenvalues --  -10.20526 -10.20524 -10.20343 -10.20317 -10.19981
 Alpha  occ. eigenvalues --  -10.19974 -10.19870 -10.19864 -10.19785 -10.19762
 Alpha  occ. eigenvalues --  -10.19649 -10.19602 -10.19594 -10.19522 -10.19500
 Alpha  occ. eigenvalues --  -10.19477 -10.19461 -10.19460 -10.19405 -10.19372
 Alpha  occ. eigenvalues --  -10.19331 -10.19311 -10.19171 -10.19133 -10.19120
 Alpha  occ. eigenvalues --  -10.19074 -10.18746 -10.18732 -10.18680 -10.18619
 Alpha  occ. eigenvalues --  -10.18585 -10.18572 -10.18558 -10.18472 -10.18450
 Alpha  occ. eigenvalues --  -10.18402 -10.18362 -10.18301 -10.18284 -10.18271
 Alpha  occ. eigenvalues --  -10.18256 -10.18228 -10.18209 -10.18192 -10.18181
 Alpha  occ. eigenvalues --  -10.18130 -10.18028 -10.18022 -10.17978 -10.17908
 Alpha  occ. eigenvalues --  -10.17853 -10.17706 -10.17563 -10.17372 -10.17340
 Alpha  occ. eigenvalues --  -10.17321  -0.99575  -0.98551  -0.96586  -0.88214
 Alpha  occ. eigenvalues --   -0.87694  -0.86819  -0.86544  -0.85964  -0.85300
 Alpha  occ. eigenvalues --   -0.84437  -0.83998  -0.83700  -0.83474  -0.82818
 Alpha  occ. eigenvalues --   -0.80276  -0.79614  -0.78052  -0.77911  -0.76736
 Alpha  occ. eigenvalues --   -0.76614  -0.76189  -0.76039  -0.75536  -0.75269
 Alpha  occ. eigenvalues --   -0.75164  -0.74570  -0.74124  -0.73704  -0.73319
 Alpha  occ. eigenvalues --   -0.73107  -0.72345  -0.71478  -0.71000  -0.70940
 Alpha  occ. eigenvalues --   -0.70885  -0.70426  -0.68937  -0.65558  -0.64324
 Alpha  occ. eigenvalues --   -0.64008  -0.63728  -0.62871  -0.62633  -0.62085
 Alpha  occ. eigenvalues --   -0.61939  -0.61476  -0.61391  -0.60665  -0.60269
 Alpha  occ. eigenvalues --   -0.59983  -0.59426  -0.59305  -0.58029  -0.57767
 Alpha  occ. eigenvalues --   -0.57384  -0.57140  -0.57090  -0.56522  -0.56146
 Alpha  occ. eigenvalues --   -0.54374  -0.54221  -0.53038  -0.52885  -0.52218
 Alpha  occ. eigenvalues --   -0.52158  -0.51989  -0.50846  -0.50610  -0.50504
 Alpha  occ. eigenvalues --   -0.49735  -0.48941  -0.48722  -0.47807  -0.47415
 Alpha  occ. eigenvalues --   -0.47082  -0.46761  -0.46689  -0.46391  -0.46348
 Alpha  occ. eigenvalues --   -0.45908  -0.45491  -0.45344  -0.44865  -0.44664
 Alpha  occ. eigenvalues --   -0.44560  -0.44547  -0.44066  -0.43938  -0.43837
 Alpha  occ. eigenvalues --   -0.43673  -0.43430  -0.43313  -0.43090  -0.43038
 Alpha  occ. eigenvalues --   -0.42656  -0.42573  -0.42392  -0.42336  -0.42190
 Alpha  occ. eigenvalues --   -0.41977  -0.41966  -0.41529  -0.41480  -0.41411
 Alpha  occ. eigenvalues --   -0.41065  -0.40949  -0.40911  -0.40525  -0.39970
 Alpha  occ. eigenvalues --   -0.38518  -0.38347  -0.38220  -0.37782  -0.37676
 Alpha  occ. eigenvalues --   -0.37494  -0.37280  -0.37224  -0.37078  -0.36814
 Alpha  occ. eigenvalues --   -0.36606  -0.36288  -0.36251  -0.36146  -0.35966
 Alpha  occ. eigenvalues --   -0.35664  -0.35471  -0.35388  -0.35185  -0.35010
 Alpha  occ. eigenvalues --   -0.34716  -0.34557  -0.34342  -0.34231  -0.33774
 Alpha  occ. eigenvalues --   -0.33457  -0.33322  -0.33167  -0.33089  -0.32777
 Alpha  occ. eigenvalues --   -0.32685  -0.31978  -0.31463  -0.31127  -0.30358
 Alpha  occ. eigenvalues --   -0.28683  -0.27516  -0.27334  -0.26922  -0.26815
 Alpha  occ. eigenvalues --   -0.26544  -0.25985  -0.25772  -0.25751  -0.25006
 Alpha  occ. eigenvalues --   -0.24833  -0.24689  -0.23885  -0.23612  -0.23511
 Alpha  occ. eigenvalues --   -0.23041  -0.21341  -0.20837  -0.20619  -0.19544
 Alpha  occ. eigenvalues --   -0.19456  -0.18108
 Alpha virt. eigenvalues --   -0.03346  -0.03036  -0.02780  -0.02406  -0.02261
 Alpha virt. eigenvalues --   -0.01674  -0.01448  -0.01104  -0.01032  -0.00944
 Alpha virt. eigenvalues --   -0.00025   0.00209   0.00595   0.00871   0.01843

 Mulliken charges:
               1
     1  C   -0.428406
     2  C   -0.136441
     3  C    0.110071
     4  C   -0.213463
     5  C   -0.134477
     6  C   -0.135002
     7  C   -0.195307
     8  C    0.071196
     9  C    0.102479
    10  C   -0.203371
    11  C   -0.143275
    12  C   -0.182550
    13  C    0.320292
    14  C   -0.016958
    15  N   -0.713094
    16  C    0.210925
    17  C   -0.133744
    18  C   -0.193203
    19  C    0.103124
    20  C    0.080861
    21  C   -0.192836
    22  C   -0.177350
    23  C    0.319253
    24  C    0.063315
    25  C   -0.256452
    26  C    0.065433
    27  C   -0.257193
    28  C    0.083168
    29  C    0.088497
    30  C   -0.175916
    31  C   -0.134065
    32  C   -0.127805
    33  C   -0.134297
    34  C   -0.173785
    35  C   -0.192435
    36  C   -0.177626
    37  C    0.317143
    38  N   -0.739395
    39  C    0.261779
    40  C   -0.149204
    41  C   -0.142639
    42  C   -0.120656
    43  C   -0.142667
    44  C   -0.148778
    45  C   -0.190955
    46  C   -0.139966
    47  C    0.302443
    48  C   -0.190222
    49  C   -0.184250
    50  C    0.085278
    51  C    0.021180
    52  C   -0.188056
    53  C   -0.142857
    54  C   -0.177996
    55  C    0.310351
    56  C    0.000744
    57  C    0.053961
    58  C   -0.211258
    59  C   -0.151362
    60  C   -0.141581
    61  C   -0.179753
    62  C    0.309671
    63  N   -0.728906
    64  C    0.259179
    65  C   -0.146937
    66  C   -0.142980
    67  C   -0.121112
    68  C   -0.143219
    69  C   -0.146795
    70  C   -0.267020
    71  C    0.118733
    72  H    0.154137
    73  H    0.152226
    74  H    0.153866
    75  H    0.145388
    76  H    0.128317
    77  H    0.126197
    78  H    0.128331
    79  H    0.122809
    80  H    0.124494
    81  H    0.138423
    82  H    0.143591
    83  H    0.138253
    84  H    0.132892
    85  H    0.143703
    86  H    0.136268
    87  H    0.135642
    88  H    0.130008
    89  H    0.128809
    90  H    0.128143
    91  H    0.129227
    92  H    0.130289
    93  H    0.132734
    94  H    0.142509
    95  H    0.153208
    96  H    0.140572
    97  H    0.137338
    98  H    0.140548
    99  H    0.153609
   100  H    0.139413
   101  H    0.150359
   102  H    0.145263
   103  H    0.131530
   104  H    0.126051
   105  H    0.125956
   106  H    0.137734
   107  H    0.154800
   108  H    0.122422
   109  H    0.124750
   110  H    0.137893
   111  H    0.152646
   112  H    0.138195
   113  H    0.134699
   114  H    0.137969
   115  H    0.152988
   116  H    0.144338
 Sum of Mulliken charges =  -0.00000

 Dipole moment (field-independent basis, Debye):
    X=             -1.7316    Y=             -3.4571    Z=             -0.2115  Tot=              3.8723
 Quadrupole moment (field-independent basis, Debye-Ang):
   XX=           -326.1458   YY=           -371.7977   ZZ=           -392.2499
   XY=              7.7399   XZ=             15.0822   YZ=              8.9753

 1\1\GINC-NODE13\FOpt\RB3LYP\6-31G(d)\C68H45N3\WYKGROUP\05-Nov-2022\0\\
 #p b3lyp/6-31g(d) opt SCF=XQC\\Gaussian input prepared by ASE\\0,1\C,3
 .4582587715,3.6946968208,-0.2783892774\C,3.3598528034,2.9033258003,1.0
 627594256\C,4.4284802915,3.4379604521,2.0210688372\C,5.8156824636,3.40
 5827131,1.9199872626\C,6.5888633728,4.0644208564,2.8853365932\C,5.9793
 347764,4.7748811565,3.9225817794\C,4.586574997,4.8450571082,4.01158052
 31\C,3.8125008432,4.1788164338,3.0613820624\C,2.3495590189,4.079092591
 4,2.9200948491\C,1.2692830455,4.5646320954,3.6621167211\C,-0.018135337

 Normal termination of Gaussian 16 at Sat Nov  5 02:40:07 2022.
