 Gaussian 16, Revision B.01,
 Gaussian 16:  ES64L-G16RevB.01 20-Dec-2017

 -----------------------------
 #p b3lyp/6-31g(d) opt SCF=XQC
 -----------------------------

 ------------------------------
 Gaussian input prepared by ASE
 ------------------------------
 Symbolic Z-matrix:
 Charge =  0 Multiplicity = 1

 SCF Done:  E(RB3LYP) =  -2281.27805442     A.U. after   14 cycles
 SCF Done:  E(RB3LYP) =  -2281.28847626     A.U. after   12 cycles
 SCF Done:  E(RB3LYP) =  -2281.28909125     A.U. after   12 cycles
 SCF Done:  E(RB3LYP) =  -2281.28932802     A.U. after   11 cycles
 SCF Done:  E(RB3LYP) =  -2281.28935900     A.U. after   11 cycles
 SCF Done:  E(RB3LYP) =  -2281.28936709     A.U. after   10 cycles
 SCF Done:  E(RB3LYP) =  -2281.28936956     A.U. after    9 cycles
 SCF Done:  E(RB3LYP) =  -2281.28937048     A.U. after    9 cycles
 SCF Done:  E(RB3LYP) =  -2281.28937070     A.U. after    7 cycles
 SCF Done:  E(RB3LYP) =  -2281.28937075     A.U. after    7 cycles
 Optimization completed.
    -- Stationary point found.

                         Standard orientation:
 ---------------------------------------------------------------------
 Center     Atomic      Atomic             Coordinates (Angstroms)
 Number     Number       Type             X           Y           Z
 ---------------------------------------------------------------------
      1          6           0      -12.837984   -2.941336    0.343369
      2          6           0      -12.899568   -4.299458    0.028941
      3          7           0      -11.818794   -5.036545   -0.255867
      4          6           0      -10.633210   -4.422046   -0.237271
      5          6           0      -10.443973   -3.058408    0.051469
      6          6           0       -9.093451   -2.450139    0.044147
      7          6           0       -8.734195   -1.467658    0.982048
      8          6           0       -7.466264   -0.895976    0.975829
      9          6           0       -6.498225   -1.282400    0.033001
     10          6           0       -5.146417   -0.674339    0.025759
     11          6           0       -4.007257   -1.435111   -0.292281
     12          6           0       -2.739605   -0.866375   -0.298963
     13          6           0       -2.556398    0.492523    0.003955
     14          6           0       -1.193947    1.080909   -0.021155
     15          6           0       -0.972086    2.461068   -0.114416
     16          6           0        0.352682    2.913782   -0.128433
     17          6           0        0.652392    4.373592   -0.159601
     18          6           0       -0.037010    5.180735    0.703980
     19          6           0        0.188362    6.589304    0.793655
     20          6           0       -0.533851    7.375579    1.722178
     21          6           0       -0.316678    8.734941    1.821279
     22          6           0        0.639818    9.344950    0.988014
     23          6           0        1.357691    8.593580    0.074729
     24          6           0        1.156135    7.199189   -0.053632
     25          6           0        1.882443    6.365415   -1.003633
     26          6           0        2.828569    6.913362   -1.901687
     27          6           0        3.502380    6.127282   -2.816269
     28          6           0        3.250406    4.746470   -2.872907
     29          6           0        2.335815    4.176935   -2.008709
     30          6           0        1.638153    4.956509   -1.054134
     31          7           0        1.377932    2.049161   -0.080859
     32          6           0        1.080287    0.740227   -0.009143
     33          6           0        2.220798   -0.210021    0.040823
     34          6           0        3.543381    0.258347   -0.012835
     35          6           0        4.612353   -0.630015    0.033157
     36          6           0        4.400231   -2.016498    0.134391
     37          6           0        5.532607   -2.984791    0.122706
     38          6           0        5.547212   -3.965451   -0.831139
     39          6           0        6.613786   -4.910723   -0.954743
     40          6           0        6.589610   -5.894080   -1.972002
     41          6           0        7.623621   -6.797735   -2.112136
     42          6           0        8.720362   -6.737956   -1.231805
     43          6           0        8.764264   -5.784116   -0.230807
     44          6           0        7.718598   -4.846884   -0.058576
     45          6           0        7.712392   -3.833214    0.988433
     46          6           0        8.754329   -3.734082    1.940371
     47          6           0        8.727869   -2.794482    2.953508
     48          6           0        7.639206   -1.913463    3.064474
     49          6           0        6.607729   -1.978664    2.147847
     50          6           0        6.619776   -2.914591    1.084761
     51          6           0        3.074146   -2.477250    0.186953
     52          6           0        2.001942   -1.591676    0.142459
     53          7           0       -0.158011    0.226152    0.027123
     54          6           0       -3.690263    1.254434    0.328325
     55          6           0       -4.957775    0.682480    0.339676
     56          6           0       -6.858007   -2.266169   -0.903832
     57          6           0       -8.126973   -2.836069   -0.899895
     58          6           0      -11.595232   -2.314781    0.351187
     59          1           0      -13.745052   -2.386426    0.564683
     60          1           0      -13.855563   -4.819783    0.004042
     61          1           0       -9.770101   -5.052580   -0.445110
     62          1           0       -9.445810   -1.172583    1.748371
     63          1           0       -7.210170   -0.164767    1.737284
     64          1           0       -4.115748   -2.493412   -0.511897
     65          1           0       -1.868871   -1.467438   -0.535322
     66          1           0       -1.788622    3.164941   -0.214556
     67          1           0       -0.763165    4.741141    1.383277
     68          1           0       -1.265783    6.886556    2.360857
     69          1           0       -0.876364    9.330369    2.537163
     70          1           0        0.819072   10.414119    1.062281
     71          1           0        2.089070    9.097078   -0.547479
     72          1           0        3.031446    7.978257   -1.884849
     73          1           0        4.221846    6.580401   -3.492921
     74          1           0        3.771958    4.124776   -3.595425
     75          1           0        2.153906    3.111021   -2.048201
     76          1           0        3.718321    1.325231   -0.095478
     77          1           0        5.627699   -0.248620   -0.027459
     78          1           0        4.736951   -4.015846   -1.554443
     79          1           0        5.737027   -5.923802   -2.646514
     80          1           0        7.593905   -7.548873   -2.896660
     81          1           0        9.539449   -7.444161   -1.337752
     82          1           0        9.624955   -5.765628    0.428698
     83          1           0        9.596688   -4.414836    1.887324
     84          1           0        9.544450   -2.747430    3.668945
     85          1           0        7.603127   -1.186842    3.871555
     86          1           0        5.761842   -1.308020    2.246682
     87          1           0        2.888538   -3.543872    0.278812
     88          1           0        0.983314   -1.959104    0.194647
     89          1           0       -3.588275    2.303311    0.589654
     90          1           0       -5.817911    1.302729    0.574683
     91          1           0       -6.146154   -2.562454   -1.668932
     92          1           0       -8.383441   -3.566625   -1.661796
     93          1           0      -11.516295   -1.252134    0.564535
 ---------------------------------------------------------------------

 The electronic state is 1-A.
 Alpha  occ. eigenvalues --  -14.33268 -14.33190 -14.33155 -10.26230 -10.24874
 Alpha  occ. eigenvalues --  -10.24785 -10.22409 -10.22390 -10.21143 -10.21091
 Alpha  occ. eigenvalues --  -10.21053 -10.21006 -10.20891 -10.20694 -10.20683
 Alpha  occ. eigenvalues --  -10.20530 -10.20419 -10.20374 -10.20274 -10.20256
 Alpha  occ. eigenvalues --  -10.20221 -10.20214 -10.20043 -10.20010 -10.19975
 Alpha  occ. eigenvalues --  -10.19967 -10.19952 -10.19946 -10.19910 -10.19900
 Alpha  occ. eigenvalues --  -10.19865 -10.19854 -10.19843 -10.19748 -10.19592
 Alpha  occ. eigenvalues --  -10.19591 -10.19571 -10.19545 -10.19479 -10.19446
 Alpha  occ. eigenvalues --  -10.19412 -10.19111 -10.19042 -10.18957 -10.18908
 Alpha  occ. eigenvalues --  -10.18883 -10.18871 -10.18841 -10.18821 -10.18758
 Alpha  occ. eigenvalues --  -10.18746 -10.18732 -10.18726 -10.18679 -10.18645
 Alpha  occ. eigenvalues --  -10.18585 -10.18579 -10.18464  -0.98635  -0.94190
 Alpha  occ. eigenvalues --   -0.89889  -0.88253  -0.88032  -0.87659  -0.86084
 Alpha  occ. eigenvalues --   -0.85601  -0.84788  -0.84316  -0.82682  -0.81667
 Alpha  occ. eigenvalues --   -0.81058  -0.79816  -0.78541  -0.77638  -0.77358
 Alpha  occ. eigenvalues --   -0.76437  -0.75889  -0.75836  -0.75553  -0.75093
 Alpha  occ. eigenvalues --   -0.74392  -0.74031  -0.72995  -0.72431  -0.71956
 Alpha  occ. eigenvalues --   -0.71887  -0.71018  -0.66842  -0.66532  -0.64450
 Alpha  occ. eigenvalues --   -0.64069  -0.63234  -0.62857  -0.62749  -0.62286
 Alpha  occ. eigenvalues --   -0.61769  -0.61498  -0.60756  -0.60460  -0.59739
 Alpha  occ. eigenvalues --   -0.59203  -0.58525  -0.57898  -0.57748  -0.57270
 Alpha  occ. eigenvalues --   -0.54454  -0.53751  -0.53492  -0.52995  -0.52738
 Alpha  occ. eigenvalues --   -0.52453  -0.51491  -0.51414  -0.50066  -0.49257
 Alpha  occ. eigenvalues --   -0.48824  -0.48704  -0.47988  -0.47815  -0.47591
 Alpha  occ. eigenvalues --   -0.47434  -0.47339  -0.46847  -0.46237  -0.44912
 Alpha  occ. eigenvalues --   -0.44792  -0.44620  -0.44460  -0.44396  -0.43899
 Alpha  occ. eigenvalues --   -0.43577  -0.43306  -0.43185  -0.42879  -0.42678
 Alpha  occ. eigenvalues --   -0.42543  -0.42427  -0.42334  -0.42213  -0.41963
 Alpha  occ. eigenvalues --   -0.41789  -0.41549  -0.41267  -0.40522  -0.40470
 Alpha  occ. eigenvalues --   -0.40102  -0.39921  -0.39854  -0.39435  -0.39293
 Alpha  occ. eigenvalues --   -0.38843  -0.38512  -0.37172  -0.36873  -0.36572
 Alpha  occ. eigenvalues --   -0.36500  -0.36336  -0.36129  -0.35875  -0.35800
 Alpha  occ. eigenvalues --   -0.35764  -0.35468  -0.35199  -0.34881  -0.34249
 Alpha  occ. eigenvalues --   -0.33948  -0.33663  -0.32914  -0.32867  -0.32731
 Alpha  occ. eigenvalues --   -0.31826  -0.31661  -0.30858  -0.29975  -0.29724
 Alpha  occ. eigenvalues --   -0.29298  -0.28358  -0.28021  -0.27920  -0.26308
 Alpha  occ. eigenvalues --   -0.26131  -0.26022  -0.25957  -0.25588  -0.25417
 Alpha  occ. eigenvalues --   -0.24844  -0.24655  -0.23641  -0.22532  -0.22139
 Alpha  occ. eigenvalues --   -0.22043  -0.21462  -0.20459
 Alpha virt. eigenvalues --   -0.06879  -0.05870  -0.04580  -0.03487  -0.03448
 Alpha virt. eigenvalues --   -0.03021  -0.02901  -0.02311  -0.01335  -0.00793
 Alpha virt. eigenvalues --   -0.00341   0.00307   0.00838   0.00957   0.02508

 Mulliken charges:
               1
     1  C   -0.144485
     2  C    0.041071
     3  N   -0.411087
     4  C   -0.000843
     5  C    0.068089
     6  C    0.093841
     7  C   -0.180694
     8  C   -0.179600
     9  C    0.095418
    10  C    0.101509
    11  C   -0.182903
    12  C   -0.163485
    13  C    0.097065
    14  C    0.281955
    15  C   -0.217517
    16  C    0.226728
    17  C    0.073534
    18  C   -0.268373
    19  C    0.147590
    20  C   -0.202478
    21  C   -0.130831
    22  C   -0.135339
    23  C   -0.192066
    24  C    0.074639
    25  C    0.044956
    26  C   -0.191170
    27  C   -0.133340
    28  C   -0.131917
    29  C   -0.195500
    30  C    0.103908
    31  N   -0.528026
    32  C    0.439192
    33  C    0.081634
    34  C   -0.174210
    35  C   -0.179482
    36  C    0.069148
    37  C    0.035611
    38  C   -0.263887
    39  C    0.150754
    40  C   -0.204429
    41  C   -0.130396
    42  C   -0.137427
    43  C   -0.191648
    44  C    0.069614
    45  C    0.049211
    46  C   -0.190260
    47  C   -0.135451
    48  C   -0.128490
    49  C   -0.219252
    50  C    0.102380
    51  C   -0.175847
    52  C   -0.170516
    53  N   -0.557838
    54  C   -0.179188
    55  C   -0.186258
    56  C   -0.180270
    57  C   -0.180161
    58  C   -0.139909
    59  H    0.139466
    60  H    0.143443
    61  H    0.145190
    62  H    0.135255
    63  H    0.136869
    64  H    0.138366
    65  H    0.162854
    66  H    0.153627
    67  H    0.135098
    68  H    0.130776
    69  H    0.132499
    70  H    0.132264
    71  H    0.136913
    72  H    0.133262
    73  H    0.130576
    74  H    0.132334
    75  H    0.153891
    76  H    0.164405
    77  H    0.142477
    78  H    0.134854
    79  H    0.130547
    80  H    0.130080
    81  H    0.129237
    82  H    0.133917
    83  H    0.132819
    84  H    0.129128
    85  H    0.130668
    86  H    0.149385
    87  H    0.135136
    88  H    0.156731
    89  H    0.133479
    90  H    0.135717
    91  H    0.139258
    92  H    0.141059
    93  H    0.145147
 Sum of Mulliken charges =  -0.00000

 Dipole moment (field-independent basis, Debye):
    X=             -1.1941    Y=              3.2764    Z=              0.2746  Tot=              3.4980
 Quadrupole moment (field-independent basis, Debye-Ang):
   XX=           -298.7795   YY=           -309.7528   ZZ=           -321.7591
   XY=            -29.5060   XZ=            -11.3665   YZ=             10.1393

 1\1\GINC-NODE83\FOpt\RB3LYP\6-31G(d)\C55H35N3\WYKGROUP\05-Nov-2022\0\\
 #p b3lyp/6-31g(d) opt SCF=XQC\\Gaussian input prepared by ASE\\0,1\C,1
 2.5551885509,-3.8367472495,-1.2044322989\C,12.4944042855,-5.2282351081
 ,-1.2894008482\N,11.3490378665,-5.9182406936,-1.2222246543\C,10.220602
 7092,-5.2223418028,-1.0612200354\C,10.1541385152,-3.8216930848,-0.9496
 151423\C,8.8603105695,-3.1246503313,-0.7649658485\C,8.6061362456,-1.88
 90212599,-1.3835186313\C,7.3914983922,-1.2338359187,-1.2106155253\C,6.
 373997027,-1.7854393358,-0.4132617379\C,5.0788721809,-1.0884601709,-0.

 Normal termination of Gaussian 16 at Sat Nov  5 01:29:53 2022.
