 Gaussian 16, Revision B.01,
 Gaussian 16:  ES64L-G16RevB.01 20-Dec-2017

 -------------------------------------------------------------------
 #p b3lyp/6-31g(d) 6D 10F nosymm GFInput td=(50-50,nstate=2) SCF=XQC
 -------------------------------------------------------------------

 ------------------------------
 Gaussian input prepared by ASE
 ------------------------------
 Symbolic Z-matrix:
 Charge =  0 Multiplicity = 1

                          Input orientation:
 ---------------------------------------------------------------------
 Center     Atomic      Atomic             Coordinates (Angstroms)
 Number     Number       Type             X           Y           Z
 ---------------------------------------------------------------------
      1          6           0       12.555189   -3.836747   -1.204432
      2          6           0       12.494404   -5.228235   -1.289401
      3          7           0       11.349038   -5.918241   -1.222225
      4          6           0       10.220603   -5.222342   -1.061220
      5          6           0       10.154139   -3.821693   -0.949615
      6          6           0        8.860311   -3.124650   -0.764966
      7          6           0        8.606136   -1.889021   -1.383519
      8          6           0        7.391498   -1.233836   -1.210616
      9          6           0        6.373997   -1.785439   -0.413262
     10          6           0        5.078872   -1.088460   -0.228743
     11          6           0        3.872616   -1.805395   -0.136241
     12          6           0        2.657995   -1.153179    0.036267
     13          6           0        2.597442    0.246435    0.132911
     14          6           0        1.289658    0.920492    0.329002
     15          6           0        1.183845    2.231452    0.811646
     16          6           0       -0.097683    2.775794    0.958390
     17          6           0       -0.272940    4.187242    1.404424
     18          6           0        0.501014    5.142535    0.803644
     19          6           0        0.398068    6.532807    1.118996
     20          6           0        1.204338    7.483716    0.449908
     21          6           0        1.105585    8.828953    0.742203
     22          6           0        0.186570    9.258948    1.717827
     23          6           0       -0.612082    8.345312    2.382217
     24          6           0       -0.532493    6.959695    2.108067
     25          6           0       -1.347338    5.957697    2.784254
     26          6           0       -2.262692    6.309146    3.804308
     27          6           0       -3.020428    5.358139    4.459918
     28          6           0       -2.887912    4.001412    4.120695
     29          6           0       -2.006536    3.622508    3.127068
     30          6           0       -1.224731    4.576554    2.431184
     31          7           0       -1.191389    2.053390    0.670451
     32          6           0       -1.004501    0.797700    0.228455
     33          6           0       -2.220244    0.004297   -0.085730
     34          6           0       -3.499123    0.552156    0.103464
     35          6           0       -4.638432   -0.189541   -0.189559
     36          6           0       -4.542686   -1.503427   -0.681612
     37          6           0       -5.753190   -2.332256   -0.941850
     38          6           0       -5.871629   -3.537932   -0.306204
     39          6           0       -7.017047   -4.382275   -0.452825
     40          6           0       -7.098453   -5.611904    0.242716
     41          6           0       -8.208256   -6.424045    0.123665
     42          6           0       -9.276682   -6.021296   -0.699534
     43          6           0       -9.217785   -4.822738   -1.387811
     44          6           0       -8.092826   -3.970454   -1.290023
     45          6           0       -7.977938   -2.706101   -2.005571
     46          6           0       -8.986883   -2.250267   -2.886419
     47          6           0       -8.858841   -1.068027   -3.590626
     48          6           0       -7.697149   -0.290558   -3.450236
     49          6           0       -6.694979   -0.703062   -2.593557
     50          6           0       -6.809431   -1.897220   -1.840469
     51          6           0       -3.259696   -2.044630   -0.867600
     52          6           0       -2.117371   -1.305454   -0.576818
     53          7           0        0.186160    0.208642    0.043229
     54          6           0        3.798657    0.966717    0.034682
     55          6           0        5.012966    0.312764   -0.143217
     56          6           0        6.628609   -3.022042    0.203900
     57          6           0        7.844380   -3.676263    0.033687
     58          6           0       11.370596   -3.127386   -1.029469
     59          1           0       13.510675   -3.323505   -1.261942
     60          1           0       13.401996   -5.815887   -1.416791
     61          1           0        9.302776   -5.807829   -1.038286
     62          1           0        9.356629   -1.452249   -2.036747
     63          1           0        7.214939   -0.297225   -1.731817
     64          1           0        3.886069   -2.887792   -0.227011
     65          1           0        1.734459   -1.717942    0.094950
     66          1           0        2.054852    2.803720    1.104990
     67          1           0        1.201719    4.851787    0.024884
     68          1           0        1.905722    7.133741   -0.303986
     69          1           0        1.729150    9.551547    0.223265
     70          1           0        0.100410   10.316703    1.951279
     71          1           0       -1.311330    8.713732    3.124435
     72          1           0       -2.373990    7.348603    4.091683
     73          1           0       -3.713265    5.661967    5.239965
     74          1           0       -3.475865    3.248516    4.638392
     75          1           0       -1.916703    2.577489    2.861194
     76          1           0       -3.584570    1.562858    0.486682
     77          1           0       -5.618792    0.246388   -0.019487
     78          1           0       -5.084391   -3.862107    0.370109
     79          1           0       -6.266247   -5.906207    0.877985
     80          1           0       -8.259394   -7.366406    0.662096
     81          1           0      -10.154881   -6.654007   -0.795955
     82          1           0      -10.059347   -4.542708   -2.011858
     83          1           0       -9.884960   -2.841635   -3.026238
     84          1           0       -9.652828   -0.748721   -4.260325
     85          1           0       -7.582063    0.629026   -4.017493
     86          1           0       -5.793257   -0.108673   -2.500522
     87          1           0       -3.163400   -3.053403   -1.259617
     88          1           0       -1.132738   -1.730723   -0.734849
     89          1           0        3.791783    2.051373    0.082759
     90          1           0        5.927545    0.896394   -0.195112
     91          1           0        5.877803   -3.459602    0.855612
     92          1           0        8.021359   -4.612409    0.555501
     93          1           0       11.386817   -2.045204   -0.931557
 ---------------------------------------------------------------------

 SCF Done:  E(RB3LYP) =  -2281.28937267     A.U. after   14 cycles

 Excitation energies and oscillator strengths:

 Excited state symmetry could not be determined.
 Excited State   1:      Triplet-?Sym    2.5911 eV  478.50 nm  f=0.0000  <S**2>=2.000
     189 ->198         0.17229
     190 ->194        -0.11498
     191 ->199         0.11849
     192 ->194         0.23674
     192 ->195         0.29595
     192 ->196        -0.24465
     193 ->195        -0.26969
     193 ->196        -0.17933
     193 ->197         0.14623
 This state for optimization and/or second-order correction.
 Total Energy, E(TD-HF/TD-DFT) =  -2281.19415195
 Copying the excited state density for this state as the 1-particle RhoCI density.

 Excited state symmetry could not be determined.
 Excited State   2:      Triplet-?Sym    2.6228 eV  472.71 nm  f=0.0000  <S**2>=2.000
     189 ->198        -0.14817
     191 ->199         0.15771
     192 ->194        -0.20634
     192 ->195        -0.24714
     192 ->196         0.17907
     192 ->200         0.10961
     193 ->195        -0.24643
     193 ->196        -0.26399
     193 ->197         0.22406
     193 ->198        -0.14062
     193 ->200         0.14310

 Excited state symmetry could not be determined.
 Excited State   3:      Singlet-?Sym    3.3601 eV  368.99 nm  f=0.0655  <S**2>=0.000
     192 ->194        -0.17248
     193 ->194         0.67381

 Excited state symmetry could not be determined.
 Excited State   4:      Singlet-?Sym    3.4927 eV  354.99 nm  f=0.1208  <S**2>=0.000
     187 ->194        -0.10043
     192 ->194         0.65992
     193 ->194         0.18358

 Alpha  occ. eigenvalues --  -14.33269 -14.33190 -14.33155 -10.26231 -10.24874
 Alpha  occ. eigenvalues --  -10.24785 -10.22409 -10.22390 -10.21143 -10.21091
 Alpha  occ. eigenvalues --  -10.21053 -10.21006 -10.20891 -10.20694 -10.20683
 Alpha  occ. eigenvalues --  -10.20530 -10.20419 -10.20374 -10.20274 -10.20256
 Alpha  occ. eigenvalues --  -10.20222 -10.20214 -10.20043 -10.20010 -10.19975
 Alpha  occ. eigenvalues --  -10.19967 -10.19952 -10.19946 -10.19910 -10.19900
 Alpha  occ. eigenvalues --  -10.19865 -10.19854 -10.19843 -10.19748 -10.19592
 Alpha  occ. eigenvalues --  -10.19591 -10.19571 -10.19545 -10.19479 -10.19446
 Alpha  occ. eigenvalues --  -10.19412 -10.19111 -10.19042 -10.18957 -10.18908
 Alpha  occ. eigenvalues --  -10.18883 -10.18871 -10.18841 -10.18821 -10.18758
 Alpha  occ. eigenvalues --  -10.18746 -10.18732 -10.18726 -10.18680 -10.18645
 Alpha  occ. eigenvalues --  -10.18585 -10.18579 -10.18464  -0.98635  -0.94190
 Alpha  occ. eigenvalues --   -0.89889  -0.88253  -0.88032  -0.87659  -0.86084
 Alpha  occ. eigenvalues --   -0.85601  -0.84788  -0.84316  -0.82682  -0.81667
 Alpha  occ. eigenvalues --   -0.81058  -0.79816  -0.78541  -0.77638  -0.77358
 Alpha  occ. eigenvalues --   -0.76437  -0.75889  -0.75836  -0.75553  -0.75093
 Alpha  occ. eigenvalues --   -0.74392  -0.74031  -0.72995  -0.72431  -0.71956
 Alpha  occ. eigenvalues --   -0.71887  -0.71018  -0.66842  -0.66532  -0.64450
 Alpha  occ. eigenvalues --   -0.64069  -0.63234  -0.62857  -0.62749  -0.62286
 Alpha  occ. eigenvalues --   -0.61769  -0.61498  -0.60756  -0.60460  -0.59739
 Alpha  occ. eigenvalues --   -0.59203  -0.58525  -0.57898  -0.57748  -0.57270
 Alpha  occ. eigenvalues --   -0.54454  -0.53751  -0.53492  -0.52995  -0.52738
 Alpha  occ. eigenvalues --   -0.52453  -0.51491  -0.51414  -0.50066  -0.49257
 Alpha  occ. eigenvalues --   -0.48824  -0.48704  -0.47988  -0.47816  -0.47591
 Alpha  occ. eigenvalues --   -0.47434  -0.47339  -0.46847  -0.46237  -0.44912
 Alpha  occ. eigenvalues --   -0.44792  -0.44620  -0.44460  -0.44396  -0.43899
 Alpha  occ. eigenvalues --   -0.43577  -0.43306  -0.43185  -0.42879  -0.42678
 Alpha  occ. eigenvalues --   -0.42543  -0.42427  -0.42334  -0.42213  -0.41963
 Alpha  occ. eigenvalues --   -0.41789  -0.41549  -0.41267  -0.40522  -0.40470
 Alpha  occ. eigenvalues --   -0.40102  -0.39921  -0.39854  -0.39435  -0.39293
 Alpha  occ. eigenvalues --   -0.38843  -0.38512  -0.37172  -0.36873  -0.36572
 Alpha  occ. eigenvalues --   -0.36500  -0.36336  -0.36129  -0.35875  -0.35800
 Alpha  occ. eigenvalues --   -0.35764  -0.35468  -0.35199  -0.34881  -0.34249
 Alpha  occ. eigenvalues --   -0.33948  -0.33663  -0.32914  -0.32867  -0.32731
 Alpha  occ. eigenvalues --   -0.31826  -0.31661  -0.30858  -0.29975  -0.29724
 Alpha  occ. eigenvalues --   -0.29298  -0.28358  -0.28021  -0.27920  -0.26308
 Alpha  occ. eigenvalues --   -0.26131  -0.26022  -0.25957  -0.25588  -0.25417
 Alpha  occ. eigenvalues --   -0.24844  -0.24655  -0.23641  -0.22532  -0.22139
 Alpha  occ. eigenvalues --   -0.22043  -0.21463  -0.20459
 Alpha virt. eigenvalues --   -0.06879  -0.05870  -0.04580  -0.03487  -0.03448
 Alpha virt. eigenvalues --   -0.03021  -0.02901  -0.02311  -0.01335  -0.00793
 Alpha virt. eigenvalues --   -0.00341   0.00307   0.00838   0.00957   0.02508

 Mulliken charges:
               1
     1  C   -0.144495
     2  C    0.041076
     3  N   -0.411091
     4  C   -0.000847
     5  C    0.068086
     6  C    0.093880
     7  C   -0.180703
     8  C   -0.179621
     9  C    0.095455
    10  C    0.101504
    11  C   -0.182907
    12  C   -0.163488
    13  C    0.097072
    14  C    0.281932
    15  C   -0.217504
    16  C    0.226722
    17  C    0.073543
    18  C   -0.268386
    19  C    0.147573
    20  C   -0.202471
    21  C   -0.130826
    22  C   -0.135351
    23  C   -0.192064
    24  C    0.074648
    25  C    0.044965
    26  C   -0.191169
    27  C   -0.133342
    28  C   -0.131913
    29  C   -0.195502
    30  C    0.103901
    31  N   -0.528008
    32  C    0.439169
    33  C    0.081622
    34  C   -0.174201
    35  C   -0.179488
    36  C    0.069144
    37  C    0.035587
    38  C   -0.263866
    39  C    0.150724
    40  C   -0.204427
    41  C   -0.130396
    42  C   -0.137428
    43  C   -0.191643
    44  C    0.069646
    45  C    0.049208
    46  C   -0.190259
    47  C   -0.135467
    48  C   -0.128486
    49  C   -0.219257
    50  C    0.102383
    51  C   -0.175842
    52  C   -0.170510
    53  N   -0.557818
    54  C   -0.179187
    55  C   -0.186261
    56  C   -0.180277
    57  C   -0.180181
    58  C   -0.139903
    59  H    0.139466
    60  H    0.143444
    61  H    0.145190
    62  H    0.135254
    63  H    0.136869
    64  H    0.138366
    65  H    0.162853
    66  H    0.153627
    67  H    0.135105
    68  H    0.130777
    69  H    0.132499
    70  H    0.132265
    71  H    0.136914
    72  H    0.133261
    73  H    0.130576
    74  H    0.132333
    75  H    0.153892
    76  H    0.164409
    77  H    0.142479
    78  H    0.134854
    79  H    0.130548
    80  H    0.130080
    81  H    0.129237
    82  H    0.133915
    83  H    0.132820
    84  H    0.129131
    85  H    0.130670
    86  H    0.149387
    87  H    0.135136
    88  H    0.156731
    89  H    0.133474
    90  H    0.135717
    91  H    0.139257
    92  H    0.141060
    93  H    0.145146
 Sum of Mulliken charges =  -0.00000

 Dipole moment (field-independent basis, Debye):
    X=              1.4737    Y=              3.1022    Z=              0.6643  Tot=              3.4981
 Quadrupole moment (field-independent basis, Debye-Ang):
   XX=           -293.3240   YY=           -310.6486   ZZ=           -326.2916
   XY=             30.4862   XZ=             -3.0446   YZ=             -5.0704

 Normal termination of Gaussian 16 at Sat Nov  5 11:07:05 2022.
