 Gaussian 16, Revision B.01,
 Gaussian 16:  ES64L-G16RevB.01 20-Dec-2017

 -----------------------------
 #p b3lyp/6-31g(d) opt SCF=XQC
 -----------------------------

 ------------------------------
 Gaussian input prepared by ASE
 ------------------------------
 Symbolic Z-matrix:
 Charge =  0 Multiplicity = 1

 SCF Done:  E(RB3LYP) =  -2243.16671948     A.U. after   15 cycles
 SCF Done:  E(RB3LYP) =  -2243.17704094     A.U. after   14 cycles
 SCF Done:  E(RB3LYP) =  -2243.17318364     A.U. after   15 cycles
 SCF Done:  E(RB3LYP) =  -2243.17864606     A.U. after   12 cycles
 SCF Done:  E(RB3LYP) =  -2243.17962962     A.U. after   13 cycles
 SCF Done:  E(RB3LYP) =  -2243.17979088     A.U. after   11 cycles
 SCF Done:  E(RB3LYP) =  -2243.17983136     A.U. after   11 cycles
 SCF Done:  E(RB3LYP) =  -2243.17984003     A.U. after   10 cycles
 SCF Done:  E(RB3LYP) =  -2243.17984300     A.U. after    9 cycles
 SCF Done:  E(RB3LYP) =  -2243.17984420     A.U. after    9 cycles
 SCF Done:  E(RB3LYP) =  -2243.17984456     A.U. after    9 cycles
 SCF Done:  E(RB3LYP) =  -2243.17984470     A.U. after    7 cycles
 SCF Done:  E(RB3LYP) =  -2243.17984473     A.U. after    7 cycles
 SCF Done:  E(RB3LYP) =  -2243.17984474     A.U. after    6 cycles
 Optimization completed.
    -- Stationary point found.

                         Standard orientation:
 ---------------------------------------------------------------------
 Center     Atomic      Atomic             Coordinates (Angstroms)
 Number     Number       Type             X           Y           Z
 ---------------------------------------------------------------------
      1          6           0       -0.413970    7.464879    0.508255
      2          6           0        0.926881    7.681323    0.831167
      3          6           0        1.846944    6.637479    0.747083
      4          6           0        1.447451    5.353268    0.339372
      5          6           0        2.426666    4.241229    0.252474
      6          6           0        3.454321    4.102346    1.200818
      7          6           0        4.368035    3.054938    1.130667
      8          6           0        4.290752    2.119597    0.090691
      9          7           0        5.226126    1.055966    0.011593
     10          6           0        6.622254    1.194486    0.009595
     11          6           0        7.397825    2.355426    0.022123
     12          6           0        8.784847    2.211132   -0.008880
     13          6           0        9.386294    0.943397   -0.057085
     14          6           0        8.605655   -0.210239   -0.083385
     15          6           0        7.212134   -0.092680   -0.053340
     16          6           0        6.128606   -1.054601   -0.085326
     17          6           0        6.093446   -2.448752   -0.118659
     18          6           0        4.850731   -3.082286   -0.117803
     19          6           0        4.447158   -4.474277   -0.124695
     20          6           0        5.151043   -5.682442   -0.166871
     21          6           0        4.442687   -6.882035   -0.179393
     22          6           0        3.038646   -6.882589   -0.156808
     23          6           0        2.313185   -5.692133   -0.114140
     24          6           0        3.030201   -4.494482   -0.089242
     25          7           0        2.556479   -3.175095   -0.064153
     26          6           0        1.190106   -2.787926   -0.046001
     27          6           0        0.672390   -1.963992   -1.053035
     28          6           0       -0.668018   -1.590098   -1.032823
     29          6           0       -1.537171   -2.030933   -0.019231
     30          6           0       -2.966981   -1.634523   -0.006981
     31          6           0       -3.961158   -2.546709    0.419667
     32          6           0       -5.311354   -2.216397    0.449339
     33          6           0       -5.680618   -0.931541    0.042652
     34          6           0       -4.711674    0.001403   -0.405506
     35          6           0       -3.361639   -0.356200   -0.422409
     36          6           0       -5.428545    1.205291   -0.772751
     37          6           0       -5.032159    2.454826   -1.263291
     38          6           0       -5.998938    3.426448   -1.504536
     39          6           0       -7.356426    3.161787   -1.253413
     40          6           0       -7.778286    1.926474   -0.766507
     41          6           0       -6.803999    0.950957   -0.538263
     42          7           0       -6.948277   -0.350619   -0.041852
     43          6           0       -8.174769   -0.973856    0.318324
     44          6           0       -8.348534   -1.487146    1.609725
     45          6           0       -9.549084   -2.107080    1.955574
     46          6           0      -10.587114   -2.201431    1.026517
     47          6           0      -10.415847   -1.680388   -0.257538
     48          6           0       -9.211394   -1.076446   -0.617758
     49          6           0       -1.001182   -2.861349    0.980662
     50          6           0        0.340891   -3.231216    0.975054
     51          6           0        3.653040   -2.306708   -0.081660
     52          6           0        3.655320   -0.912162   -0.033571
     53          6           0        4.912868   -0.307963   -0.047266
     54          6           0        3.278608    2.249870   -0.868708
     55          6           0        2.358089    3.290167   -0.779696
     56          6           0        0.094368    5.150967    0.018191
     57          6           0       -0.825977    6.194640    0.101153
     58          1           0       -1.131348    8.278327    0.574056
     59          1           0        1.260462    8.668118    1.141382
     60          1           0        2.892888    6.824108    0.974486
     61          1           0        3.514515    4.801791    2.029703
     62          1           0        5.133149    2.943640    1.892558
     63          1           0        6.939927    3.338668    0.048707
     64          1           0        9.408929    3.100680    0.001523
     65          1           0       10.469450    0.862899   -0.078636
     66          1           0        9.073154   -1.190411   -0.131667
     67          1           0        7.013109   -3.027853   -0.133220
     68          1           0        6.237752   -5.684466   -0.194119
     69          1           0        4.979889   -7.825764   -0.210783
     70          1           0        2.502698   -7.827760   -0.175493
     71          1           0        1.228178   -5.698633   -0.105663
     72          1           0        1.319997   -1.640420   -1.862192
     73          1           0       -1.058039   -0.977699   -1.840760
     74          1           0       -3.664105   -3.551354    0.705899
     75          1           0       -6.052622   -2.943295    0.764439
     76          1           0       -2.613243    0.366353   -0.735935
     77          1           0       -3.981813    2.663513   -1.449767
     78          1           0       -5.704112    4.399404   -1.887147
     79          1           0       -8.095460    3.936225   -1.440033
     80          1           0       -8.826955    1.732549   -0.567070
     81          1           0       -7.547420   -1.387466    2.335529
     82          1           0       -9.676794   -2.504708    2.958622
     83          1           0      -11.523726   -2.678069    1.301452
     84          1           0      -11.216680   -1.755301   -0.988001
     85          1           0       -9.062749   -0.692666   -1.622284
     86          1           0       -1.636294   -3.192548    1.797204
     87          1           0        0.742823   -3.848892    1.772348
     88          1           0        2.738870   -0.337714    0.025022
     89          1           0        3.231354    1.545468   -1.693268
     90          1           0        1.596274    3.389523   -1.547655
     91          1           0       -0.242605    4.159369   -0.271210
     92          1           0       -1.869374    6.012118   -0.142357
 ---------------------------------------------------------------------

 The electronic state is 1-A.
 Alpha  occ. eigenvalues --  -14.38746 -14.37768 -14.37620 -10.24437 -10.23650
 Alpha  occ. eigenvalues --  -10.23368 -10.22950 -10.22871 -10.22309 -10.22251
 Alpha  occ. eigenvalues --  -10.21845 -10.21759 -10.20573 -10.20569 -10.20505
 Alpha  occ. eigenvalues --  -10.20503 -10.20499 -10.20338 -10.20327 -10.20249
 Alpha  occ. eigenvalues --  -10.19854 -10.19812 -10.19793 -10.19754 -10.19717
 Alpha  occ. eigenvalues --  -10.19678 -10.19641 -10.19529 -10.19511 -10.19427
 Alpha  occ. eigenvalues --  -10.19391 -10.19334 -10.19329 -10.19311 -10.19303
 Alpha  occ. eigenvalues --  -10.19288 -10.19247 -10.19237 -10.19231 -10.19225
 Alpha  occ. eigenvalues --  -10.19213 -10.19156 -10.18727 -10.18593 -10.18395
 Alpha  occ. eigenvalues --  -10.18279 -10.18265 -10.18210 -10.18205 -10.18191
 Alpha  occ. eigenvalues --  -10.18180 -10.18167 -10.18149 -10.18140 -10.18087
 Alpha  occ. eigenvalues --  -10.17616 -10.17547  -0.99476  -0.98586  -0.98208
 Alpha  occ. eigenvalues --   -0.87656  -0.87405  -0.86946  -0.85538  -0.85060
 Alpha  occ. eigenvalues --   -0.84498  -0.83723  -0.83453  -0.83318  -0.79737
 Alpha  occ. eigenvalues --   -0.78923  -0.77660  -0.76512  -0.76449  -0.76059
 Alpha  occ. eigenvalues --   -0.75793  -0.75594  -0.75274  -0.74554  -0.74266
 Alpha  occ. eigenvalues --   -0.73704  -0.73356  -0.72463  -0.71991  -0.71411
 Alpha  occ. eigenvalues --   -0.69810  -0.69624  -0.65865  -0.65040  -0.63447
 Alpha  occ. eigenvalues --   -0.62804  -0.62679  -0.62408  -0.61820  -0.61300
 Alpha  occ. eigenvalues --   -0.60955  -0.59953  -0.59480  -0.59252  -0.58298
 Alpha  occ. eigenvalues --   -0.57862  -0.57653  -0.57117  -0.56881  -0.56618
 Alpha  occ. eigenvalues --   -0.54316  -0.53719  -0.53350  -0.52423  -0.52194
 Alpha  occ. eigenvalues --   -0.52070  -0.51757  -0.50198  -0.49677  -0.48309
 Alpha  occ. eigenvalues --   -0.47743  -0.47645  -0.47484  -0.47113  -0.46545
 Alpha  occ. eigenvalues --   -0.46512  -0.45990  -0.45462  -0.45140  -0.44772
 Alpha  occ. eigenvalues --   -0.44634  -0.44489  -0.44327  -0.44140  -0.43708
 Alpha  occ. eigenvalues --   -0.43564  -0.43242  -0.43135  -0.43033  -0.42828
 Alpha  occ. eigenvalues --   -0.42769  -0.42524  -0.42486  -0.42364  -0.42105
 Alpha  occ. eigenvalues --   -0.42073  -0.41763  -0.41501  -0.40819  -0.40357
 Alpha  occ. eigenvalues --   -0.40178  -0.38653  -0.38369  -0.37995  -0.37747
 Alpha  occ. eigenvalues --   -0.37658  -0.37251  -0.36833  -0.36623  -0.36384
 Alpha  occ. eigenvalues --   -0.36264  -0.35918  -0.35693  -0.35632  -0.35309
 Alpha  occ. eigenvalues --   -0.34955  -0.34537  -0.34345  -0.34221  -0.34090
 Alpha  occ. eigenvalues --   -0.33769  -0.33672  -0.33208  -0.32823  -0.32704
 Alpha  occ. eigenvalues --   -0.32304  -0.31329  -0.28556  -0.27975  -0.27283
 Alpha  occ. eigenvalues --   -0.26655  -0.26566  -0.26398  -0.26244  -0.25924
 Alpha  occ. eigenvalues --   -0.25723  -0.25284  -0.24256  -0.23480  -0.22969
 Alpha  occ. eigenvalues --   -0.21744  -0.21528  -0.19951  -0.18639  -0.17989
 Alpha virt. eigenvalues --   -0.03481  -0.03277  -0.03017  -0.02433  -0.01848
 Alpha virt. eigenvalues --   -0.01638  -0.01158  -0.00905  -0.00723  -0.00327
 Alpha virt. eigenvalues --    0.01102   0.01705   0.02352   0.03269   0.03605

 Mulliken charges:
               1
     1  C   -0.126100
     2  C   -0.133350
     3  C   -0.173378
     4  C    0.087632
     5  C    0.100199
     6  C   -0.190944
     7  C   -0.155888
     8  C    0.277232
     9  N   -0.750081
    10  C    0.312473
    11  C   -0.178631
    12  C   -0.142899
    13  C   -0.144549
    14  C   -0.199606
    15  C    0.056610
    16  C    0.057325
    17  C   -0.278842
    18  C    0.056526
    19  C    0.057665
    20  C   -0.199623
    21  C   -0.144781
    22  C   -0.142844
    23  C   -0.178679
    24  C    0.312287
    25  N   -0.747335
    26  C    0.267953
    27  C   -0.153474
    28  C   -0.191342
    29  C    0.103321
    30  C    0.084049
    31  C   -0.193995
    32  C   -0.177720
    33  C    0.320259
    34  C    0.065426
    35  C   -0.257312
    36  C    0.059110
    37  C   -0.195959
    38  C   -0.144902
    39  C   -0.141325
    40  C   -0.175805
    41  C    0.311783
    42  N   -0.735484
    43  C    0.260772
    44  C   -0.148517
    45  C   -0.142694
    46  C   -0.120680
    47  C   -0.142680
    48  C   -0.148300
    49  C   -0.194337
    50  C   -0.154576
    51  C    0.325461
    52  C   -0.256490
    53  C    0.324144
    54  C   -0.156328
    55  C   -0.190365
    56  C   -0.172396
    57  C   -0.133377
    58  H    0.131367
    59  H    0.132202
    60  H    0.132746
    61  H    0.140085
    62  H    0.153676
    63  H    0.137396
    64  H    0.124238
    65  H    0.122017
    66  H    0.127236
    67  H    0.133607
    68  H    0.126785
    69  H    0.121538
    70  H    0.123866
    71  H    0.137287
    72  H    0.148355
    73  H    0.136488
    74  H    0.131838
    75  H    0.143327
    76  H    0.132213
    77  H    0.127847
    78  H    0.124543
    79  H    0.128668
    80  H    0.141226
    81  H    0.152834
    82  H    0.140168
    83  H    0.137061
    84  H    0.140137
    85  H    0.153124
    86  H    0.137424
    87  H    0.151271
    88  H    0.154272
    89  H    0.150134
    90  H    0.137653
    91  H    0.130712
    92  H    0.132020
 Sum of Mulliken charges =  -0.00000

 Dipole moment (field-independent basis, Debye):
    X=             -5.3119    Y=              1.1880    Z=              0.6602  Tot=              5.4830
 Quadrupole moment (field-independent basis, Debye-Ang):
   XX=           -281.4588   YY=           -301.0233   ZZ=           -324.0865
   XY=             14.1572   XZ=             -0.7435   YZ=             -4.3784

 Normal termination of Gaussian 16 at Sat Nov  5 02:13:16 2022.
