 Gaussian 16, Revision B.01,
 Gaussian 16:  ES64L-G16RevB.01 20-Dec-2017

 -------------------------------------------------------------------
 #p b3lyp/6-31g(d) 6D 10F nosymm GFInput td=(50-50,nstate=2) SCF=XQC
 -------------------------------------------------------------------

 ------------------------------
 Gaussian input prepared by ASE
 ------------------------------
 Symbolic Z-matrix:
 Charge =  0 Multiplicity = 1

                          Input orientation:
 ---------------------------------------------------------------------
 Center     Atomic      Atomic             Coordinates (Angstroms)
 Number     Number       Type             X           Y           Z
 ---------------------------------------------------------------------
      1          6           0       -7.702488    1.280867    0.215016
      2          6           0       -7.266009   -0.181855   -0.043473
      3          6           0       -7.337828   -1.014278    1.259161
      4          6           0       -8.172100   -0.804628   -1.106194
      5          6           0       -9.546831   -1.007945   -1.073187
      6          6           0      -10.174867   -1.601751   -2.175183
      7          6           0       -9.430090   -1.985280   -3.295231
      8          6           0       -8.048405   -1.783044   -3.333126
      9          6           0       -7.424513   -1.191068   -2.232874
     10          6           0       -6.018796   -0.859832   -1.984628
     11          6           0       -4.899504   -1.061666   -2.815036
     12          6           0       -3.638359   -0.690244   -2.396507
     13          6           0       -3.461760   -0.078044   -1.113179
     14          6           0       -2.148351    0.343092   -0.701448
     15          6           0       -2.010361    0.864708    0.583692
     16          6           0       -3.148644    1.095695    1.421338
     17          6           0       -4.413747    0.746595    1.005308
     18          6           0       -4.611711    0.131503   -0.258444
     19          6           0       -5.891812   -0.276675   -0.728596
     20          6           0       -2.669588    1.727261    2.636235
     21          6           0       -3.304261    2.177175    3.797522
     22          6           0       -2.534152    2.724597    4.821357
     23          6           0       -1.139595    2.814833    4.690223
     24          6           0       -0.485840    2.373994    3.539334
     25          6           0       -1.267559    1.843229    2.511617
     26          7           0       -0.864997    1.327989    1.265490
     27          6           0        0.493392    0.993917    0.996786
     28          6           0        0.896980   -0.345098    0.920041
     29          6           0        2.231606   -0.658361    0.686292
     30          6           0        3.198299    0.350573    0.539581
     31          6           0        4.630795    0.036203    0.301351
     32          6           0        5.188175   -1.205753    0.625729
     33          6           0        6.548294   -1.404239    0.357502
     34          6           0        7.236864   -2.686106    0.657999
     35          6           0        8.631898   -2.706358    0.817602
     36          6           0        9.294912   -3.894928    1.112434
     37          6           0        8.578097   -5.086690    1.243155
     38          6           0        7.192325   -5.081292    1.074232
     39          6           0        6.527172   -3.891128    0.785396
     40          7           0        7.293110   -0.418536   -0.169064
     41          6           0        6.687508    0.749637   -0.433290
     42          6           0        7.521494    1.836230   -1.012497
     43          6           0        8.887201    1.629288   -1.262487
     44          6           0        9.668169    2.648615   -1.802348
     45          6           0        9.097761    3.888033   -2.101693
     46          6           0        7.738716    4.100845   -1.859080
     47          6           0        6.955202    3.083450   -1.319289
     48          7           0        5.388035    1.012671   -0.225145
     49          6           0        2.780652    1.688462    0.617018
     50          6           0        1.445150    2.008940    0.842026
     51          6           0       -1.050746    0.272710   -1.666150
     52          6           0       -1.181671   -0.307585   -2.866618
     53          6           0       -2.450561   -0.976680   -3.298488
     54          1           0       -8.729583    1.307984    0.596902
     55          1           0       -7.060214    1.776249    0.949394
     56          1           0       -7.668993    1.864264   -0.710607
     57          1           0       -7.056609   -2.055160    1.069757
     58          1           0       -8.357940   -1.005442    1.660247
     59          1           0       -6.670884   -0.619793    2.031854
     60          1           0      -10.135643   -0.713170   -0.207419
     61          1           0      -11.249145   -1.765525   -2.159566
     62          1           0       -9.930747   -2.444755   -4.143529
     63          1           0       -7.474466   -2.083235   -4.206310
     64          1           0       -5.025280   -1.522858   -3.792760
     65          1           0       -5.259866    0.945048    1.650700
     66          1           0       -4.383044    2.095269    3.902250
     67          1           0       -3.013750    3.080255    5.728657
     68          1           0       -0.551872    3.236069    5.501381
     69          1           0        0.593238    2.441233    3.451747
     70          1           0        0.158254   -1.132318    1.032046
     71          1           0        2.515334   -1.702889    0.603486
     72          1           0        4.600130   -1.972034    1.113816
     73          1           0        9.180082   -1.776909    0.711821
     74          1           0       10.373929   -3.891754    1.241388
     75          1           0        9.096325   -6.014394    1.470455
     76          1           0        6.628207   -6.005973    1.160366
     77          1           0        5.452343   -3.909417    0.631462
     78          1           0        9.320221    0.662772   -1.031536
     79          1           0       10.724321    2.475263   -1.991323
     80          1           0        9.708062    4.682504   -2.523289
     81          1           0        7.287764    5.061807   -2.092350
     82          1           0        5.898787    3.238496   -1.132335
     83          1           0        3.519188    2.471788    0.490584
     84          1           0        1.127792    3.046276    0.887839
     85          1           0       -0.111566    0.745137   -1.406609
     86          1           0       -0.345818   -0.313705   -3.562406
     87          1           0       -2.282949   -2.066814   -3.349874
     88          1           0       -2.692274   -0.686313   -4.331444
 ---------------------------------------------------------------------

 SCF Done:  E(RB3LYP) =  -2090.73787291     A.U. after   16 cycles

 Excitation energies and oscillator strengths:

 Excited state symmetry could not be determined.
 Excited State   1:      Triplet-?Sym    1.8323 eV  676.68 nm  f=0.0000  <S**2>=2.000
     177 ->181         0.12687
     178 ->179        -0.13179
     178 ->181         0.64755
 This state for optimization and/or second-order correction.
 Total Energy, E(TD-HF/TD-DFT) =  -2090.67053886
 Copying the excited state density for this state as the 1-particle RhoCI density.

 Excited state symmetry could not be determined.
 Excited State   2:      Triplet-?Sym    2.4458 eV  506.92 nm  f=0.0000  <S**2>=2.000
     178 ->179         0.66248
     178 ->181         0.14201

 Excited state symmetry could not be determined.
 Excited State   3:      Singlet-?Sym    2.5153 eV  492.92 nm  f=0.0933  <S**2>=0.000
     178 ->179         0.69869

 Excited state symmetry could not be determined.
 Excited State   4:      Singlet-?Sym    2.8965 eV  428.05 nm  f=0.0028  <S**2>=0.000
     178 ->180         0.69061
     178 ->181         0.11815

 Alpha  occ. eigenvalues --  -14.38263 -14.33346 -14.33275 -10.26346 -10.25046
 Alpha  occ. eigenvalues --  -10.24922 -10.24431 -10.22750 -10.22707 -10.21217
 Alpha  occ. eigenvalues --  -10.20875 -10.20614 -10.20527 -10.20468 -10.20430
 Alpha  occ. eigenvalues --  -10.20412 -10.20291 -10.20122 -10.19952 -10.19838
 Alpha  occ. eigenvalues --  -10.19804 -10.19670 -10.19654 -10.19487 -10.19466
 Alpha  occ. eigenvalues --  -10.19453 -10.19355 -10.19310 -10.19272 -10.19153
 Alpha  occ. eigenvalues --  -10.19112 -10.19063 -10.18978 -10.18977 -10.18801
 Alpha  occ. eigenvalues --  -10.18792 -10.18680 -10.18658 -10.18624 -10.18602
 Alpha  occ. eigenvalues --  -10.18469 -10.18419 -10.18410 -10.18404 -10.18397
 Alpha  occ. eigenvalues --  -10.18359 -10.18334 -10.18324 -10.18317 -10.18207
 Alpha  occ. eigenvalues --  -10.18002 -10.17620 -10.17612  -0.98892  -0.98737
 Alpha  occ. eigenvalues --   -0.89935  -0.88604  -0.87496  -0.86209  -0.85937
 Alpha  occ. eigenvalues --   -0.85219  -0.84463  -0.82371  -0.82159  -0.80950
 Alpha  occ. eigenvalues --   -0.79537  -0.78133  -0.76506  -0.76213  -0.76148
 Alpha  occ. eigenvalues --   -0.75466  -0.75223  -0.74448  -0.74150  -0.73954
 Alpha  occ. eigenvalues --   -0.72867  -0.72443  -0.71964  -0.70646  -0.68412
 Alpha  occ. eigenvalues --   -0.68053  -0.66529  -0.66311  -0.64405  -0.63089
 Alpha  occ. eigenvalues --   -0.62686  -0.61865  -0.61749  -0.60909  -0.60527
 Alpha  occ. eigenvalues --   -0.59510  -0.59280  -0.58251  -0.57962  -0.57604
 Alpha  occ. eigenvalues --   -0.56761  -0.55137  -0.54492  -0.53530  -0.53424
 Alpha  occ. eigenvalues --   -0.52245  -0.51883  -0.51356  -0.50156  -0.49579
 Alpha  occ. eigenvalues --   -0.49112  -0.48335  -0.48008  -0.47371  -0.46950
 Alpha  occ. eigenvalues --   -0.46762  -0.45961  -0.45663  -0.45233  -0.45201
 Alpha  occ. eigenvalues --   -0.44771  -0.43965  -0.43834  -0.43789  -0.43565
 Alpha  occ. eigenvalues --   -0.43443  -0.43260  -0.43138  -0.42970  -0.42780
 Alpha  occ. eigenvalues --   -0.42627  -0.42475  -0.42464  -0.41974  -0.41703
 Alpha  occ. eigenvalues --   -0.41513  -0.41181  -0.41046  -0.40482  -0.40421
 Alpha  occ. eigenvalues --   -0.39094  -0.38859  -0.38493  -0.38039  -0.37947
 Alpha  occ. eigenvalues --   -0.37557  -0.37020  -0.36365  -0.36153  -0.36068
 Alpha  occ. eigenvalues --   -0.35932  -0.35758  -0.35564  -0.35078  -0.34622
 Alpha  occ. eigenvalues --   -0.34557  -0.34278  -0.33944  -0.33895  -0.33626
 Alpha  occ. eigenvalues --   -0.33429  -0.32916  -0.32279  -0.31390  -0.31279
 Alpha  occ. eigenvalues --   -0.30466  -0.30261  -0.30103  -0.30017  -0.27197
 Alpha  occ. eigenvalues --   -0.26668  -0.25844  -0.25580  -0.25286  -0.25078
 Alpha  occ. eigenvalues --   -0.24853  -0.24598  -0.23955  -0.23430  -0.23215
 Alpha  occ. eigenvalues --   -0.22015  -0.20652  -0.17390
 Alpha virt. eigenvalues --   -0.06715  -0.05595  -0.05273  -0.02558  -0.01975
 Alpha virt. eigenvalues --   -0.01706  -0.00673  -0.00072   0.00249   0.00373
 Alpha virt. eigenvalues --    0.01746   0.02192   0.03052   0.04093   0.04401

 Mulliken charges:
               1
     1  C   -0.444494
     2  C   -0.052540
     3  C   -0.443981
     4  C    0.104191
     5  C   -0.204756
     6  C   -0.133159
     7  C   -0.136687
     8  C   -0.195915
     9  C    0.077286
    10  C    0.094286
    11  C   -0.283724
    12  C    0.111984
    13  C    0.017638
    14  C    0.077623
    15  C    0.207119
    16  C    0.091284
    17  C   -0.315420
    18  C    0.118108
    19  C   -0.023721
    20  C    0.064413
    21  C   -0.194318
    22  C   -0.145607
    23  C   -0.138155
    24  C   -0.182604
    25  C    0.313160
    26  N   -0.742826
    27  C    0.239215
    28  C   -0.135345
    29  C   -0.187090
    30  C    0.104562
    31  C    0.277948
    32  C   -0.221891
    33  C    0.276376
    34  C    0.093450
    35  C   -0.154817
    36  C   -0.136413
    37  C   -0.119477
    38  C   -0.138681
    39  C   -0.170680
    40  N   -0.553633
    41  C    0.444913
    42  C    0.074962
    43  C   -0.161508
    44  C   -0.138943
    45  C   -0.118706
    46  C   -0.139017
    47  C   -0.161517
    48  N   -0.557441
    49  C   -0.171562
    50  C   -0.163251
    51  C   -0.141514
    52  C   -0.134831
    53  C   -0.390188
    54  H    0.143021
    55  H    0.147386
    56  H    0.159439
    57  H    0.158115
    58  H    0.142826
    59  H    0.146831
    60  H    0.122273
    61  H    0.124448
    62  H    0.125150
    63  H    0.125959
    64  H    0.118540
    65  H    0.134683
    66  H    0.130591
    67  H    0.126181
    68  H    0.129436
    69  H    0.141153
    70  H    0.155254
    71  H    0.138538
    72  H    0.152042
    73  H    0.160330
    74  H    0.135972
    75  H    0.135169
    76  H    0.134646
    77  H    0.130363
    78  H    0.156759
    79  H    0.130418
    80  H    0.130531
    81  H    0.130493
    82  H    0.154898
    83  H    0.167718
    84  H    0.153971
    85  H    0.144525
    86  H    0.129623
    87  H    0.167685
    88  H    0.160928
 Sum of Mulliken charges =  -0.00000

 Dipole moment (field-independent basis, Debye):
    X=              1.2017    Y=             -1.6342    Z=              0.7885  Tot=              2.1763
 Quadrupole moment (field-independent basis, Debye-Ang):
   XX=           -283.1973   YY=           -285.1766   ZZ=           -293.6726
   XY=             -6.2016   XZ=             -1.0211   YZ=              2.0118

 Normal termination of Gaussian 16 at Sat Nov  5 11:08:54 2022.
