 Gaussian 16, Revision B.01,
 Gaussian 16:  ES64L-G16RevB.01 20-Dec-2017

 -------------------------------------------------------------------
 #p b3lyp/6-31g(d) 6D 10F nosymm GFInput td=(50-50,nstate=2) SCF=XQC
 -------------------------------------------------------------------

 ------------------------------
 Gaussian input prepared by ASE
 ------------------------------
 Symbolic Z-matrix:
 Charge =  0 Multiplicity = 1

                          Input orientation:
 ---------------------------------------------------------------------
 Center     Atomic      Atomic             Coordinates (Angstroms)
 Number     Number       Type             X           Y           Z
 ---------------------------------------------------------------------
      1          6           0        2.899803    6.624638    1.462454
      2          6           0        4.195359    6.196205    1.757386
      3          6           0        4.578013    4.882205    1.492482
      4          6           0        3.674042    3.966260    0.927766
      5          6           0        4.080771    2.566444    0.648247
      6          6           0        4.926329    1.866577    1.525708
      7          6           0        5.301400    0.550141    1.274358
      8          6           0        4.852936   -0.103026    0.119092
      9          7           0        5.240771   -1.441956   -0.144235
     10          6           0        6.560142   -1.917409   -0.183842
     11          6           0        7.759475   -1.216639   -0.042519
     12          6           0        8.949533   -1.936305   -0.149549
     13          6           0        8.947485   -3.318335   -0.396937
     14          6           0        7.747042   -4.008457   -0.550673
     15          6           0        6.539632   -3.309711   -0.448022
     16          6           0        5.148576   -3.698014   -0.568568
     17          6           0        4.517364   -4.921650   -0.792824
     18          6           0        3.123309   -4.953400   -0.829007
     19          6           0        2.160011   -6.020730   -1.011817
     20          6           0        2.275898   -7.394457   -1.249170
     21          6           0        1.120569   -8.158555   -1.398564
     22          6           0       -0.147015   -7.559580   -1.319193
     23          6           0       -0.290007   -6.192455   -1.082922
     24          6           0        0.872014   -5.435567   -0.921903
     25          7           0        1.012077   -4.059005   -0.695445
     26          6           0       -0.054483   -3.129750   -0.568401
     27          6           0       -0.143634   -2.029418   -1.429989
     28          6           0       -1.192529   -1.123441   -1.303798
     29          6           0       -2.189916   -1.287702   -0.326369
     30          6           0       -3.309599   -0.322136   -0.201308
     31          6           0       -4.609198   -0.769661    0.135235
     32          6           0       -5.685907    0.100300    0.265162
     33          6           0       -5.456507    1.462632    0.055329
     34          6           0       -4.170241    1.942562   -0.298605
     35          6           0       -3.105721    1.046513   -0.419661
     36          6           0       -4.290247    3.376279   -0.466463
     37          6           0       -3.383296    4.390380   -0.795293
     38          6           0       -3.831695    5.706286   -0.860407
     39          6           0       -5.176257    6.017214   -0.593281
     40          6           0       -6.099985    5.027250   -0.265045
     41          6           0       -5.646189    3.706495   -0.213641
     42          7           0       -6.348212    2.536926    0.103554
     43          6           0       -7.731482    2.456294    0.423706
     44          6           0       -8.139042    1.889404    1.637751
     45          6           0       -9.497152    1.802620    1.943127
     46          6           0      -10.452936    2.296171    1.052935
     47          6           0      -10.044461    2.870003   -0.152667
     48          6           0       -8.689383    2.942893   -0.474634
     49          6           0       -2.086904   -2.400644    0.526514
     50          6           0       -1.035109   -3.305821    0.415264
     51          6           0        2.375762   -3.752681   -0.637334
     52          6           0        2.977136   -2.516677   -0.397084
     53          6           0        4.372241   -2.515633   -0.378264
     54          6           0        4.017921    0.584075   -0.771130
     55          6           0        3.633215    1.894407   -0.501822
     56          6           0        2.373500    4.412311    0.637000
     57          6           0        1.990544    5.726440    0.900782
     58          1           0        2.601250    7.648742    1.669177
     59          1           0        4.914053    6.889038    2.187193
     60          1           0        5.596847    4.567351    1.700773
     61          1           0        5.262675    2.346702    2.440174
     62          1           0        5.926251    0.014092    1.981800
     63          1           0        7.769052   -0.146896    0.138313
     64          1           0        9.895382   -1.412266   -0.041680
     65          1           0        9.890623   -3.852011   -0.473438
     66          1           0        7.747950   -5.076497   -0.752943
     67          1           0        5.098151   -5.830854   -0.924676
     68          1           0        3.256160   -7.858856   -1.320607
     69          1           0        1.199669   -9.226414   -1.581915
     70          1           0       -1.037101   -8.169883   -1.446530
     71          1           0       -1.271970   -5.733721   -1.031308
     72          1           0        0.598656   -1.903721   -2.212316
     73          1           0       -1.262133   -0.294909   -2.002798
     74          1           0       -4.780329   -1.833941    0.267538
     75          1           0       -6.674966   -0.274660    0.506647
     76          1           0       -2.112139    1.414315   -0.660479
     77          1           0       -2.341449    4.152173   -0.993693
     78          1           0       -3.137950    6.501946   -1.116533
     79          1           0       -5.505326    7.051720   -0.640857
     80          1           0       -7.134262    5.276059   -0.051848
     81          1           0       -7.390039    1.531209    2.337181
     82          1           0       -9.806711    1.360132    2.885943
     83          1           0      -11.509572    2.233985    1.297210
     84          1           0      -10.782439    3.250830   -0.853296
     85          1           0       -8.366864    3.364253   -1.421678
     86          1           0       -2.821375   -2.539557    1.314586
     87          1           0       -0.956786   -4.142659    1.102518
     88          1           0        2.396230   -1.619266   -0.222433
     89          1           0        3.691016    0.093360   -1.682528
     90          1           0        3.006338    2.419253   -1.217054
     91          1           0        1.649197    3.713691    0.227264
     92          1           0        0.976147    6.046154    0.677015
 ---------------------------------------------------------------------

 SCF Done:  E(RB3LYP) =  -2243.17985793     A.U. after   15 cycles

 Excitation energies and oscillator strengths:

 Excited state symmetry could not be determined.
 Excited State   1:      Triplet-?Sym    2.8133 eV  440.71 nm  f=0.0000  <S**2>=2.000
     185 ->194        -0.13880
     189 ->199        -0.17760
     190 ->191        -0.23254
     190 ->192        -0.12909
     190 ->193        -0.24034
     190 ->194         0.47832
 This state for optimization and/or second-order correction.
 Total Energy, E(TD-HF/TD-DFT) =  -2243.07647212
 Copying the excited state density for this state as the 1-particle RhoCI density.

 Excited state symmetry could not be determined.
 Excited State   2:      Triplet-?Sym    2.9881 eV  414.93 nm  f=0.0000  <S**2>=2.000
     181 ->198         0.11735
     183 ->192         0.17468
     186 ->192         0.14013
     186 ->193        -0.13223
     187 ->192        -0.12538
     187 ->193         0.16674
     188 ->192         0.21878
     188 ->193         0.20157
     188 ->194         0.11420
     189 ->191         0.12882
     189 ->192         0.13708
     189 ->193         0.18742
     190 ->192        -0.18946
     190 ->193        -0.21893
     190 ->194        -0.11768

 Excited state symmetry could not be determined.
 Excited State   3:      Singlet-?Sym    3.4597 eV  358.37 nm  f=0.1012  <S**2>=0.000
     189 ->191         0.12150
     190 ->191         0.67114
     190 ->192        -0.10522

 Excited state symmetry could not be determined.
 Excited State   4:      Singlet-?Sym    3.5330 eV  350.93 nm  f=0.2241  <S**2>=0.000
     190 ->191         0.14353
     190 ->192         0.47489
     190 ->193         0.46501

 Alpha  occ. eigenvalues --  -14.38746 -14.37768 -14.37620 -10.24437 -10.23650
 Alpha  occ. eigenvalues --  -10.23368 -10.22950 -10.22871 -10.22309 -10.22251
 Alpha  occ. eigenvalues --  -10.21845 -10.21759 -10.20573 -10.20569 -10.20505
 Alpha  occ. eigenvalues --  -10.20503 -10.20499 -10.20338 -10.20327 -10.20249
 Alpha  occ. eigenvalues --  -10.19854 -10.19812 -10.19793 -10.19753 -10.19717
 Alpha  occ. eigenvalues --  -10.19678 -10.19641 -10.19529 -10.19511 -10.19427
 Alpha  occ. eigenvalues --  -10.19391 -10.19334 -10.19329 -10.19311 -10.19303
 Alpha  occ. eigenvalues --  -10.19288 -10.19247 -10.19237 -10.19231 -10.19225
 Alpha  occ. eigenvalues --  -10.19213 -10.19156 -10.18727 -10.18593 -10.18395
 Alpha  occ. eigenvalues --  -10.18279 -10.18265 -10.18211 -10.18205 -10.18191
 Alpha  occ. eigenvalues --  -10.18180 -10.18168 -10.18149 -10.18140 -10.18087
 Alpha  occ. eigenvalues --  -10.17616 -10.17547  -0.99476  -0.98586  -0.98208
 Alpha  occ. eigenvalues --   -0.87656  -0.87404  -0.86946  -0.85539  -0.85060
 Alpha  occ. eigenvalues --   -0.84498  -0.83723  -0.83453  -0.83318  -0.79737
 Alpha  occ. eigenvalues --   -0.78923  -0.77660  -0.76512  -0.76449  -0.76059
 Alpha  occ. eigenvalues --   -0.75793  -0.75594  -0.75274  -0.74554  -0.74266
 Alpha  occ. eigenvalues --   -0.73704  -0.73356  -0.72463  -0.71991  -0.71411
 Alpha  occ. eigenvalues --   -0.69810  -0.69624  -0.65865  -0.65040  -0.63447
 Alpha  occ. eigenvalues --   -0.62804  -0.62679  -0.62408  -0.61820  -0.61300
 Alpha  occ. eigenvalues --   -0.60956  -0.59953  -0.59480  -0.59252  -0.58298
 Alpha  occ. eigenvalues --   -0.57862  -0.57653  -0.57117  -0.56881  -0.56618
 Alpha  occ. eigenvalues --   -0.54316  -0.53719  -0.53350  -0.52423  -0.52194
 Alpha  occ. eigenvalues --   -0.52070  -0.51757  -0.50198  -0.49677  -0.48309
 Alpha  occ. eigenvalues --   -0.47743  -0.47645  -0.47484  -0.47113  -0.46545
 Alpha  occ. eigenvalues --   -0.46512  -0.45990  -0.45462  -0.45140  -0.44772
 Alpha  occ. eigenvalues --   -0.44634  -0.44489  -0.44327  -0.44140  -0.43708
 Alpha  occ. eigenvalues --   -0.43564  -0.43242  -0.43135  -0.43033  -0.42828
 Alpha  occ. eigenvalues --   -0.42769  -0.42524  -0.42486  -0.42364  -0.42105
 Alpha  occ. eigenvalues --   -0.42073  -0.41763  -0.41501  -0.40819  -0.40357
 Alpha  occ. eigenvalues --   -0.40178  -0.38653  -0.38369  -0.37995  -0.37747
 Alpha  occ. eigenvalues --   -0.37658  -0.37251  -0.36833  -0.36623  -0.36384
 Alpha  occ. eigenvalues --   -0.36264  -0.35918  -0.35693  -0.35632  -0.35309
 Alpha  occ. eigenvalues --   -0.34955  -0.34537  -0.34345  -0.34221  -0.34090
 Alpha  occ. eigenvalues --   -0.33769  -0.33672  -0.33208  -0.32823  -0.32704
 Alpha  occ. eigenvalues --   -0.32304  -0.31329  -0.28556  -0.27975  -0.27283
 Alpha  occ. eigenvalues --   -0.26655  -0.26566  -0.26398  -0.26244  -0.25924
 Alpha  occ. eigenvalues --   -0.25723  -0.25284  -0.24256  -0.23480  -0.22969
 Alpha  occ. eigenvalues --   -0.21744  -0.21528  -0.19951  -0.18639  -0.17989
 Alpha virt. eigenvalues --   -0.03481  -0.03277  -0.03017  -0.02433  -0.01848
 Alpha virt. eigenvalues --   -0.01638  -0.01158  -0.00905  -0.00723  -0.00327
 Alpha virt. eigenvalues --    0.01102   0.01705   0.02352   0.03269   0.03605

 Mulliken charges:
               1
     1  C   -0.126091
     2  C   -0.133368
     3  C   -0.173363
     4  C    0.087609
     5  C    0.100241
     6  C   -0.190950
     7  C   -0.155909
     8  C    0.277263
     9  N   -0.750105
    10  C    0.312474
    11  C   -0.178610
    12  C   -0.142904
    13  C   -0.144555
    14  C   -0.199590
    15  C    0.056602
    16  C    0.057301
    17  C   -0.278828
    18  C    0.056517
    19  C    0.057688
    20  C   -0.199635
    21  C   -0.144782
    22  C   -0.142836
    23  C   -0.178673
    24  C    0.312281
    25  N   -0.747340
    26  C    0.267953
    27  C   -0.153465
    28  C   -0.191344
    29  C    0.103310
    30  C    0.084042
    31  C   -0.193989
    32  C   -0.177719
    33  C    0.320247
    34  C    0.065419
    35  C   -0.257317
    36  C    0.059112
    37  C   -0.195958
    38  C   -0.144895
    39  C   -0.141328
    40  C   -0.175808
    41  C    0.311780
    42  N   -0.735473
    43  C    0.260785
    44  C   -0.148526
    45  C   -0.142692
    46  C   -0.120679
    47  C   -0.142677
    48  C   -0.148307
    49  C   -0.194320
    50  C   -0.154579
    51  C    0.325437
    52  C   -0.256486
    53  C    0.324158
    54  C   -0.156350
    55  C   -0.190371
    56  C   -0.172394
    57  C   -0.133379
    58  H    0.131367
    59  H    0.132204
    60  H    0.132745
    61  H    0.140086
    62  H    0.153673
    63  H    0.137396
    64  H    0.124239
    65  H    0.122018
    66  H    0.127235
    67  H    0.133607
    68  H    0.126785
    69  H    0.121538
    70  H    0.123865
    71  H    0.137287
    72  H    0.148355
    73  H    0.136491
    74  H    0.131838
    75  H    0.143327
    76  H    0.132216
    77  H    0.127846
    78  H    0.124542
    79  H    0.128669
    80  H    0.141227
    81  H    0.152834
    82  H    0.140169
    83  H    0.137061
    84  H    0.140137
    85  H    0.153125
    86  H    0.137422
    87  H    0.151271
    88  H    0.154279
    89  H    0.150134
    90  H    0.137652
    91  H    0.130708
    92  H    0.132024
 Sum of Mulliken charges =  -0.00000

 Dipole moment (field-independent basis, Debye):
    X=             -4.2965    Y=              3.2458    Z=              1.0335  Tot=              5.4830
 Quadrupole moment (field-independent basis, Debye-Ang):
   XX=           -274.6009   YY=           -308.6059   ZZ=           -325.0568
   XY=              2.3968   XZ=             -0.7337   YZ=             -1.6656

 Normal termination of Gaussian 16 at Sat Nov  5 11:48:41 2022.
