 Gaussian 16, Revision B.01,
 Gaussian 16:  ES64L-G16RevB.01 20-Dec-2017

 -----------------------------
 #p b3lyp/6-31g(d) opt SCF=XQC
 -----------------------------

 ------------------------------
 Gaussian input prepared by ASE
 ------------------------------
 Symbolic Z-matrix:
 Charge =  0 Multiplicity = 1

 SCF Done:  E(RB3LYP) =  -2090.72682868     A.U. after   16 cycles
 SCF Done:  E(RB3LYP) =  -2090.73696957     A.U. after   13 cycles
 SCF Done:  E(RB3LYP) =  -2090.73744222     A.U. after   12 cycles
 SCF Done:  E(RB3LYP) =  -2090.73777696     A.U. after   12 cycles
 SCF Done:  E(RB3LYP) =  -2090.73784521     A.U. after   11 cycles
 SCF Done:  E(RB3LYP) =  -2090.73786356     A.U. after   11 cycles
 SCF Done:  E(RB3LYP) =  -2090.73786942     A.U. after    9 cycles
 SCF Done:  E(RB3LYP) =  -2090.73787224     A.U. after    9 cycles
 SCF Done:  E(RB3LYP) =  -2090.73787435     A.U. after    9 cycles
 SCF Done:  E(RB3LYP) =  -2090.73787616     A.U. after    9 cycles
 SCF Done:  E(RB3LYP) =  -2090.73787705     A.U. after    9 cycles
 SCF Done:  E(RB3LYP) =  -2090.73787726     A.U. after    7 cycles
 SCF Done:  E(RB3LYP) =  -2090.73787730     A.U. after    6 cycles
 SCF Done:  E(RB3LYP) =  -2090.73787733     A.U. after    6 cycles
 SCF Done:  E(RB3LYP) =  -2090.73787735     A.U. after    6 cycles
 Optimization completed.
    -- Stationary point found.

                         Standard orientation:
 ---------------------------------------------------------------------
 Center     Atomic      Atomic             Coordinates (Angstroms)
 Number     Number       Type             X           Y           Z
 ---------------------------------------------------------------------
      1          6           0        7.871842    1.425499    0.189704
      2          6           0        7.458929    0.044564   -0.375456
      3          6           0        7.475827    0.057611   -1.922869
      4          6           0        8.418488   -1.026942    0.143529
      5          6           0        9.791644   -1.135705   -0.043356
      6          6           0       10.475087   -2.213140    0.534114
      7          6           0        9.786537   -3.167776    1.289667
      8          6           0        8.406672   -3.062800    1.480304
      9          6           0        7.727464   -1.987717    0.903152
     10          6           0        6.309212   -1.619669    0.925220
     11          6           0        5.231629   -2.276304    1.550339
     12          6           0        3.949501   -1.777318    1.446559
     13          6           0        3.708346   -0.571440    0.711296
     14          6           0        2.373961   -0.036135    0.642144
     15          6           0        2.171965    1.096008   -0.145360
     16          6           0        3.267961    1.781628   -0.761325
     17          6           0        4.553758    1.302843   -0.647614
     18          6           0        4.815356    0.105872    0.068920
     19          6           0        6.119115   -0.451415    0.195249
     20          6           0        2.727754    2.956886   -1.418050
     21          6           0        3.303894    3.986117   -2.168095
     22          6           0        2.482551    4.977615   -2.700357
     23          6           0        1.095039    4.937550   -2.492189
     24          6           0        0.499283    3.920978   -1.745237
     25          6           0        1.332281    2.941703   -1.201055
     26          7           0        0.992457    1.818930   -0.423713
     27          6           0       -0.349300    1.349410   -0.332791
     28          6           0       -0.738805    0.172121   -0.983952
     29          6           0       -2.058621   -0.260178   -0.911812
     30          6           0       -3.024902    0.475176   -0.205041
     31          6           0       -4.442258    0.036397   -0.126301
     32          6           0       -5.004916   -0.846175   -1.055188
     33          6           0       -6.349439   -1.201809   -0.890720
     34          6           0       -7.041721   -2.135012   -1.816728
     35          6           0       -8.442513   -2.109554   -1.912313
     36          6           0       -9.109701   -2.966800   -2.783635
     37          6           0       -8.390897   -3.872098   -3.567833
     38          6           0       -6.998809   -3.915375   -3.472208
     39          6           0       -6.329778   -3.053461   -2.605117
     40          7           0       -7.076109   -0.685534    0.113791
     41          6           0       -6.467550    0.169435    0.950381
     42          6           0       -7.281578    0.738824    2.057111
     43          6           0       -8.632474    0.385844    2.201891
     44          6           0       -9.394884    0.921928    3.237137
     45          6           0       -8.820366    1.816406    4.143211
     46          6           0       -7.475822    2.170081    4.008046
     47          6           0       -6.710881    1.635661    2.973821
     48          7           0       -5.181272    0.544572    0.873557
     49          6           0       -2.621376    1.652345    0.444430
     50          6           0       -1.300331    2.085966    0.383513
     51          6           0        1.323351   -0.654926    1.450634
     52          6           0        1.514760   -1.790426    2.135477
     53          6           0        2.807478   -2.546006    2.087949
     54          1           0        8.879670    1.688688   -0.151632
     55          1           0        7.192150    2.219952   -0.132932
     56          1           0        7.877413    1.409990    1.284227
     57          1           0        7.211601   -0.927108   -2.321500
     58          1           0        8.475917    0.315696   -2.290004
     59          1           0        6.770453    0.787528   -2.331715
     60          1           0       10.336993   -0.398790   -0.628759
     61          1           0       11.548648   -2.307771    0.393931
     62          1           0       10.329843   -3.998610    1.732295
     63          1           0        7.876568   -3.807819    2.068443
     64          1           0        5.406558   -3.190921    2.113664
     65          1           0        5.367177    1.847291   -1.109954
     66          1           0        4.377164    4.008752   -2.338475
     67          1           0        2.916405    5.784698   -3.283527
     68          1           0        0.466792    5.713343   -2.921473
     69          1           0       -0.574974    3.895362   -1.597199
     70          1           0       -0.000269   -0.403475   -1.532794
     71          1           0       -2.330324   -1.190039   -1.401642
     72          1           0       -4.434680   -1.204400   -1.902371
     73          1           0       -8.992081   -1.405257   -1.297893
     74          1           0      -10.193571   -2.928320   -2.851915
     75          1           0       -8.912250   -4.542756   -4.245528
     76          1           0       -6.432440   -4.625855   -4.068132
     77          1           0       -5.248806   -3.118339   -2.523999
     78          1           0       -9.068595   -0.312658    1.496986
     79          1           0      -10.439685    0.640158    3.338198
     80          1           0       -9.416162    2.233733    4.950836
     81          1           0       -7.021639    2.863235    4.711235
     82          1           0       -5.665584    1.900991    2.864467
     83          1           0       -3.359018    2.216831    1.003233
     84          1           0       -0.993247    2.990740    0.899231
     85          1           0        0.369524   -0.147505    1.523741
     86          1           0        0.712517   -2.200704    2.744483
     87          1           0        2.650628   -3.493315    1.542852
     88          1           0        3.095175   -2.856841    3.103009
 ---------------------------------------------------------------------

 The electronic state is 1-A.
 Alpha  occ. eigenvalues --  -14.38263 -14.33346 -14.33275 -10.26346 -10.25046
 Alpha  occ. eigenvalues --  -10.24922 -10.24431 -10.22750 -10.22707 -10.21217
 Alpha  occ. eigenvalues --  -10.20875 -10.20614 -10.20527 -10.20468 -10.20430
 Alpha  occ. eigenvalues --  -10.20412 -10.20291 -10.20122 -10.19952 -10.19838
 Alpha  occ. eigenvalues --  -10.19804 -10.19670 -10.19654 -10.19487 -10.19466
 Alpha  occ. eigenvalues --  -10.19453 -10.19355 -10.19310 -10.19272 -10.19153
 Alpha  occ. eigenvalues --  -10.19112 -10.19063 -10.18978 -10.18977 -10.18801
 Alpha  occ. eigenvalues --  -10.18792 -10.18680 -10.18658 -10.18624 -10.18602
 Alpha  occ. eigenvalues --  -10.18469 -10.18419 -10.18410 -10.18404 -10.18397
 Alpha  occ. eigenvalues --  -10.18359 -10.18334 -10.18324 -10.18317 -10.18207
 Alpha  occ. eigenvalues --  -10.18002 -10.17620 -10.17612  -0.98892  -0.98737
 Alpha  occ. eigenvalues --   -0.89935  -0.88604  -0.87496  -0.86209  -0.85937
 Alpha  occ. eigenvalues --   -0.85219  -0.84463  -0.82371  -0.82159  -0.80950
 Alpha  occ. eigenvalues --   -0.79537  -0.78133  -0.76506  -0.76213  -0.76148
 Alpha  occ. eigenvalues --   -0.75466  -0.75223  -0.74448  -0.74150  -0.73954
 Alpha  occ. eigenvalues --   -0.72867  -0.72443  -0.71964  -0.70646  -0.68412
 Alpha  occ. eigenvalues --   -0.68053  -0.66529  -0.66311  -0.64405  -0.63089
 Alpha  occ. eigenvalues --   -0.62686  -0.61865  -0.61749  -0.60909  -0.60527
 Alpha  occ. eigenvalues --   -0.59510  -0.59280  -0.58251  -0.57962  -0.57604
 Alpha  occ. eigenvalues --   -0.56761  -0.55137  -0.54492  -0.53530  -0.53424
 Alpha  occ. eigenvalues --   -0.52245  -0.51883  -0.51356  -0.50156  -0.49579
 Alpha  occ. eigenvalues --   -0.49112  -0.48335  -0.48008  -0.47371  -0.46950
 Alpha  occ. eigenvalues --   -0.46762  -0.45961  -0.45663  -0.45233  -0.45201
 Alpha  occ. eigenvalues --   -0.44771  -0.43965  -0.43834  -0.43789  -0.43565
 Alpha  occ. eigenvalues --   -0.43443  -0.43260  -0.43138  -0.42970  -0.42780
 Alpha  occ. eigenvalues --   -0.42627  -0.42475  -0.42464  -0.41974  -0.41703
 Alpha  occ. eigenvalues --   -0.41513  -0.41181  -0.41046  -0.40482  -0.40421
 Alpha  occ. eigenvalues --   -0.39094  -0.38859  -0.38493  -0.38039  -0.37947
 Alpha  occ. eigenvalues --   -0.37557  -0.37020  -0.36365  -0.36153  -0.36068
 Alpha  occ. eigenvalues --   -0.35932  -0.35758  -0.35564  -0.35078  -0.34622
 Alpha  occ. eigenvalues --   -0.34557  -0.34278  -0.33944  -0.33895  -0.33626
 Alpha  occ. eigenvalues --   -0.33429  -0.32916  -0.32279  -0.31390  -0.31279
 Alpha  occ. eigenvalues --   -0.30466  -0.30261  -0.30103  -0.30017  -0.27197
 Alpha  occ. eigenvalues --   -0.26668  -0.25844  -0.25580  -0.25286  -0.25078
 Alpha  occ. eigenvalues --   -0.24853  -0.24598  -0.23955  -0.23430  -0.23215
 Alpha  occ. eigenvalues --   -0.22015  -0.20652  -0.17390
 Alpha virt. eigenvalues --   -0.06715  -0.05595  -0.05273  -0.02558  -0.01975
 Alpha virt. eigenvalues --   -0.01706  -0.00673  -0.00072   0.00249   0.00373
 Alpha virt. eigenvalues --    0.01746   0.02192   0.03052   0.04093   0.04401

 Mulliken charges:
               1
     1  C   -0.444511
     2  C   -0.052536
     3  C   -0.443978
     4  C    0.104188
     5  C   -0.204755
     6  C   -0.133158
     7  C   -0.136688
     8  C   -0.195917
     9  C    0.077290
    10  C    0.094294
    11  C   -0.283719
    12  C    0.111971
    13  C    0.017678
    14  C    0.077605
    15  C    0.207092
    16  C    0.091269
    17  C   -0.315407
    18  C    0.118079
    19  C   -0.023713
    20  C    0.064432
    21  C   -0.194317
    22  C   -0.145609
    23  C   -0.138155
    24  C   -0.182605
    25  C    0.313144
    26  N   -0.742802
    27  C    0.239194
    28  C   -0.135336
    29  C   -0.187076
    30  C    0.104551
    31  C    0.277932
    32  C   -0.221881
    33  C    0.276377
    34  C    0.093451
    35  C   -0.154814
    36  C   -0.136424
    37  C   -0.119471
    38  C   -0.138678
    39  C   -0.170690
    40  N   -0.553621
    41  C    0.444888
    42  C    0.074965
    43  C   -0.161502
    44  C   -0.138957
    45  C   -0.118697
    46  C   -0.139019
    47  C   -0.161518
    48  N   -0.557417
    49  C   -0.171561
    50  C   -0.163248
    51  C   -0.141501
    52  C   -0.134839
    53  C   -0.390179
    54  H    0.143024
    55  H    0.147391
    56  H    0.159440
    57  H    0.158114
    58  H    0.142825
    59  H    0.146828
    60  H    0.122273
    61  H    0.124447
    62  H    0.125151
    63  H    0.125959
    64  H    0.118540
    65  H    0.134683
    66  H    0.130590
    67  H    0.126181
    68  H    0.129436
    69  H    0.141153
    70  H    0.155254
    71  H    0.138536
    72  H    0.152039
    73  H    0.160332
    74  H    0.135974
    75  H    0.135169
    76  H    0.134646
    77  H    0.130366
    78  H    0.156756
    79  H    0.130420
    80  H    0.130531
    81  H    0.130493
    82  H    0.154895
    83  H    0.167720
    84  H    0.153972
    85  H    0.144525
    86  H    0.129624
    87  H    0.167684
    88  H    0.160926
 Sum of Mulliken charges =  -0.00000

 Dipole moment (field-independent basis, Debye):
    X=             -1.2251    Y=             -0.9794    Z=             -1.5087  Tot=              2.1763
 Quadrupole moment (field-independent basis, Debye-Ang):
   XX=           -283.8922   YY=           -285.4669   ZZ=           -292.9802
   XY=              5.7573   XZ=              1.8536   YZ=              3.0025

 1\1\GINC-NODE26\FOpt\RB3LYP\6-31G(d)\C50H35N3\WYKGROUP\05-Nov-2022\0\\
 #p b3lyp/6-31g(d) opt SCF=XQC\\Gaussian input prepared by ASE\\0,1\C,-
 7.7024880242,1.2808666604,0.2150156841\C,-7.2660086456,-0.181854697,-0
 .0434727943\C,-7.3378281845,-1.0142783946,1.2591609679\C,-8.1720996959
 ,-0.8046283479,-1.1061937386\C,-9.5468309578,-1.007944844,-1.073187060
 4\C,-10.174867113,-1.6017514715,-2.1751830194\C,-9.4300904601,-1.98527
 98886,-3.2952310636\C,-8.0484048462,-1.7830440719,-3.3331260709\C,-7.4
 245126771,-1.1910676167,-2.2328743099\C,-6.0187956035,-0.8598317419,-1

 Normal termination of Gaussian 16 at Sat Nov  5 01:49:15 2022.
