 Gaussian 16, Revision B.01,
 Gaussian 16:  ES64L-G16RevB.01 20-Dec-2017

 -----------------------------
 #p b3lyp/6-31g(d) opt SCF=XQC
 -----------------------------

 ------------------------------
 Gaussian input prepared by ASE
 ------------------------------
 Symbolic Z-matrix:
 Charge =  0 Multiplicity = 1

 SCF Done:  E(RB3LYP) =  -2065.05382815     A.U. after   17 cycles
 SCF Done:  E(RB3LYP) =  -2065.06500022     A.U. after   12 cycles
 SCF Done:  E(RB3LYP) =  -2065.06550862     A.U. after   12 cycles
 SCF Done:  E(RB3LYP) =  -2065.06565405     A.U. after   12 cycles
 SCF Done:  E(RB3LYP) =  -2065.06579113     A.U. after   12 cycles
 SCF Done:  E(RB3LYP) =  -2065.06586689     A.U. after   12 cycles
 SCF Done:  E(RB3LYP) =  -2065.06590481     A.U. after   13 cycles
 SCF Done:  E(RB3LYP) =  -2065.06594848     A.U. after   12 cycles
 SCF Done:  E(RB3LYP) =  -2065.06597266     A.U. after   11 cycles
 SCF Done:  E(RB3LYP) =  -2065.06598826     A.U. after   11 cycles
 SCF Done:  E(RB3LYP) =  -2065.06611742     A.U. after   13 cycles
 SCF Done:  E(RB3LYP) =  -2065.06613896     A.U. after   12 cycles
 SCF Done:  E(RB3LYP) =  -2065.06618064     A.U. after   11 cycles
 SCF Done:  E(RB3LYP) =  -2065.06618757     A.U. after   11 cycles
 SCF Done:  E(RB3LYP) =  -2065.06618550     A.U. after   10 cycles
 SCF Done:  E(RB3LYP) =  -2065.06619596     A.U. after   12 cycles
 SCF Done:  E(RB3LYP) =  -2065.06619697     A.U. after   10 cycles
 SCF Done:  E(RB3LYP) =  -2065.06619707     A.U. after   10 cycles
 SCF Done:  E(RB3LYP) =  -2065.06619716     A.U. after   10 cycles
 SCF Done:  E(RB3LYP) =  -2065.06619717     A.U. after    7 cycles
 Optimization completed.
    -- Stationary point found.

                         Standard orientation:
 ---------------------------------------------------------------------
 Center     Atomic      Atomic             Coordinates (Angstroms)
 Number     Number       Type             X           Y           Z
 ---------------------------------------------------------------------
      1          6           0        9.369227    0.805804    0.835006
      2          6           0        9.168373   -0.140380   -0.171025
      3          6           0        7.889387   -0.637855   -0.420674
      4          6           0        6.791459   -0.186408    0.329746
      5          6           0        5.406940   -0.657202    0.057323
      6          7           0        4.473374    0.281058    0.055348
      7          6           0        3.200676   -0.074479   -0.248978
      8          7           0        2.257939    0.967508   -0.218789
      9          6           0        2.539245    2.342589   -0.313226
     10          6           0        3.743340    3.030549   -0.477661
     11          6           0        3.662023    4.417229   -0.569657
     12          7           0        2.523796    5.129843   -0.510218
     13          6           0        1.381885    4.458264   -0.360791
     14          6           0        1.315958    3.059795   -0.260123
     15          6           0        0.250418    2.085428   -0.118042
     16          6           0       -1.171511    2.187023   -0.008235
     17          6           0       -1.851363    3.426833   -0.044501
     18          6           0       -3.225770    3.480195    0.037159
     19          6           0       -3.976092    2.298832    0.141341
     20          6           0       -3.358954    1.058580    0.184786
     21          6           0       -1.939176    0.976099    0.134968
     22          6           0       -1.265477   -0.293610    0.224530
     23          6           0        0.109567   -0.355938    0.077008
     24          6           0        0.852767    0.823390   -0.102345
     25          6           0       -2.051546   -1.517000    0.500028
     26          6           0       -1.417298   -2.742215    0.799213
     27          6           0       -2.141190   -3.898696    1.049812
     28          6           0       -3.537602   -3.862895    1.016151
     29          6           0       -4.179464   -2.660782    0.747802
     30          6           0       -3.459051   -1.483263    0.498667
     31          6           0       -4.237009   -0.200281    0.188532
     32          6           0       -4.957275   -0.338770   -1.169927
     33          6           0       -4.398170   -0.514727   -2.429565
     34          6           0       -5.247268   -0.616960   -3.536886
     35          6           0       -6.635859   -0.544850   -3.379305
     36          6           0       -7.199227   -0.369294   -2.113620
     37          6           0       -6.353407   -0.266143   -1.007067
     38          6           0       -6.652112   -0.080747    0.419798
     39          6           0       -7.870286    0.047857    1.092001
     40          6           0       -7.861337    0.216824    2.478103
     41          6           0       -6.653182    0.257154    3.183605
     42          6           0       -5.432786    0.128714    2.511812
     43          6           0       -5.438921   -0.039885    1.132206
     44          7           0        2.785374   -1.279765   -0.580470
     45          6           0        3.707768   -2.279228   -0.524755
     46          6           0        3.293697   -3.605005   -0.814765
     47          6           0        4.189382   -4.646205   -0.717132
     48          6           0        5.527172   -4.412595   -0.317813
     49          6           0        5.960965   -3.131768   -0.052000
     50          6           0        5.071851   -2.032619   -0.176886
     51          6           0        7.001009    0.784156    1.323376
     52          6           0        8.281503    1.267586    1.580476
     53          1           0       10.367084    1.187833    1.032364
     54          1           0       10.006261   -0.487461   -0.769301
     55          1           0        7.737938   -1.351422   -1.224649
     56          1           0        4.694201    2.521531   -0.515953
     57          1           0        4.575381    4.995842   -0.696307
     58          1           0        0.486328    5.071059   -0.322728
     59          1           0       -1.289367    4.345766   -0.143599
     60          1           0       -3.735300    4.439510    0.008162
     61          1           0       -5.059026    2.359196    0.178685
     62          1           0        0.631639   -1.297572    0.071372
     63          1           0       -0.335823   -2.788525    0.856735
     64          1           0       -1.618696   -4.823880    1.278129
     65          1           0       -4.119626   -4.760127    1.207813
     66          1           0       -5.264394   -2.626462    0.733544
     67          1           0       -3.320213   -0.570863   -2.555402
     68          1           0       -4.823675   -0.753273   -4.528286
     69          1           0       -7.281751   -0.626052   -4.249532
     70          1           0       -8.278622   -0.314357   -1.995998
     71          1           0       -8.811389    0.017847    0.548704
     72          1           0       -8.801417    0.318428    3.013888
     73          1           0       -6.662750    0.389699    4.262114
     74          1           0       -4.495446    0.161109    3.060832
     75          1           0        2.258474   -3.764164   -1.099215
     76          1           0        3.864850   -5.660632   -0.932618
     77          1           0        6.211956   -5.249221   -0.214516
     78          1           0        6.980252   -2.960287    0.274514
     79          1           0        6.149430    1.148493    1.888687
     80          1           0        8.430658    2.008868    2.360649
 ---------------------------------------------------------------------

 The electronic state is 1-A.
 Alpha  occ. eigenvalues --  -14.39928 -14.34768 -14.34094 -14.31329 -10.30648
 Alpha  occ. eigenvalues --  -10.26657 -10.24828 -10.23546 -10.22940 -10.22084
 Alpha  occ. eigenvalues --  -10.21629 -10.21506 -10.21436 -10.21418 -10.21290
 Alpha  occ. eigenvalues --  -10.21032 -10.20926 -10.20742 -10.20698 -10.20596
 Alpha  occ. eigenvalues --  -10.20570 -10.20514 -10.20428 -10.19972 -10.19927
 Alpha  occ. eigenvalues --  -10.19723 -10.19703 -10.19673 -10.19598 -10.19440
 Alpha  occ. eigenvalues --  -10.19382 -10.19224 -10.19112 -10.19062 -10.19033
 Alpha  occ. eigenvalues --  -10.18994 -10.18925 -10.18838 -10.18819 -10.18753
 Alpha  occ. eigenvalues --  -10.18700 -10.18637 -10.18590 -10.18530 -10.18529
 Alpha  occ. eigenvalues --  -10.18502 -10.18462 -10.18444 -10.18429 -10.18257
 Alpha  occ. eigenvalues --  -10.18228 -10.17988  -1.02650  -0.97321  -0.92290
 Alpha  occ. eigenvalues --   -0.91244  -0.89604  -0.87711  -0.86968  -0.86206
 Alpha  occ. eigenvalues --   -0.85046  -0.84029  -0.82574  -0.81035  -0.80305
 Alpha  occ. eigenvalues --   -0.78830  -0.78206  -0.76923  -0.76621  -0.75910
 Alpha  occ. eigenvalues --   -0.75617  -0.74962  -0.74266  -0.73913  -0.73790
 Alpha  occ. eigenvalues --   -0.73259  -0.71232  -0.71083  -0.68468  -0.67686
 Alpha  occ. eigenvalues --   -0.66620  -0.64323  -0.63355  -0.63293  -0.62472
 Alpha  occ. eigenvalues --   -0.62052  -0.61348  -0.60993  -0.59990  -0.59747
 Alpha  occ. eigenvalues --   -0.58590  -0.58063  -0.57476  -0.57199  -0.55955
 Alpha  occ. eigenvalues --   -0.55319  -0.54309  -0.53220  -0.52419  -0.52171
 Alpha  occ. eigenvalues --   -0.51803  -0.50935  -0.49619  -0.49189  -0.48987
 Alpha  occ. eigenvalues --   -0.48461  -0.47233  -0.47085  -0.46884  -0.46730
 Alpha  occ. eigenvalues --   -0.46218  -0.45737  -0.45609  -0.45285  -0.44962
 Alpha  occ. eigenvalues --   -0.44807  -0.44581  -0.43853  -0.43659  -0.43512
 Alpha  occ. eigenvalues --   -0.43231  -0.42965  -0.42797  -0.42282  -0.41699
 Alpha  occ. eigenvalues --   -0.41520  -0.41161  -0.41016  -0.40943  -0.40650
 Alpha  occ. eigenvalues --   -0.39371  -0.39100  -0.38514  -0.38223  -0.38015
 Alpha  occ. eigenvalues --   -0.37803  -0.37719  -0.37198  -0.36938  -0.36676
 Alpha  occ. eigenvalues --   -0.36248  -0.35981  -0.35586  -0.35528  -0.35289
 Alpha  occ. eigenvalues --   -0.34859  -0.34772  -0.34214  -0.33657  -0.33443
 Alpha  occ. eigenvalues --   -0.33265  -0.32348  -0.31441  -0.31297  -0.31028
 Alpha  occ. eigenvalues --   -0.29974  -0.27919  -0.27803  -0.26924  -0.26637
 Alpha  occ. eigenvalues --   -0.26260  -0.26058  -0.25871  -0.24734  -0.24380
 Alpha  occ. eigenvalues --   -0.24316  -0.24050  -0.24014  -0.23230  -0.21459
 Alpha  occ. eigenvalues --   -0.20973  -0.18791
 Alpha virt. eigenvalues --   -0.08012  -0.05368  -0.03731  -0.02912  -0.02285
 Alpha virt. eigenvalues --   -0.01575  -0.01336  -0.01077  -0.00488   0.00380
 Alpha virt. eigenvalues --    0.00520   0.01272   0.02008   0.02717   0.04670

 Mulliken charges:
               1
     1  C   -0.119187
     2  C   -0.137842
     3  C   -0.172867
     4  C    0.094278
     5  C    0.201066
     6  N   -0.541567
     7  C    0.675501
     8  N   -0.759892
     9  C    0.334262
    10  C   -0.162732
    11  C    0.020598
    12  N   -0.430771
    13  C   -0.025927
    14  C    0.042733
    15  C   -0.065181
    16  C    0.080210
    17  C   -0.192568
    18  C   -0.139489
    19  C   -0.207124
    20  C    0.117877
    21  C    0.026582
    22  C    0.090866
    23  C   -0.275418
    24  C    0.328134
    25  C    0.057489
    26  C   -0.196384
    27  C   -0.136111
    28  C   -0.129328
    29  C   -0.198196
    30  C    0.136017
    31  C   -0.261209
    32  C    0.130583
    33  C   -0.185793
    34  C   -0.134179
    35  C   -0.135223
    36  C   -0.189892
    37  C    0.076291
    38  C    0.071935
    39  C   -0.193471
    40  C   -0.134501
    41  C   -0.136895
    42  C   -0.181487
    43  C    0.082741
    44  N   -0.565113
    45  C    0.273443
    46  C   -0.161658
    47  C   -0.127613
    48  C   -0.137411
    49  C   -0.197797
    50  C    0.109214
    51  C   -0.146073
    52  C   -0.137228
    53  H    0.139742
    54  H    0.139428
    55  H    0.148376
    56  H    0.170951
    57  H    0.135696
    58  H    0.149597
    59  H    0.140935
    60  H    0.131549
    61  H    0.141174
    62  H    0.183045
    63  H    0.134911
    64  H    0.125287
    65  H    0.128741
    66  H    0.143095
    67  H    0.141713
    68  H    0.129727
    69  H    0.128134
    70  H    0.128289
    71  H    0.129752
    72  H    0.129066
    73  H    0.130076
    74  H    0.139467
    75  H    0.153740
    76  H    0.144969
    77  H    0.141726
    78  H    0.157365
    79  H    0.157392
    80  H    0.142369
 Sum of Mulliken charges =  -0.00000

 Dipole moment (field-independent basis, Debye):
    X=              3.2335    Y=             -5.0508    Z=              0.6169  Tot=              6.0288
 Quadrupole moment (field-independent basis, Debye-Ang):
   XX=           -225.6415   YY=           -292.2714   ZZ=           -287.5546
   XY=            -18.0423   XZ=              1.5280   YZ=              5.8692

 1\1\GINC-NODE13\FOpt\RB3LYP\6-31G(d)\C48H28N4\WYKGROUP\05-Nov-2022\0\\
 #p b3lyp/6-31g(d) opt SCF=XQC\\Gaussian input prepared by ASE\\0,1\C,9
 .2798349133,1.7091325509,-1.0264837937\C,9.1736406022,0.3395024845,-0.
 7804306451\C,7.9478360149,-0.2135243284,-0.4100584484\C,6.8082981696,0
 .5984972893,-0.2898351386\C,5.4750780769,0.0351918313,0.0536280442\N,4
 .4585234219,0.4960264833,-0.6578006108\C,3.2261386754,-0.0243619189,-0
 .4359769214\N,2.1906381378,0.5197078,-1.2151607938\C,2.3437227458,1.21
 13357424,-2.4305270257\C,3.4797634731,1.519309526,-3.1820170488\C,3.27

 Normal termination of Gaussian 16 at Sat Nov  5 03:55:14 2022.
