 Gaussian 16, Revision B.01,
 Gaussian 16:  ES64L-G16RevB.01 20-Dec-2017

 -------------------------------------------------------------------
 #p b3lyp/6-31g(d) 6D 10F nosymm GFInput td=(50-50,nstate=2) SCF=XQC
 -------------------------------------------------------------------

 ------------------------------
 Gaussian input prepared by ASE
 ------------------------------
 Symbolic Z-matrix:
 Charge =  0 Multiplicity = 1

                          Input orientation:
 ---------------------------------------------------------------------
 Center     Atomic      Atomic             Coordinates (Angstroms)
 Number     Number       Type             X           Y           Z
 ---------------------------------------------------------------------
      1          6           0        9.279835    1.709133   -1.026484
      2          6           0        9.173641    0.339502   -0.780431
      3          6           0        7.947836   -0.213524   -0.410058
      4          6           0        6.808298    0.598497   -0.289835
      5          6           0        5.475078    0.035192    0.053628
      6          7           0        4.458523    0.496026   -0.657801
      7          6           0        3.226139   -0.024362   -0.435977
      8          7           0        2.190638    0.519708   -1.215161
      9          6           0        2.343723    1.211336   -2.430527
     10          6           0        3.479763    1.519310   -3.182017
     11          6           0        3.270704    2.198981   -4.378803
     12          7           0        2.070942    2.575724   -4.853720
     13          6           0        0.995386    2.267712   -4.128727
     14          6           0        1.058880    1.580538   -2.906452
     15          6           0        0.087498    1.104525   -1.939611
     16          6           0       -1.338354    1.172043   -1.858083
     17          6           0       -2.130064    1.784000   -2.857756
     18          6           0       -3.503957    1.804240   -2.755203
     19          6           0       -4.142057    1.200718   -1.660650
     20          6           0       -3.412792    0.590986   -0.652002
     21          6           0       -1.991213    0.583873   -0.716160
     22          6           0       -1.203174   -0.000385    0.338208
     23          6           0        0.172579   -0.080444    0.206726
     24          6           0        0.804225    0.458862   -0.927073
     25          6           0       -1.873990   -0.486084    1.564824
     26          6           0       -1.130613   -0.873295    2.700777
     27          6           0       -1.745580   -1.339555    3.853464
     28          6           0       -3.139065   -1.426374    3.908626
     29          6           0       -3.888065   -1.026548    2.809439
     30          6           0       -3.278522   -0.547719    1.640339
     31          6           0       -4.170281   -0.146007    0.461002
     32          6           0       -4.866463   -1.395511   -0.119898
     33          6           0       -4.285928   -2.511331   -0.709960
     34          6           0       -5.115249   -3.538700   -1.172906
     35          6           0       -6.505458   -3.445644   -1.043000
     36          6           0       -7.090236   -2.325240   -0.448954
     37          6           0       -6.264260   -1.298191    0.013049
     38          6           0       -6.587397   -0.023092    0.668216
     39          6           0       -7.816244    0.539772    1.022426
     40          6           0       -7.831291    1.789127    1.645961
     41          6           0       -6.636326    2.467531    1.912086
     42          6           0       -5.405284    1.905223    1.557802
     43          6           0       -5.387508    0.661646    0.937337
     44          7           0        2.926432   -0.985594    0.413308
     45          6           0        3.937219   -1.435819    1.206055
     46          6           0        3.649668   -2.428504    2.178235
     47          6           0        4.637484   -2.868168    3.030758
     48          6           0        5.945422   -2.331803    2.957808
     49          6           0        6.256925   -1.382861    2.008164
     50          6           0        5.270438   -0.933758    1.091977
     51          6           0        6.920963    1.971651   -0.563628
     52          6           0        8.149527    2.523270   -0.918334
     53          1           0       10.236750    2.139409   -1.308955
     54          1           0       10.043674   -0.302942   -0.884170
     55          1           0        7.868046   -1.284195   -0.249472
     56          1           0        4.473957    1.261415   -2.850700
     57          1           0        4.127186    2.462144   -4.997060
     58          1           0        0.046630    2.585470   -4.550487
     59          1           0       -1.655159    2.237176   -3.717520
     60          1           0       -4.100104    2.277895   -3.530450
     61          1           0       -5.226124    1.204199   -1.609957
     62          1           0        0.779780   -0.572578    0.947251
     63          1           0       -0.049869   -0.790020    2.690845
     64          1           0       -1.140883   -1.627501    4.709339
     65          1           0       -3.636477   -1.791560    4.802904
     66          1           0       -4.971396   -1.080512    2.853454
     67          1           0       -3.206679   -2.586582   -0.812609
     68          1           0       -4.674919   -4.416638   -1.637903
     69          1           0       -7.135819   -4.252308   -1.407695
     70          1           0       -8.170756   -2.257580   -0.349733
     71          1           0       -8.747240    0.017317    0.817411
     72          1           0       -8.779928    2.239002    1.926746
     73          1           0       -6.664593    3.439300    2.397583
     74          1           0       -4.478289    2.433550    1.764273
     75          1           0        2.635392   -2.811215    2.230272
     76          1           0        4.409753   -3.622809    3.778739
     77          1           0        6.704238   -2.666320    3.659122
     78          1           0        7.253938   -0.959196    1.970274
     79          1           0        6.035894    2.595301   -0.491395
     80          1           0        8.224605    3.589168   -1.114905
 ---------------------------------------------------------------------

 SCF Done:  E(RB3LYP) =  -2065.06619228     A.U. after   17 cycles

 Excitation energies and oscillator strengths:

 Excited state symmetry could not be determined.
 Excited State   1:      Triplet-?Sym    2.1593 eV  574.19 nm  f=0.0000  <S**2>=2.000
     172 ->173        -0.31510
     172 ->174         0.59027
     172 ->175        -0.11335
 This state for optimization and/or second-order correction.
 Total Energy, E(TD-HF/TD-DFT) =  -2064.98683960
 Copying the excited state density for this state as the 1-particle RhoCI density.

 Excited state symmetry could not be determined.
 Excited State   2:      Triplet-?Sym    2.4896 eV  498.00 nm  f=0.0000  <S**2>=2.000
     165 ->173         0.11904
     170 ->173        -0.23650
     172 ->173         0.55426
     172 ->174         0.27823

 Excited state symmetry could not be determined.
 Excited State   3:      Singlet-?Sym    2.5018 eV  495.58 nm  f=0.0096  <S**2>=0.000
     172 ->173         0.70507

 Excited state symmetry could not be determined.
 Excited State   4:      Singlet-?Sym    3.1350 eV  395.48 nm  f=0.0570  <S**2>=0.000
     170 ->173         0.58653
     171 ->173         0.37152

 Alpha  occ. eigenvalues --  -14.39928 -14.34768 -14.34094 -14.31329 -10.30648
 Alpha  occ. eigenvalues --  -10.26657 -10.24828 -10.23546 -10.22940 -10.22084
 Alpha  occ. eigenvalues --  -10.21629 -10.21507 -10.21436 -10.21418 -10.21290
 Alpha  occ. eigenvalues --  -10.21032 -10.20926 -10.20742 -10.20698 -10.20596
 Alpha  occ. eigenvalues --  -10.20570 -10.20514 -10.20428 -10.19972 -10.19927
 Alpha  occ. eigenvalues --  -10.19723 -10.19703 -10.19673 -10.19598 -10.19440
 Alpha  occ. eigenvalues --  -10.19382 -10.19223 -10.19112 -10.19062 -10.19032
 Alpha  occ. eigenvalues --  -10.18994 -10.18925 -10.18838 -10.18819 -10.18753
 Alpha  occ. eigenvalues --  -10.18700 -10.18637 -10.18590 -10.18530 -10.18529
 Alpha  occ. eigenvalues --  -10.18502 -10.18462 -10.18444 -10.18429 -10.18257
 Alpha  occ. eigenvalues --  -10.18228 -10.17988  -1.02650  -0.97321  -0.92290
 Alpha  occ. eigenvalues --   -0.91244  -0.89604  -0.87711  -0.86968  -0.86206
 Alpha  occ. eigenvalues --   -0.85046  -0.84028  -0.82574  -0.81035  -0.80305
 Alpha  occ. eigenvalues --   -0.78830  -0.78206  -0.76923  -0.76621  -0.75910
 Alpha  occ. eigenvalues --   -0.75617  -0.74962  -0.74266  -0.73913  -0.73790
 Alpha  occ. eigenvalues --   -0.73259  -0.71232  -0.71083  -0.68468  -0.67686
 Alpha  occ. eigenvalues --   -0.66620  -0.64323  -0.63355  -0.63293  -0.62472
 Alpha  occ. eigenvalues --   -0.62052  -0.61348  -0.60993  -0.59990  -0.59747
 Alpha  occ. eigenvalues --   -0.58590  -0.58063  -0.57476  -0.57199  -0.55955
 Alpha  occ. eigenvalues --   -0.55319  -0.54309  -0.53220  -0.52419  -0.52171
 Alpha  occ. eigenvalues --   -0.51803  -0.50935  -0.49619  -0.49189  -0.48987
 Alpha  occ. eigenvalues --   -0.48461  -0.47233  -0.47085  -0.46884  -0.46730
 Alpha  occ. eigenvalues --   -0.46218  -0.45737  -0.45609  -0.45285  -0.44962
 Alpha  occ. eigenvalues --   -0.44807  -0.44581  -0.43853  -0.43659  -0.43512
 Alpha  occ. eigenvalues --   -0.43231  -0.42965  -0.42797  -0.42282  -0.41699
 Alpha  occ. eigenvalues --   -0.41520  -0.41161  -0.41015  -0.40942  -0.40650
 Alpha  occ. eigenvalues --   -0.39371  -0.39100  -0.38514  -0.38223  -0.38015
 Alpha  occ. eigenvalues --   -0.37803  -0.37719  -0.37198  -0.36938  -0.36676
 Alpha  occ. eigenvalues --   -0.36248  -0.35981  -0.35586  -0.35528  -0.35289
 Alpha  occ. eigenvalues --   -0.34859  -0.34772  -0.34214  -0.33657  -0.33443
 Alpha  occ. eigenvalues --   -0.33265  -0.32348  -0.31441  -0.31297  -0.31028
 Alpha  occ. eigenvalues --   -0.29974  -0.27919  -0.27803  -0.26924  -0.26637
 Alpha  occ. eigenvalues --   -0.26260  -0.26058  -0.25871  -0.24734  -0.24380
 Alpha  occ. eigenvalues --   -0.24316  -0.24050  -0.24015  -0.23230  -0.21459
 Alpha  occ. eigenvalues --   -0.20973  -0.18791
 Alpha virt. eigenvalues --   -0.08012  -0.05368  -0.03731  -0.02912  -0.02285
 Alpha virt. eigenvalues --   -0.01575  -0.01336  -0.01077  -0.00488   0.00381
 Alpha virt. eigenvalues --    0.00520   0.01272   0.02008   0.02716   0.04670

 Mulliken charges:
               1
     1  C   -0.119186
     2  C   -0.137846
     3  C   -0.172859
     4  C    0.094283
     5  C    0.201032
     6  N   -0.541536
     7  C    0.675471
     8  N   -0.759883
     9  C    0.334261
    10  C   -0.162728
    11  C    0.020599
    12  N   -0.430768
    13  C   -0.025919
    14  C    0.042737
    15  C   -0.065175
    16  C    0.080198
    17  C   -0.192566
    18  C   -0.139493
    19  C   -0.207113
    20  C    0.117850
    21  C    0.026599
    22  C    0.090860
    23  C   -0.275410
    24  C    0.328102
    25  C    0.057520
    26  C   -0.196403
    27  C   -0.136111
    28  C   -0.129323
    29  C   -0.198207
    30  C    0.136017
    31  C   -0.261210
    32  C    0.130580
    33  C   -0.185796
    34  C   -0.134180
    35  C   -0.135219
    36  C   -0.189899
    37  C    0.076292
    38  C    0.071941
    39  C   -0.193470
    40  C   -0.134505
    41  C   -0.136893
    42  C   -0.181490
    43  C    0.082755
    44  N   -0.565115
    45  C    0.273450
    46  C   -0.161662
    47  C   -0.127613
    48  C   -0.137414
    49  C   -0.197805
    50  C    0.109239
    51  C   -0.146074
    52  C   -0.137230
    53  H    0.139742
    54  H    0.139428
    55  H    0.148376
    56  H    0.170952
    57  H    0.135695
    58  H    0.149596
    59  H    0.140935
    60  H    0.131550
    61  H    0.141174
    62  H    0.183045
    63  H    0.134914
    64  H    0.125286
    65  H    0.128740
    66  H    0.143095
    67  H    0.141712
    68  H    0.129727
    69  H    0.128133
    70  H    0.128289
    71  H    0.129752
    72  H    0.129065
    73  H    0.130076
    74  H    0.139466
    75  H    0.153739
    76  H    0.144970
    77  H    0.141726
    78  H    0.157367
    79  H    0.157392
    80  H    0.142369
 Sum of Mulliken charges =  -0.00000

 Dipole moment (field-independent basis, Debye):
    X=              3.6844    Y=             -2.0757    Z=              4.2970  Tot=              6.0288
 Quadrupole moment (field-independent basis, Debye-Ang):
   XX=           -222.6683   YY=           -284.5603   ZZ=           -299.2564
   XY=             -5.1688   XZ=             10.1165   YZ=              1.5777

 Normal termination of Gaussian 16 at Sat Nov  5 11:02:20 2022.
