 Gaussian 16, Revision B.01,
 Gaussian 16:  ES64L-G16RevB.01 20-Dec-2017

 -------------------------------------------------------------------
 #p b3lyp/6-31g(d) 6D 10F nosymm GFInput td=(50-50,nstate=2) SCF=XQC
 -------------------------------------------------------------------

 ------------------------------
 Gaussian input prepared by ASE
 ------------------------------
 Symbolic Z-matrix:
 Charge =  0 Multiplicity = 1

                          Input orientation:
 ---------------------------------------------------------------------
 Center     Atomic      Atomic             Coordinates (Angstroms)
 Number     Number       Type             X           Y           Z
 ---------------------------------------------------------------------
      1          6           0       -6.104337   -7.029208   -1.838732
      2          6           0       -5.325992   -6.039831   -2.444066
      3          6           0       -5.327306   -4.741057   -1.941526
      4          6           0       -6.116786   -4.404931   -0.829860
      5          6           0       -6.113089   -3.008896   -0.320404
      6          6           0       -7.161586   -2.489558    0.448194
      7          6           0       -7.064703   -1.162235    0.882533
      8          6           0       -8.121673   -0.515074    1.702553
      9          6           0       -7.802667    0.602070    2.491392
     10          6           0       -8.774267    1.216038    3.277761
     11          6           0      -10.084727    0.732507    3.281986
     12          6           0      -10.416690   -0.369446    2.491782
     13          6           0       -9.443397   -0.989248    1.710062
     14          7           0       -5.987707   -0.419092    0.577832
     15          6           0       -5.032974   -0.987208   -0.174207
     16          6           0       -3.852990   -0.153203   -0.520771
     17          6           0       -2.768344   -0.702962   -1.221481
     18          6           0       -1.665947    0.077066   -1.553994
     19          6           0       -1.618499    1.426694   -1.178312
     20          7           0       -0.496598    2.228468   -1.512263
     21          6           0       -0.533559    3.409700   -2.251080
     22          6           0       -1.640093    4.035654   -2.832187
     23          6           0       -1.417686    5.173652   -3.600544
     24          6           0       -0.117226    5.661451   -3.803860
     25          6           0        0.979519    5.029487   -3.226706
     26          6           0        0.792849    3.898939   -2.414740
     27          6           0        1.670861    2.981407   -1.703167
     28          6           0        3.059050    2.896004   -1.430209
     29          6           0        4.201923    3.756507   -1.682665
     30          6           0        4.335443    5.063957   -2.170586
     31          6           0        5.596047    5.643428   -2.263325
     32          6           0        6.733444    4.929975   -1.864229
     33          6           0        6.632411    3.641675   -1.344839
     34          6           0        5.360968    3.066855   -1.242919
     35          7           0        4.967304    1.838588   -0.667807
     36          6           0        5.836302    0.891548   -0.114396
     37          7           0        5.284094    0.012864    0.762371
     38          6           0        6.064748   -0.890410    1.330906
     39          6           0        5.378077   -1.859846    2.228007
     40          6           0        4.376278   -1.397411    3.097050
     41          6           0        3.693921   -2.284565    3.926033
     42          6           0        3.986418   -3.650148    3.885378
     43          6           0        4.963642   -4.123245    3.008557
     44          6           0        5.658906   -3.235076    2.187701
     45          6           0        7.479307   -0.902165    1.093418
     46          6           0        8.422662   -1.728014    1.758336
     47          6           0        9.760317   -1.659604    1.433870
     48          6           0       10.207446   -0.762713    0.433784
     49          6           0        9.321676    0.074715   -0.205860
     50          6           0        7.941059    0.041752    0.124340
     51          7           0        7.101773    0.916529   -0.490299
     52          6           0        3.550368    1.750117   -0.756070
     53          6           0        2.702425    0.732267   -0.291265
     54          6           0        1.334935    0.845980   -0.496038
     55          6           0        0.838697    1.947432   -1.201169
     56          6           0       -2.695076    1.981842   -0.473008
     57          6           0       -3.801033    1.200780   -0.155248
     58          7           0       -5.054885   -2.245190   -0.639839
     59          6           0       -6.890957   -5.408701   -0.225706
     60          6           0       -6.883198   -6.709921   -0.725010
     61          1           0       -6.100613   -8.043242   -2.229387
     62          1           0       -4.716277   -6.280999   -3.310677
     63          1           0       -4.723855   -3.967335   -2.402916
     64          1           0       -8.021694   -3.096244    0.699230
     65          1           0       -6.783721    0.972600    2.478995
     66          1           0       -8.508626    2.074265    3.889165
     67          1           0      -10.843335    1.214005    3.893175
     68          1           0      -11.436721   -0.743711    2.477757
     69          1           0       -9.725295   -1.828915    1.081744
     70          1           0       -2.807244   -1.746901   -1.510612
     71          1           0       -0.841904   -0.349525   -2.117010
     72          1           0       -2.639609    3.634259   -2.703244
     73          1           0       -2.262067    5.677673   -4.062868
     74          1           0        0.038503    6.535459   -4.429945
     75          1           0        1.973842    5.392772   -3.447965
     76          1           0        3.461452    5.643765   -2.432431
     77          1           0        5.695260    6.657194   -2.641328
     78          1           0        7.715434    5.387876   -1.948395
     79          1           0        7.508961    3.094348   -1.033764
     80          1           0        4.144783   -0.337332    3.112844
     81          1           0        2.929814   -1.910661    4.602015
     82          1           0        3.449774   -4.342395    4.528481
     83          1           0        5.181538   -5.186462    2.956096
     84          1           0        6.397343   -3.615032    1.488487
     85          1           0        8.087208   -2.400475    2.539722
     86          1           0       10.477161   -2.290690    1.951141
     87          1           0       11.264053   -0.726025    0.182078
     88          1           0        9.646449    0.784095   -0.960287
     89          1           0        3.105254   -0.112238    0.245284
     90          1           0        0.665881    0.082475   -0.115149
     91          1           0       -2.651755    3.022624   -0.167619
     92          1           0       -4.635056    1.628276    0.389337
     93          1           0       -7.482762   -5.184282    0.656744
     94          1           0       -7.481058   -7.476216   -0.239102
 ---------------------------------------------------------------------

 SCF Done:  E(RB3LYP) =  -2406.83752247     A.U. after   16 cycles

 Excitation energies and oscillator strengths:

 Excited state symmetry could not be determined.
 Excited State   1:      Triplet-?Sym    2.2928 eV  540.75 nm  f=0.0000  <S**2>=2.000
     195 ->201         0.16666
     198 ->201        -0.16672
     199 ->201         0.21004
     200 ->201         0.61545
 This state for optimization and/or second-order correction.
 Total Energy, E(TD-HF/TD-DFT) =  -2406.75326248
 Copying the excited state density for this state as the 1-particle RhoCI density.

 Excited state symmetry could not be determined.
 Excited State   2:      Singlet-?Sym    2.5278 eV  490.49 nm  f=0.0403  <S**2>=0.000
     200 ->201         0.70220

 Excited state symmetry could not be determined.
 Excited State   3:      Triplet-?Sym    2.6856 eV  461.66 nm  f=0.0000  <S**2>=2.000
     196 ->203         0.21537
     198 ->203         0.15367
     199 ->201         0.18832
     199 ->204        -0.11022
     200 ->203         0.53449
     200 ->204         0.10521
     200 ->206         0.10034

 Excited state symmetry could not be determined.
 Excited State   4:      Singlet-?Sym    2.8366 eV  437.08 nm  f=0.0197  <S**2>=0.000
     199 ->201         0.70213

 Alpha  occ. eigenvalues --  -14.38441 -14.37515 -14.33757 -14.33238 -14.33237
 Alpha  occ. eigenvalues --  -14.32851 -10.29470 -10.26318 -10.25697 -10.24827
 Alpha  occ. eigenvalues --  -10.24826 -10.23836 -10.23582 -10.21715 -10.21688
 Alpha  occ. eigenvalues --  -10.21654 -10.21532 -10.21095 -10.20956 -10.20650
 Alpha  occ. eigenvalues --  -10.20569 -10.20554 -10.20549 -10.20292 -10.20258
 Alpha  occ. eigenvalues --  -10.20159 -10.20127 -10.20041 -10.20032 -10.20030
 Alpha  occ. eigenvalues --  -10.19900 -10.19884 -10.19875 -10.19845 -10.19813
 Alpha  occ. eigenvalues --  -10.19776 -10.19766 -10.19661 -10.19588 -10.19584
 Alpha  occ. eigenvalues --  -10.19395 -10.19394 -10.19386 -10.19381 -10.19238
 Alpha  occ. eigenvalues --  -10.19234 -10.18886 -10.18711 -10.18443 -10.18419
 Alpha  occ. eigenvalues --  -10.18038 -10.18020 -10.17979 -10.17961 -10.17828
 Alpha  occ. eigenvalues --  -10.17705 -10.17685 -10.17437 -10.17419 -10.17368
 Alpha  occ. eigenvalues --   -1.01334  -0.98673  -0.98393  -0.95828  -0.90207
 Alpha  occ. eigenvalues --   -0.89765  -0.86932  -0.86721  -0.86116  -0.85500
 Alpha  occ. eigenvalues --   -0.85500  -0.83728  -0.83473  -0.83323  -0.80972
 Alpha  occ. eigenvalues --   -0.78952  -0.77805  -0.77182  -0.76451  -0.75841
 Alpha  occ. eigenvalues --   -0.75304  -0.75272  -0.75181  -0.75096  -0.74968
 Alpha  occ. eigenvalues --   -0.74422  -0.73869  -0.73268  -0.72533  -0.70900
 Alpha  occ. eigenvalues --   -0.70087  -0.67392  -0.66786  -0.66494  -0.65315
 Alpha  occ. eigenvalues --   -0.63598  -0.62968  -0.62088  -0.61777  -0.61395
 Alpha  occ. eigenvalues --   -0.61168  -0.60773  -0.60317  -0.59977  -0.59315
 Alpha  occ. eigenvalues --   -0.58994  -0.58013  -0.57831  -0.56790  -0.55438
 Alpha  occ. eigenvalues --   -0.54895  -0.54248  -0.54154  -0.52730  -0.52508
 Alpha  occ. eigenvalues --   -0.52344  -0.51250  -0.51137  -0.50470  -0.50194
 Alpha  occ. eigenvalues --   -0.49647  -0.48561  -0.47651  -0.47296  -0.46745
 Alpha  occ. eigenvalues --   -0.46610  -0.46290  -0.46141  -0.45943  -0.45873
 Alpha  occ. eigenvalues --   -0.45548  -0.45235  -0.44835  -0.44722  -0.44243
 Alpha  occ. eigenvalues --   -0.44178  -0.44014  -0.43417  -0.43306  -0.43165
 Alpha  occ. eigenvalues --   -0.42844  -0.42594  -0.42577  -0.42474  -0.42359
 Alpha  occ. eigenvalues --   -0.42138  -0.41725  -0.41547  -0.41292  -0.41109
 Alpha  occ. eigenvalues --   -0.40782  -0.40478  -0.40229  -0.38939  -0.38301
 Alpha  occ. eigenvalues --   -0.38043  -0.37724  -0.37520  -0.37387  -0.37105
 Alpha  occ. eigenvalues --   -0.36499  -0.36255  -0.36044  -0.35605  -0.35430
 Alpha  occ. eigenvalues --   -0.35418  -0.35240  -0.35135  -0.35039  -0.34930
 Alpha  occ. eigenvalues --   -0.34680  -0.34250  -0.33621  -0.33538  -0.33122
 Alpha  occ. eigenvalues --   -0.32426  -0.32345  -0.32309  -0.31195  -0.30154
 Alpha  occ. eigenvalues --   -0.30021  -0.29986  -0.27583  -0.27044  -0.26209
 Alpha  occ. eigenvalues --   -0.25956  -0.25859  -0.25739  -0.25688  -0.25523
 Alpha  occ. eigenvalues --   -0.25082  -0.24844  -0.24803  -0.24696  -0.23622
 Alpha  occ. eigenvalues --   -0.23505  -0.22446  -0.21587  -0.19139  -0.17969
 Alpha virt. eigenvalues --   -0.07040  -0.06355  -0.05639  -0.03410  -0.02483
 Alpha virt. eigenvalues --   -0.01720  -0.01545  -0.00978  -0.00641  -0.00572
 Alpha virt. eigenvalues --   -0.00407   0.00611   0.01962   0.02600   0.03258

 Mulliken charges:
               1
     1  C   -0.119664
     2  C   -0.136456
     3  C   -0.154885
     4  C    0.092416
     5  C    0.276728
     6  C   -0.218121
     7  C    0.276670
     8  C    0.092488
     9  C   -0.154909
    10  C   -0.136415
    11  C   -0.119617
    12  C   -0.138968
    13  C   -0.172946
    14  N   -0.556661
    15  C    0.445809
    16  C    0.088039
    17  C   -0.180758
    18  C   -0.161169
    19  C    0.280299
    20  N   -0.737623
    21  C    0.296712
    22  C   -0.176623
    23  C   -0.142445
    24  C   -0.146985
    25  C   -0.198177
    26  C    0.073383
    27  C   -0.031199
    28  C   -0.049420
    29  C    0.069897
    30  C   -0.195090
    31  C   -0.142704
    32  C   -0.144911
    33  C   -0.144913
    34  C    0.292893
    35  N   -0.754437
    36  C    0.675231
    37  N   -0.543559
    38  C    0.199859
    39  C    0.094694
    40  C   -0.146655
    41  C   -0.137536
    42  C   -0.119963
    43  C   -0.138094
    44  C   -0.172765
    45  C    0.107155
    46  C   -0.198195
    47  C   -0.139168
    48  C   -0.128180
    49  C   -0.159148
    50  C    0.273759
    51  N   -0.568896
    52  C    0.311617
    53  C   -0.162798
    54  C   -0.200946
    55  C    0.328537
    56  C   -0.161714
    57  C   -0.180137
    58  N   -0.556658
    59  C   -0.172974
    60  C   -0.139023
    61  H    0.134688
    62  H    0.136186
    63  H    0.159646
    64  H    0.148610
    65  H    0.159194
    66  H    0.136029
    67  H    0.134827
    68  H    0.134322
    69  H    0.134699
    70  H    0.162577
    71  H    0.153539
    72  H    0.140507
    73  H    0.125242
    74  H    0.121797
    75  H    0.137525
    76  H    0.136933
    77  H    0.122399
    78  H    0.123567
    79  H    0.164022
    80  H    0.156864
    81  H    0.139838
    82  H    0.136954
    83  H    0.136896
    84  H    0.147289
    85  H    0.153952
    86  H    0.137615
    87  H    0.140906
    88  H    0.149400
    89  H    0.174170
    90  H    0.142291
    91  H    0.151819
    92  H    0.162431
    93  H    0.134467
    94  H    0.134117
 Sum of Mulliken charges =  -0.00000

 Dipole moment (field-independent basis, Debye):
    X=             -1.5651    Y=             -5.0281    Z=              3.1514  Tot=              6.1370
 Quadrupole moment (field-independent basis, Debye-Ang):
   XX=           -267.1845   YY=           -310.0178   ZZ=           -331.7676
   XY=             -4.6821   XZ=             -0.0218   YZ=             -2.4831

 Normal termination of Gaussian 16 at Sat Nov  5 10:57:19 2022.
