 Gaussian 16, Revision B.01,
 Gaussian 16:  ES64L-G16RevB.01 20-Dec-2017

 -----------------------------
 #p b3lyp/6-31g(d) opt SCF=XQC
 -----------------------------

 ------------------------------
 Gaussian input prepared by ASE
 ------------------------------
 Symbolic Z-matrix:
 Charge =  0 Multiplicity = 1

 SCF Done:  E(RB3LYP) =  -2406.82447131     A.U. after   16 cycles
 SCF Done:  E(RB3LYP) =  -2406.83601384     A.U. after   12 cycles
 SCF Done:  E(RB3LYP) =  -2406.83617588     A.U. after   12 cycles
 SCF Done:  E(RB3LYP) =  -2406.83721153     A.U. after   12 cycles
 SCF Done:  E(RB3LYP) =  -2406.83731033     A.U. after   11 cycles
 SCF Done:  E(RB3LYP) =  -2406.83743973     A.U. after   11 cycles
 SCF Done:  E(RB3LYP) =  -2406.83748755     A.U. after   10 cycles
 SCF Done:  E(RB3LYP) =  -2406.83751086     A.U. after   11 cycles
 SCF Done:  E(RB3LYP) =  -2406.83751495     A.U. after    9 cycles
 SCF Done:  E(RB3LYP) =  -2406.83751739     A.U. after    9 cycles
 SCF Done:  E(RB3LYP) =  -2406.83751830     A.U. after    8 cycles
 SCF Done:  E(RB3LYP) =  -2406.83751851     A.U. after    7 cycles
 SCF Done:  E(RB3LYP) =  -2406.83751856     A.U. after    6 cycles
 SCF Done:  E(RB3LYP) =  -2406.83751857     A.U. after    6 cycles
 Optimization completed.
    -- Stationary point found.

                         Standard orientation:
 ---------------------------------------------------------------------
 Center     Atomic      Atomic             Coordinates (Angstroms)
 Number     Number       Type             X           Y           Z
 ---------------------------------------------------------------------
      1          6           0        7.514309    4.545989   -3.947883
      2          6           0        6.533205    3.577278   -4.171829
      3          6           0        6.284274    2.596748   -3.214773
      4          6           0        7.020716    2.560294   -2.019624
      5          6           0        6.747247    1.495627   -1.019537
      6          6           0        7.689767    1.111191   -0.058462
      7          6           0        7.336933    0.098448    0.841361
      8          6           0        8.263175   -0.383407    1.898871
      9          6           0        7.746199   -1.026824    3.035001
     10          6           0        8.594690   -1.474539    4.044433
     11          6           0        9.975776   -1.297969    3.932395
     12          6           0       10.502293   -0.671367    2.801436
     13          6           0        9.653470   -0.216275    1.793997
     14          7           0        6.122582   -0.473697    0.786338
     15          6           0        5.282245   -0.057622   -0.173115
     16          6           0        3.947363   -0.707204   -0.237645
     17          6           0        2.977656   -0.262185   -1.149408
     18          6           0        1.730115   -0.873168   -1.217438
     19          6           0        1.419393   -1.938295   -0.360793
     20          7           0        0.148288   -2.565561   -0.422906
     21          6           0       -0.078028   -3.921019   -0.655377
     22          6           0        0.860138   -4.928509   -0.897724
     23          6           0        0.387973   -6.204485   -1.187247
     24          6           0       -0.990009   -6.462905   -1.256996
     25          6           0       -1.917484   -5.453453   -1.020077
     26          6           0       -1.480537   -4.160423   -0.689282
     27          6           0       -2.131805   -2.885571   -0.425260
     28          6           0       -3.464825   -2.427367   -0.277012
     29          6           0       -4.766049   -3.072341   -0.242638
     30          6           0       -5.177606   -4.411917   -0.204227
     31          6           0       -6.532057   -4.718807   -0.134993
     32          6           0       -7.487889   -3.695677   -0.095573
     33          6           0       -7.111110   -2.354889   -0.099321
     34          6           0       -5.746733   -2.050855   -0.157752
     35          7           0       -5.094218   -0.801349   -0.072174
     36          6           0       -5.735266    0.437956    0.035008
     37          7           0       -4.990099    1.455502    0.540050
     38          6           0       -5.553182    2.643460    0.682358
     39          6           0       -4.657335    3.723845    1.178682
     40          6           0       -3.745972    3.438423    2.208554
     41          6           0       -2.873117    4.419408    2.672945
     42          6           0       -2.882013    5.694647    2.102233
     43          6           0       -3.767379    5.981819    1.062397
     44          6           0       -4.652834    5.005596    0.605234
     45          6           0       -6.941928    2.845592    0.385639
     46          6           0       -7.677199    4.032926    0.637978
     47          6           0       -9.009579    4.114167    0.295283
     48          6           0       -9.659235    3.012150   -0.311361
     49          6           0       -8.981937    1.835502   -0.538927
     50          6           0       -7.614579    1.715890   -0.175273
     51          7           0       -6.989655    0.524354   -0.367963
     52          6           0       -3.692215   -1.037861   -0.114285
     53          6           0       -2.641301   -0.110985   -0.027378
     54          6           0       -1.332321   -0.564580   -0.102963
     55          6           0       -1.091958   -1.926797   -0.310923
     56          6           0        2.380239   -2.384814    0.556843
     57          6           0        3.631044   -1.779241    0.611036
     58          7           0        5.546661    0.895551   -1.079402
     59          6           0        8.000637    3.542377   -1.802444
     60          6           0        8.243854    4.527636   -2.757769
     61          1           0        7.706075    5.312742   -4.693677
     62          1           0        5.960458    3.585725   -5.095311
     63          1           0        5.522498    1.842723   -3.378552
     64          1           0        8.662485    1.582966   -0.012418
     65          1           0        6.673182   -1.162685    3.111635
     66          1           0        8.177560   -1.962671    4.921167
     67          1           0       10.637748   -1.650519    4.718766
     68          1           0       11.576363   -0.542438    2.699032
     69          1           0       10.082229    0.245408    0.909517
     70          1           0        3.220195    0.561810   -1.810562
     71          1           0        0.994319   -0.538727   -1.941846
     72          1           0        1.923839   -4.716424   -0.879402
     73          1           0        1.097946   -7.004291   -1.379627
     74          1           0       -1.338931   -7.459624   -1.511808
     75          1           0       -2.971027   -5.667422   -1.137871
     76          1           0       -4.448263   -5.209492   -0.181126
     77          1           0       -6.846936   -5.758222   -0.104692
     78          1           0       -8.544659   -3.945159   -0.050189
     79          1           0       -7.848144   -1.567323   -0.064753
     80          1           0       -3.735189    2.441573    2.637251
     81          1           0       -2.181928    4.187598    3.478635
     82          1           0       -2.196922    6.457839    2.461347
     83          1           0       -3.765286    6.964790    0.599336
     84          1           0       -5.318349    5.228878   -0.222891
     85          1           0       -7.188980    4.871187    1.121981
     86          1           0       -9.567231    5.024180    0.496786
     87          1           0      -10.708004    3.093729   -0.584398
     88          1           0       -9.466447    0.972083   -0.983467
     89          1           0       -2.847586    0.936352    0.127141
     90          1           0       -0.510783    0.136407   -0.006297
     91          1           0        2.134493   -3.198872    1.231592
     92          1           0        4.375883   -2.123525    1.319275
     93          1           0        8.559736    3.558666   -0.871607
     94          1           0        8.999361    5.285433   -2.568813
 ---------------------------------------------------------------------

 The electronic state is 1-A.
 Alpha  occ. eigenvalues --  -14.38441 -14.37515 -14.33758 -14.33238 -14.33237
 Alpha  occ. eigenvalues --  -14.32851 -10.29470 -10.26318 -10.25697 -10.24827
 Alpha  occ. eigenvalues --  -10.24826 -10.23836 -10.23582 -10.21715 -10.21688
 Alpha  occ. eigenvalues --  -10.21654 -10.21532 -10.21095 -10.20956 -10.20650
 Alpha  occ. eigenvalues --  -10.20569 -10.20554 -10.20549 -10.20292 -10.20258
 Alpha  occ. eigenvalues --  -10.20159 -10.20127 -10.20041 -10.20032 -10.20030
 Alpha  occ. eigenvalues --  -10.19900 -10.19883 -10.19875 -10.19845 -10.19813
 Alpha  occ. eigenvalues --  -10.19776 -10.19766 -10.19661 -10.19588 -10.19584
 Alpha  occ. eigenvalues --  -10.19395 -10.19394 -10.19386 -10.19381 -10.19238
 Alpha  occ. eigenvalues --  -10.19234 -10.18886 -10.18711 -10.18443 -10.18419
 Alpha  occ. eigenvalues --  -10.18038 -10.18020 -10.17979 -10.17961 -10.17828
 Alpha  occ. eigenvalues --  -10.17705 -10.17684 -10.17437 -10.17419 -10.17368
 Alpha  occ. eigenvalues --   -1.01334  -0.98673  -0.98393  -0.95828  -0.90207
 Alpha  occ. eigenvalues --   -0.89765  -0.86932  -0.86721  -0.86116  -0.85500
 Alpha  occ. eigenvalues --   -0.85499  -0.83728  -0.83473  -0.83323  -0.80972
 Alpha  occ. eigenvalues --   -0.78952  -0.77805  -0.77182  -0.76451  -0.75841
 Alpha  occ. eigenvalues --   -0.75304  -0.75272  -0.75181  -0.75096  -0.74968
 Alpha  occ. eigenvalues --   -0.74422  -0.73869  -0.73268  -0.72533  -0.70900
 Alpha  occ. eigenvalues --   -0.70087  -0.67392  -0.66786  -0.66494  -0.65315
 Alpha  occ. eigenvalues --   -0.63598  -0.62968  -0.62088  -0.61777  -0.61395
 Alpha  occ. eigenvalues --   -0.61168  -0.60773  -0.60317  -0.59977  -0.59315
 Alpha  occ. eigenvalues --   -0.58994  -0.58013  -0.57831  -0.56790  -0.55438
 Alpha  occ. eigenvalues --   -0.54895  -0.54248  -0.54154  -0.52730  -0.52508
 Alpha  occ. eigenvalues --   -0.52344  -0.51250  -0.51137  -0.50470  -0.50194
 Alpha  occ. eigenvalues --   -0.49647  -0.48561  -0.47651  -0.47296  -0.46745
 Alpha  occ. eigenvalues --   -0.46610  -0.46290  -0.46141  -0.45943  -0.45873
 Alpha  occ. eigenvalues --   -0.45548  -0.45235  -0.44835  -0.44722  -0.44243
 Alpha  occ. eigenvalues --   -0.44178  -0.44014  -0.43417  -0.43306  -0.43165
 Alpha  occ. eigenvalues --   -0.42844  -0.42594  -0.42577  -0.42474  -0.42359
 Alpha  occ. eigenvalues --   -0.42138  -0.41725  -0.41547  -0.41292  -0.41109
 Alpha  occ. eigenvalues --   -0.40782  -0.40478  -0.40229  -0.38939  -0.38301
 Alpha  occ. eigenvalues --   -0.38043  -0.37724  -0.37520  -0.37387  -0.37105
 Alpha  occ. eigenvalues --   -0.36499  -0.36254  -0.36044  -0.35605  -0.35430
 Alpha  occ. eigenvalues --   -0.35418  -0.35240  -0.35135  -0.35039  -0.34930
 Alpha  occ. eigenvalues --   -0.34680  -0.34250  -0.33621  -0.33538  -0.33122
 Alpha  occ. eigenvalues --   -0.32426  -0.32345  -0.32309  -0.31195  -0.30154
 Alpha  occ. eigenvalues --   -0.30021  -0.29986  -0.27583  -0.27044  -0.26209
 Alpha  occ. eigenvalues --   -0.25956  -0.25859  -0.25739  -0.25688  -0.25523
 Alpha  occ. eigenvalues --   -0.25082  -0.24844  -0.24803  -0.24696  -0.23622
 Alpha  occ. eigenvalues --   -0.23505  -0.22446  -0.21587  -0.19139  -0.17969
 Alpha virt. eigenvalues --   -0.07040  -0.06355  -0.05639  -0.03410  -0.02483
 Alpha virt. eigenvalues --   -0.01720  -0.01545  -0.00978  -0.00642  -0.00572
 Alpha virt. eigenvalues --   -0.00407   0.00611   0.01962   0.02600   0.03258

 Mulliken charges:
               1
     1  C   -0.119671
     2  C   -0.136439
     3  C   -0.154903
     4  C    0.092432
     5  C    0.276712
     6  C   -0.218128
     7  C    0.276678
     8  C    0.092479
     9  C   -0.154909
    10  C   -0.136418
    11  C   -0.119616
    12  C   -0.138965
    13  C   -0.172947
    14  N   -0.556652
    15  C    0.445805
    16  C    0.088034
    17  C   -0.180752
    18  C   -0.161168
    19  C    0.280299
    20  N   -0.737618
    21  C    0.296696
    22  C   -0.176615
    23  C   -0.142449
    24  C   -0.146980
    25  C   -0.198171
    26  C    0.073365
    27  C   -0.031175
    28  C   -0.049438
    29  C    0.069883
    30  C   -0.195087
    31  C   -0.142707
    32  C   -0.144907
    33  C   -0.144907
    34  C    0.292889
    35  N   -0.754466
    36  C    0.675289
    37  N   -0.543590
    38  C    0.199894
    39  C    0.094686
    40  C   -0.146641
    41  C   -0.137547
    42  C   -0.119964
    43  C   -0.138087
    44  C   -0.172771
    45  C    0.107131
    46  C   -0.198196
    47  C   -0.139164
    48  C   -0.128180
    49  C   -0.159148
    50  C    0.273782
    51  N   -0.568933
    52  C    0.311646
    53  C   -0.162800
    54  C   -0.200954
    55  C    0.328547
    56  C   -0.161715
    57  C   -0.180133
    58  N   -0.556653
    59  C   -0.172975
    60  C   -0.139022
    61  H    0.134688
    62  H    0.136184
    63  H    0.159647
    64  H    0.148611
    65  H    0.159194
    66  H    0.136029
    67  H    0.134827
    68  H    0.134322
    69  H    0.134700
    70  H    0.162574
    71  H    0.153541
    72  H    0.140508
    73  H    0.125243
    74  H    0.121797
    75  H    0.137522
    76  H    0.136935
    77  H    0.122399
    78  H    0.123567
    79  H    0.164019
    80  H    0.156862
    81  H    0.139838
    82  H    0.136955
    83  H    0.136897
    84  H    0.147289
    85  H    0.153951
    86  H    0.137614
    87  H    0.140906
    88  H    0.149400
    89  H    0.174173
    90  H    0.142292
    91  H    0.151819
    92  H    0.162431
    93  H    0.134466
    94  H    0.134116
 Sum of Mulliken charges =  -0.00000

 Dipole moment (field-independent basis, Debye):
    X=              2.6491    Y=              5.4285    Z=              1.0844  Tot=              6.1370
 Quadrupole moment (field-independent basis, Debye-Ang):
   XX=           -270.0059   YY=           -306.7650   ZZ=           -329.7976
   XY=            -11.0843   XZ=              4.1695   YZ=             -6.2838

 1\1\GINC-NODE48\FOpt\RB3LYP\6-31G(d)\C54H34N6\WYKGROUP\05-Nov-2022\0\\
 #p b3lyp/6-31g(d) opt SCF=XQC\\Gaussian input prepared by ASE\\0,1\C,-
 6.1043371299,-7.0292077104,-1.8387316751\C,-5.3259916213,-6.039830697,
 -2.4440657699\C,-5.3273055693,-4.7410568322,-1.9415255097\C,-6.1167855
 39,-4.4049308896,-0.8298602361\C,-6.1130888859,-3.008895649,-0.3204039
 81\C,-7.1615855672,-2.4895581946,0.4481944351\C,-7.0647034835,-1.16223
 5135,0.8825326565\C,-8.1216730751,-0.5150736002,1.7025531334\C,-7.8026
 669353,0.6020698752,2.4913922425\C,-8.7742666694,1.2160383223,3.277760

 Normal termination of Gaussian 16 at Sat Nov  5 01:53:24 2022.
