 Gaussian 16, Revision B.01,
 Gaussian 16:  ES64L-G16RevB.01 20-Dec-2017

 -----------------------------
 #p b3lyp/6-31g(d) opt SCF=XQC
 -----------------------------

 ------------------------------
 Gaussian input prepared by ASE
 ------------------------------
 Symbolic Z-matrix:
 Charge =  0 Multiplicity = 1

 SCF Done:  E(RB3LYP) =  -1747.76927150     A.U. after   16 cycles
 SCF Done:  E(RB3LYP) =  -1747.77782558     A.U. after   13 cycles
 SCF Done:  E(RB3LYP) =  -1747.77785332     A.U. after   12 cycles
 SCF Done:  E(RB3LYP) =  -1747.77810789     A.U. after   12 cycles
 SCF Done:  E(RB3LYP) =  -1747.77873723     A.U. after   12 cycles
 SCF Done:  E(RB3LYP) =  -1747.77884823     A.U. after   12 cycles
 SCF Done:  E(RB3LYP) =  -1747.77889008     A.U. after   11 cycles
 SCF Done:  E(RB3LYP) =  -1747.77889556     A.U. after   11 cycles
 SCF Done:  E(RB3LYP) =  -1747.77889894     A.U. after   10 cycles
 SCF Done:  E(RB3LYP) =  -1747.77890121     A.U. after   10 cycles
 SCF Done:  E(RB3LYP) =  -1747.77890347     A.U. after   10 cycles
 SCF Done:  E(RB3LYP) =  -1747.77890420     A.U. after    8 cycles
 SCF Done:  E(RB3LYP) =  -1747.77890430     A.U. after    7 cycles
 SCF Done:  E(RB3LYP) =  -1747.77890430     A.U. after    6 cycles
 Optimization completed.
    -- Stationary point found.

                         Standard orientation:
 ---------------------------------------------------------------------
 Center     Atomic      Atomic             Coordinates (Angstroms)
 Number     Number       Type             X           Y           Z
 ---------------------------------------------------------------------
      1          6           0        8.029222    3.155026   -0.579846
      2          6           0        8.979359    2.144143   -0.341814
      3          6           0        8.574307    0.843006   -0.103930
      4          6           0        7.205060    0.487415   -0.093318
      5          6           0        6.249247    1.515694   -0.331213
      6          6           0        6.685335    2.840053   -0.571808
      7          6           0        4.853423    1.203289   -0.303856
      8          6           0        4.381602   -0.056899   -0.058837
      9          6           0        2.906797   -0.268079   -0.001454
     10          6           0        2.283378   -0.800024    1.140095
     11          6           0        0.897160   -0.931298    1.205696
     12          6           0        0.103950   -0.533733    0.125248
     13          7           0       -1.314703   -0.708737    0.181903
     14          6           0       -1.907675   -1.930325   -0.131241
     15          6           0       -1.276411   -3.155890   -0.364926
     16          6           0       -2.066253   -4.222450   -0.775521
     17          6           0       -3.448772   -4.056686   -0.970559
     18          6           0       -4.068268   -2.836971   -0.726919
     19          6           0       -3.307092   -1.744314   -0.265792
     20          6           0       -3.564766   -0.337654    0.010562
     21          6           0       -4.758226    0.474819   -0.017703
     22          6           0       -6.105607   -0.052200    0.097907
     23          6           0       -6.390162   -1.316775    0.673162
     24          6           0       -7.684785   -1.787697    0.780918
     25          6           0       -8.767444   -1.013676    0.315486
     26          6           0       -8.532006    0.248805   -0.186616
     27          6           0       -7.217096    0.769516   -0.267314
     28          6           0       -6.980112    2.124286   -0.638953
     29          6           0       -5.731905    2.663685   -0.522928
     30          6           0       -4.594922    1.874512   -0.159915
     31          6           0       -3.299605    2.492820    0.096644
     32          6           0       -3.147982    3.898457    0.169176
     33          6           0       -1.950698    4.488000    0.528605
     34          6           0       -0.844065    3.686441    0.852362
     35          6           0       -0.947328    2.310665    0.781261
     36          6           0       -2.153105    1.684715    0.381314
     37          6           0       -2.314635    0.267027    0.217164
     38          6           0        0.708517   -0.015844   -1.023878
     39          6           0        2.093722    0.121477   -1.078863
     40          6           0        5.325048   -1.143024    0.144203
     41          6           0        4.890751   -2.480730    0.311687
     42          6           0        5.788363   -3.513300    0.502521
     43          6           0        7.166764   -3.243283    0.527309
     44          6           0        7.619984   -1.950812    0.342619
     45          6           0        6.729566   -0.870580    0.138381
     46          1           0        8.352979    4.175201   -0.766373
     47          1           0       10.038864    2.385258   -0.343791
     48          1           0        9.333279    0.089923    0.076997
     49          1           0        5.938199    3.609962   -0.749815
     50          1           0        4.147714    2.017411   -0.450795
     51          1           0        2.888893   -1.093406    1.992528
     52          1           0        0.420628   -1.326787    2.097734
     53          1           0       -0.202691   -3.260873   -0.249090
     54          1           0       -1.605391   -5.187640   -0.966897
     55          1           0       -4.043980   -4.893424   -1.325640
     56          1           0       -5.129494   -2.732182   -0.914508
     57          1           0       -5.577256   -1.905987    1.078137
     58          1           0       -7.868326   -2.754697    1.241656
     59          1           0       -9.782078   -1.396253    0.386411
     60          1           0       -9.359950    0.881471   -0.498493
     61          1           0       -7.819756    2.739946   -0.951835
     62          1           0       -5.598899    3.715282   -0.748804
     63          1           0       -3.998771    4.541088   -0.023754
     64          1           0       -1.877118    5.570704    0.584055
     65          1           0        0.089960    4.142751    1.168512
     66          1           0       -0.093568    1.704920    1.052945
     67          1           0        0.089953    0.277922   -1.866326
     68          1           0        2.558885    0.519713   -1.975961
     69          1           0        3.829009   -2.696871    0.275806
     70          1           0        5.427703   -4.530776    0.625877
     71          1           0        7.879020   -4.049561    0.679754
     72          1           0        8.689314   -1.771588    0.347680
 ---------------------------------------------------------------------

 The electronic state is 1-A.
 Alpha  occ. eigenvalues --  -14.38322 -10.24096 -10.22687 -10.21897 -10.21361
 Alpha  occ. eigenvalues --  -10.20770 -10.20681 -10.20639 -10.20593 -10.20526
 Alpha  occ. eigenvalues --  -10.20504 -10.20502 -10.20390 -10.20232 -10.20197
 Alpha  occ. eigenvalues --  -10.20076 -10.19985 -10.19604 -10.19562 -10.19520
 Alpha  occ. eigenvalues --  -10.19496 -10.19483 -10.19457 -10.19454 -10.19427
 Alpha  occ. eigenvalues --  -10.19400 -10.19364 -10.19261 -10.19063 -10.18950
 Alpha  occ. eigenvalues --  -10.18806 -10.18782 -10.18766 -10.18728 -10.18700
 Alpha  occ. eigenvalues --  -10.18494 -10.18489 -10.18438 -10.18384 -10.18350
 Alpha  occ. eigenvalues --  -10.18328 -10.18163 -10.18124 -10.18119 -10.17735
 Alpha  occ. eigenvalues --   -0.99105  -0.88911  -0.87949  -0.87036  -0.85658
 Alpha  occ. eigenvalues --   -0.85053  -0.84000  -0.82301  -0.81738  -0.80258
 Alpha  occ. eigenvalues --   -0.78207  -0.77184  -0.76496  -0.76354  -0.76048
 Alpha  occ. eigenvalues --   -0.75650  -0.74509  -0.73181  -0.72622  -0.72389
 Alpha  occ. eigenvalues --   -0.71653  -0.70997  -0.69712  -0.64816  -0.63499
 Alpha  occ. eigenvalues --   -0.63162  -0.62825  -0.62557  -0.61937  -0.61704
 Alpha  occ. eigenvalues --   -0.60758  -0.59628  -0.58823  -0.58395  -0.57797
 Alpha  occ. eigenvalues --   -0.57086  -0.54896  -0.54006  -0.53581  -0.53352
 Alpha  occ. eigenvalues --   -0.51526  -0.50919  -0.50286  -0.49551  -0.49174
 Alpha  occ. eigenvalues --   -0.48597  -0.48488  -0.47613  -0.47021  -0.46110
 Alpha  occ. eigenvalues --   -0.46010  -0.45574  -0.44559  -0.44024  -0.43888
 Alpha  occ. eigenvalues --   -0.43450  -0.43322  -0.43187  -0.42855  -0.42761
 Alpha  occ. eigenvalues --   -0.42521  -0.42306  -0.42060  -0.41718  -0.40964
 Alpha  occ. eigenvalues --   -0.40661  -0.40361  -0.40183  -0.39889  -0.39604
 Alpha  occ. eigenvalues --   -0.38590  -0.38154  -0.37744  -0.37274  -0.36896
 Alpha  occ. eigenvalues --   -0.36568  -0.36549  -0.36092  -0.35997  -0.35735
 Alpha  occ. eigenvalues --   -0.35199  -0.34022  -0.33770  -0.33497  -0.33129
 Alpha  occ. eigenvalues --   -0.32828  -0.32662  -0.31959  -0.31843  -0.31582
 Alpha  occ. eigenvalues --   -0.29373  -0.28699  -0.27376  -0.26910  -0.26739
 Alpha  occ. eigenvalues --   -0.26308  -0.25687  -0.25563  -0.22730  -0.22475
 Alpha  occ. eigenvalues --   -0.22077  -0.21371  -0.20405  -0.18408
 Alpha virt. eigenvalues --   -0.04931  -0.03926  -0.03694  -0.03616  -0.02168
 Alpha virt. eigenvalues --   -0.01940  -0.01338   0.00522   0.01697   0.01964
 Alpha virt. eigenvalues --    0.03253   0.03384   0.03842   0.07478   0.08946

 Mulliken charges:
               1
     1  C   -0.129948
     2  C   -0.136667
     3  C   -0.191481
     4  C    0.070509
     5  C    0.150096
     6  C   -0.204089
     7  C   -0.262686
     8  C    0.032329
     9  C    0.068763
    10  C   -0.181818
    11  C   -0.144566
    12  C    0.203745
    13  N   -0.714478
    14  C    0.294730
    15  C   -0.176216
    16  C   -0.143960
    17  C   -0.144605
    18  C   -0.207628
    19  C    0.059827
    20  C   -0.030413
    21  C   -0.007573
    22  C    0.055744
    23  C   -0.201293
    24  C   -0.146133
    25  C   -0.128838
    26  C   -0.204956
    27  C    0.145382
    28  C   -0.197496
    29  C   -0.200220
    30  C    0.078175
    31  C    0.045290
    32  C   -0.200433
    33  C   -0.131365
    34  C   -0.142275
    35  C   -0.196496
    36  C    0.140577
    37  C    0.205289
    38  C   -0.119046
    39  C   -0.180105
    40  C    0.104942
    41  C   -0.219772
    42  C   -0.127465
    43  C   -0.135214
    44  C   -0.189578
    45  C    0.049010
    46  H    0.132605
    47  H    0.131804
    48  H    0.135669
    49  H    0.131933
    50  H    0.135284
    51  H    0.151393
    52  H    0.152783
    53  H    0.135965
    54  H    0.124940
    55  H    0.123255
    56  H    0.153403
    57  H    0.157191
    58  H    0.128622
    59  H    0.127575
    60  H    0.127358
    61  H    0.125177
    62  H    0.132784
    63  H    0.133391
    64  H    0.128004
    65  H    0.127929
    66  H    0.150513
    67  H    0.155921
    68  H    0.146205
    69  H    0.143677
    70  H    0.131994
    71  H    0.131892
    72  H    0.135139
 Sum of Mulliken charges =  -0.00000

 Dipole moment (field-independent basis, Debye):
    X=              3.0129    Y=              0.4299    Z=              0.0589  Tot=              3.0440
 Quadrupole moment (field-independent basis, Debye-Ang):
   XX=           -227.4839   YY=           -231.6865   ZZ=           -260.5098
   XY=             -0.8878   XZ=              3.1330   YZ=             -5.8735

 1\1\GINC-NODE68\FOpt\RB3LYP\6-31G(d)\C44H27N1\WYKGROUP\05-Nov-2022\0\\
 #p b3lyp/6-31g(d) opt SCF=XQC\\Gaussian input prepared by ASE\\0,1\C,7
 .8154098854,-3.3836923364,-0.9407632254\C,8.8047582168,-2.4018188851,-
 0.7447591325\C,8.4518863161,-1.1108035574,-0.394936129\C,7.0982281219,
 -0.7375589215,-0.2226185253\C,6.1024987997,-1.7348889192,-0.4260563397
 \C,6.4854488612,-3.0491149375,-0.784029974\C,4.7204447033,-1.392563295
 8,-0.2867443847\C,4.2991559503,-0.1331623071,0.040592934\C,2.833914985
 7,0.1333257412,0.1112410787\C,2.2270625327,1.1238030604,-0.6796047393\

 Normal termination of Gaussian 16 at Sat Nov  5 01:45:30 2022.
