 Gaussian 16, Revision B.01,
 Gaussian 16:  ES64L-G16RevB.01 20-Dec-2017

 -------------------------------------------------------------------
 #p b3lyp/6-31g(d) 6D 10F nosymm GFInput td=(50-50,nstate=2) SCF=XQC
 -------------------------------------------------------------------

 ------------------------------
 Gaussian input prepared by ASE
 ------------------------------
 Symbolic Z-matrix:
 Charge =  0 Multiplicity = 1

                          Input orientation:
 ---------------------------------------------------------------------
 Center     Atomic      Atomic             Coordinates (Angstroms)
 Number     Number       Type             X           Y           Z
 ---------------------------------------------------------------------
      1          6           0        7.815410   -3.383692   -0.940763
      2          6           0        8.804758   -2.401819   -0.744759
      3          6           0        8.451886   -1.110804   -0.394936
      4          6           0        7.098228   -0.737559   -0.222619
      5          6           0        6.102499   -1.734889   -0.426056
      6          6           0        6.485449   -3.049115   -0.784030
      7          6           0        4.720445   -1.392563   -0.286744
      8          6           0        4.299156   -0.133162    0.040593
      9          6           0        2.833915    0.133326    0.111241
     10          6           0        2.227063    1.123803   -0.679605
     11          6           0        0.847038    1.318561   -0.652466
     12          6           0        0.043628    0.524777    0.171578
     13          7           0       -1.366980    0.756331    0.226198
     14          6           0       -1.908136    1.746277    1.044188
     15          6           0       -1.226318    2.731308    1.765264
     16          6           0       -1.970014    3.546377    2.609401
     17          6           0       -3.357160    3.361216    2.745113
     18          6           0       -4.027030    2.385320    2.017281
     19          6           0       -3.313289    1.569293    1.116948
     20          6           0       -3.629421    0.425984    0.271747
     21          6           0       -4.854838   -0.278496   -0.023749
     22          6           0       -6.180182    0.293744    0.126437
     23          6           0       -6.415813    1.691888    0.153068
     24          6           0       -7.690690    2.208269    0.285229
     25          6           0       -8.801676    1.347642    0.398870
     26          6           0       -8.615397   -0.015610    0.308090
     27          6           0       -7.322411   -0.566088    0.129754
     28          6           0       -7.138992   -1.956933   -0.118414
     29          6           0       -5.914385   -2.437812   -0.481082
     30          6           0       -4.747997   -1.609202   -0.496867
     31          6           0       -3.480229   -2.102862   -1.021306
     32          6           0       -3.386361   -3.346658   -1.690803
     33          6           0       -2.215879   -3.766923   -2.293783
     34          6           0       -1.079117   -2.942868   -2.268130
     35          6           0       -1.125890   -1.727109   -1.613743
     36          6           0       -2.303175   -1.291001   -0.958398
     37          6           0       -2.405998   -0.075173   -0.200726
     38          6           0        0.632254   -0.455592    0.975690
     39          6           0        2.010968   -0.651234    0.936396
     40          6           0        5.285058    0.901931    0.300522
     41          6           0        4.904803    2.196871    0.730241
     42          6           0        5.842787    3.179963    0.979322
     43          6           0        7.208903    2.898836    0.811372
     44          6           0        7.609993    1.636733    0.416120
     45          6           0        6.677320    0.604609    0.158631
     46          1           0        8.098249   -4.396150   -1.215172
     47          1           0        9.853557   -2.657222   -0.869188
     48          1           0        9.240009   -0.379568   -0.253290
     49          1           0        5.708451   -3.794709   -0.935764
     50          1           0        3.982885   -2.166237   -0.486359
     51          1           0        2.839816    1.732455   -1.337966
     52          1           0        0.382620    2.073945   -1.279313
     53          1           0       -0.149797    2.838410    1.681924
     54          1           0       -1.469272    4.320256    3.184708
     55          1           0       -3.916024    3.985704    3.436612
     56          1           0       -5.090707    2.247263    2.165283
     57          1           0       -5.581582    2.369098    0.021007
     58          1           0       -7.836950    3.285146    0.286003
     59          1           0       -9.800218    1.758752    0.520444
     60          1           0       -9.466881   -0.691715    0.337765
     61          1           0       -8.001469   -2.617702   -0.080307
     62          1           0       -5.823222   -3.488861   -0.729178
     63          1           0       -4.261664   -3.980081   -1.772395
     64          1           0       -2.186747   -4.723647   -2.808145
     65          1           0       -0.166030   -3.252175   -2.769302
     66          1           0       -0.249509   -1.093411   -1.619159
     67          1           0        0.006397   -1.059865    1.625149
     68          1           0        2.463939   -1.410870    1.566890
     69          1           0        3.852938    2.413599    0.878265
     70          1           0        5.523277    4.164237    1.310481
     71          1           0        7.952656    3.667554    1.002515
     72          1           0        8.671095    1.439900    0.311561
 ---------------------------------------------------------------------

 SCF Done:  E(RB3LYP) =  -1747.77891228     A.U. after   16 cycles

 Excitation energies and oscillator strengths:

 Excited state symmetry could not be determined.
 Excited State   1:      Triplet-?Sym    2.4153 eV  513.33 nm  f=0.0000  <S**2>=2.000
     145 ->154        -0.12257
     145 ->156        -0.11928
     146 ->151         0.14906
     148 ->151         0.12059
     148 ->153         0.17622
     149 ->150         0.10466
     149 ->151         0.56387
     149 ->153        -0.20907
 This state for optimization and/or second-order correction.
 Total Energy, E(TD-HF/TD-DFT) =  -1747.69015173
 Copying the excited state density for this state as the 1-particle RhoCI density.

 Excited state symmetry could not be determined.
 Excited State   2:      Triplet-?Sym    2.6579 eV  466.47 nm  f=0.0000  <S**2>=2.000
     144 ->152         0.27750
     147 ->150         0.59771
     147 ->155        -0.11503

 Excited state symmetry could not be determined.
 Excited State   3:      Singlet-?Sym    3.2893 eV  376.93 nm  f=0.0466  <S**2>=0.000
     149 ->150         0.67917
     149 ->151         0.13659

 Excited state symmetry could not be determined.
 Excited State   4:      Singlet-?Sym    3.3790 eV  366.93 nm  f=0.0324  <S**2>=0.000
     148 ->151        -0.21775
     148 ->153         0.15083
     149 ->150        -0.14269
     149 ->151         0.48453
     149 ->153         0.39392

 Alpha  occ. eigenvalues --  -14.38322 -10.24096 -10.22688 -10.21897 -10.21361
 Alpha  occ. eigenvalues --  -10.20770 -10.20681 -10.20639 -10.20593 -10.20526
 Alpha  occ. eigenvalues --  -10.20504 -10.20502 -10.20390 -10.20232 -10.20197
 Alpha  occ. eigenvalues --  -10.20076 -10.19985 -10.19604 -10.19562 -10.19520
 Alpha  occ. eigenvalues --  -10.19496 -10.19483 -10.19457 -10.19454 -10.19427
 Alpha  occ. eigenvalues --  -10.19400 -10.19364 -10.19261 -10.19063 -10.18951
 Alpha  occ. eigenvalues --  -10.18806 -10.18782 -10.18766 -10.18728 -10.18700
 Alpha  occ. eigenvalues --  -10.18494 -10.18489 -10.18438 -10.18384 -10.18350
 Alpha  occ. eigenvalues --  -10.18328 -10.18163 -10.18124 -10.18119 -10.17736
 Alpha  occ. eigenvalues --   -0.99106  -0.88911  -0.87949  -0.87036  -0.85658
 Alpha  occ. eigenvalues --   -0.85053  -0.84000  -0.82301  -0.81738  -0.80258
 Alpha  occ. eigenvalues --   -0.78207  -0.77184  -0.76496  -0.76354  -0.76048
 Alpha  occ. eigenvalues --   -0.75650  -0.74509  -0.73181  -0.72622  -0.72389
 Alpha  occ. eigenvalues --   -0.71653  -0.70997  -0.69712  -0.64816  -0.63499
 Alpha  occ. eigenvalues --   -0.63162  -0.62825  -0.62557  -0.61937  -0.61704
 Alpha  occ. eigenvalues --   -0.60758  -0.59628  -0.58823  -0.58395  -0.57797
 Alpha  occ. eigenvalues --   -0.57086  -0.54896  -0.54006  -0.53581  -0.53352
 Alpha  occ. eigenvalues --   -0.51527  -0.50919  -0.50286  -0.49551  -0.49174
 Alpha  occ. eigenvalues --   -0.48597  -0.48488  -0.47613  -0.47021  -0.46110
 Alpha  occ. eigenvalues --   -0.46010  -0.45574  -0.44559  -0.44024  -0.43888
 Alpha  occ. eigenvalues --   -0.43450  -0.43322  -0.43187  -0.42855  -0.42761
 Alpha  occ. eigenvalues --   -0.42521  -0.42306  -0.42060  -0.41719  -0.40964
 Alpha  occ. eigenvalues --   -0.40661  -0.40361  -0.40183  -0.39889  -0.39604
 Alpha  occ. eigenvalues --   -0.38590  -0.38154  -0.37744  -0.37274  -0.36897
 Alpha  occ. eigenvalues --   -0.36568  -0.36549  -0.36092  -0.35997  -0.35735
 Alpha  occ. eigenvalues --   -0.35199  -0.34022  -0.33770  -0.33497  -0.33129
 Alpha  occ. eigenvalues --   -0.32828  -0.32662  -0.31959  -0.31843  -0.31582
 Alpha  occ. eigenvalues --   -0.29373  -0.28699  -0.27376  -0.26910  -0.26739
 Alpha  occ. eigenvalues --   -0.26308  -0.25687  -0.25563  -0.22730  -0.22475
 Alpha  occ. eigenvalues --   -0.22077  -0.21371  -0.20405  -0.18408
 Alpha virt. eigenvalues --   -0.04931  -0.03926  -0.03694  -0.03616  -0.02168
 Alpha virt. eigenvalues --   -0.01940  -0.01338   0.00522   0.01697   0.01964
 Alpha virt. eigenvalues --    0.03253   0.03384   0.03842   0.07478   0.08946

 Mulliken charges:
               1
     1  C   -0.129946
     2  C   -0.136667
     3  C   -0.191487
     4  C    0.070515
     5  C    0.150094
     6  C   -0.204092
     7  C   -0.262692
     8  C    0.032344
     9  C    0.068769
    10  C   -0.181825
    11  C   -0.144573
    12  C    0.203773
    13  N   -0.714477
    14  C    0.294712
    15  C   -0.176207
    16  C   -0.143961
    17  C   -0.144602
    18  C   -0.207638
    19  C    0.059836
    20  C   -0.030411
    21  C   -0.007594
    22  C    0.055736
    23  C   -0.201290
    24  C   -0.146137
    25  C   -0.128831
    26  C   -0.204977
    27  C    0.145389
    28  C   -0.197478
    29  C   -0.200231
    30  C    0.078202
    31  C    0.045278
    32  C   -0.200427
    33  C   -0.131367
    34  C   -0.142277
    35  C   -0.196492
    36  C    0.140593
    37  C    0.205274
    38  C   -0.119065
    39  C   -0.180108
    40  C    0.104929
    41  C   -0.219765
    42  C   -0.127465
    43  C   -0.135219
    44  C   -0.189574
    45  C    0.049015
    46  H    0.132606
    47  H    0.131805
    48  H    0.135669
    49  H    0.131933
    50  H    0.135284
    51  H    0.151394
    52  H    0.152784
    53  H    0.135966
    54  H    0.124941
    55  H    0.123255
    56  H    0.153405
    57  H    0.157193
    58  H    0.128622
    59  H    0.127576
    60  H    0.127359
    61  H    0.125176
    62  H    0.132783
    63  H    0.133391
    64  H    0.128005
    65  H    0.127929
    66  H    0.150513
    67  H    0.155920
    68  H    0.146206
    69  H    0.143677
    70  H    0.131994
    71  H    0.131892
    72  H    0.135139
 Sum of Mulliken charges =  -0.00000

 Dipole moment (field-independent basis, Debye):
    X=              2.9925    Y=             -0.4677    Z=             -0.3028  Tot=              3.0439
 Quadrupole moment (field-independent basis, Debye-Ang):
   XX=           -227.9391   YY=           -232.5597   ZZ=           -259.6966
   XY=              2.1471   XZ=             -2.6988   YZ=              7.4408

 Normal termination of Gaussian 16 at Fri Nov  4 22:21:11 2022.
