 Gaussian 16, Revision B.01,
 Gaussian 16:  ES64L-G16RevB.01 20-Dec-2017

 -------------------------------------------------------------------
 #p b3lyp/6-31g(d) 6D 10F nosymm GFInput td=(50-50,nstate=2) SCF=XQC
 -------------------------------------------------------------------

 ------------------------------
 Gaussian input prepared by ASE
 ------------------------------
 Symbolic Z-matrix:
 Charge =  0 Multiplicity = 1

                          Input orientation:
 ---------------------------------------------------------------------
 Center     Atomic      Atomic             Coordinates (Angstroms)
 Number     Number       Type             X           Y           Z
 ---------------------------------------------------------------------
      1          8           0        0.173082    4.764041   -5.666478
      2         16           0       -0.131343    3.323966   -5.679921
      3          8           0       -0.526580    2.622943   -6.912414
      4          6           0       -1.433136    3.043420   -4.466748
      5          6           0       -1.604116    3.949411   -3.418893
      6          6           0       -2.614635    3.729951   -2.487212
      7          6           0       -3.466719    2.615727   -2.588328
      8          6           0       -4.542523    2.388294   -1.592694
      9          6           0       -4.874104    1.090485   -1.167766
     10          6           0       -5.874971    0.872067   -0.226125
     11          6           0       -6.588831    1.953765    0.304958
     12          7           0       -7.614477    1.736783    1.261062
     13          6           0       -7.707193    2.345075    2.509758
     14          6           0       -6.869199    3.265026    3.143589
     15          6           0       -7.246003    3.661677    4.424643
     16          7           0       -8.337766    3.226033    5.083294
     17          6           0       -9.119558    2.336860    4.466653
     18          6           0       -8.854977    1.856280    3.181204
     19          6           0       -9.492506    0.904080    2.294806
     20          6           0      -10.656952    0.137443    2.386632
     21          6           0      -11.017074   -0.692702    1.319765
     22          7           0      -12.185360   -1.502669    1.396316
     23          6           0      -12.460687   -2.234378    2.583337
     24          6           0      -11.427993   -2.897296    3.266948
     25          6           0      -11.698250   -3.603030    4.437592
     26          6           0      -12.999558   -3.677562    4.938974
     27          6           0      -14.029799   -3.026612    4.257278
     28          6           0      -13.766691   -2.302662    3.095839
     29          6           0      -13.086561   -1.545353    0.298998
     30          6           0      -13.381120   -0.381033   -0.429515
     31          6           0      -14.252678   -0.431894   -1.515951
     32          6           0      -14.859395   -1.633830   -1.885699
     33          6           0      -14.575361   -2.791670   -1.157924
     34          6           0      -13.691256   -2.755178   -0.081739
     35          6           0      -10.213085   -0.726456    0.158468
     36          6           0       -9.065637    0.050526    0.039547
     37          6           0       -8.701272    0.854459    1.121432
     38          6           0       -6.278702    3.252844   -0.116568
     39          6           0       -5.262841    3.462899   -1.044113
     40          6           0       -3.278553    1.726960   -3.662039
     41          6           0       -2.269924    1.934047   -4.598621
     42          6           0        1.310010    2.468841   -5.019325
     43          6           0        1.534591    1.133805   -5.359338
     44          6           0        2.653793    0.480860   -4.851056
     45          6           0        3.559015    1.143874   -4.002987
     46          6           0        4.749060    0.441531   -3.463650
     47          6           0        5.978696    1.105689   -3.315454
     48          6           0        7.099463    0.447894   -2.818188
     49          6           0        7.013619   -0.896637   -2.435378
     50          7           0        8.151640   -1.570734   -1.921245
     51          6           0        8.673042   -2.770353   -2.397404
     52          6           0        8.271062   -3.585435   -3.457746
     53          6           0        9.037820   -4.726302   -3.683338
     54          7           0       10.119532   -5.089713   -2.966743
     55          6           0       10.496588   -4.291043   -1.965786
     56          6           0        9.815941   -3.116049   -1.634831
     57          6           0        9.996833   -2.074357   -0.644456
     58          6           0       10.935178   -1.865096    0.369647
     59          6           0       10.813501   -0.741837    1.194360
     60          7           0       11.744516   -0.511940    2.247024
     61          6           0       12.131143   -1.585739    3.094306
     62          6           0       13.471567   -1.744568    3.482819
     63          6           0       13.842003   -2.797041    4.317891
     64          6           0       12.893136   -3.719013    4.764531
     65          6           0       11.561372   -3.569742    4.371517
     66          6           0       11.177685   -2.510163    3.551973
     67          6           0       12.305013    0.781291    2.421066
     68          6           0       12.503039    1.306969    3.709100
     69          6           0       13.053837    2.576006    3.874111
     70          6           0       13.399664    3.352083    2.765473
     71          6           0       13.195515    2.836483    1.484090
     72          6           0       12.662166    1.560887    1.308350
     73          6           0        9.749958    0.164910    0.988226
     74          6           0        8.822646   -0.014026   -0.032793
     75          6           0        8.955986   -1.136921   -0.851860
     76          6           0        5.793055   -1.570450   -2.567499
     77          6           0        4.682650   -0.909750   -3.084274
     78          6           0        3.312086    2.491611   -3.686296
     79          6           0        2.197743    3.156244   -4.190214
     80          1           0       -0.960584    4.819773   -3.345954
     81          1           0       -2.732606    4.421894   -1.658680
     82          1           0       -4.313253    0.241790   -1.548238
     83          1           0       -6.092034   -0.133923    0.118534
     84          1           0       -5.969344    3.653003    2.679229
     85          1           0       -6.628984    4.378958    4.962856
     86          1           0       -9.990878    1.991448    5.021786
     87          1           0      -11.281224    0.178406    3.273385
     88          1           0      -10.416604   -2.854567    2.875430
     89          1           0      -10.885827   -4.109222    4.952600
     90          1           0      -13.207457   -4.234151    5.848276
     91          1           0      -15.046857   -3.067541    4.638590
     92          1           0      -14.569825   -1.786668    2.579538
     93          1           0      -12.925227    0.559820   -0.138136
     94          1           0      -14.468638    0.479930   -2.066834
     95          1           0      -15.543658   -1.668104   -2.728603
     96          1           0      -15.033406   -3.737048   -1.437201
     97          1           0      -13.463825   -3.661512    0.470311
     98          1           0      -10.507158   -1.373376   -0.661469
     99          1           0       -8.472998    0.018516   -0.868542
    100          1           0       -6.850655    4.091527    0.267430
    101          1           0       -5.055396    4.474914   -1.379104
    102          1           0       -3.951745    0.883653   -3.783896
    103          1           0       -2.149575    1.264128   -5.443469
    104          1           0        0.857201    0.628224   -6.039475
    105          1           0        2.847642   -0.546902   -5.143174
    106          1           0        6.071783    2.139942   -3.633410
    107          1           0        8.050490    0.965780   -2.745805
    108          1           0        7.416337   -3.352365   -4.083105
    109          1           0        8.767430   -5.397126   -4.496809
    110          1           0       11.378573   -4.600063   -1.406059
    111          1           0       11.746937   -2.567372    0.529610
    112          1           0       14.216962   -1.040429    3.127232
    113          1           0       14.884218   -2.903649    4.607551
    114          1           0       13.187293   -4.542538    5.408835
    115          1           0       10.809185   -4.275025    4.715419
    116          1           0       10.138690   -2.392260    3.261056
    117          1           0       12.223085    0.715490    4.574929
    118          1           0       13.199310    2.965217    4.878550
    119          1           0       13.822336    4.343802    2.898588
    120          1           0       13.466835    3.423791    0.610549
    121          1           0       12.521532    1.160081    0.309586
    122          1           0        9.659520    1.021464    1.648148
    123          1           0        8.009650    0.691806   -0.165806
    124          1           0        5.713722   -2.603461   -2.244058
    125          1           0        3.738117   -1.441145   -3.155352
    126          1           0        3.990180    3.019472   -3.022412
    127          1           0        2.020867    4.200801   -3.956566
 ---------------------------------------------------------------------

 SCF Done:  E(RB3LYP) =  -3573.49746178     A.U. after   15 cycles

 Excitation energies and oscillator strengths:

 Excited state symmetry could not be determined.
 Excited State   1:      Triplet-?Sym    2.6319 eV  471.08 nm  f=0.0000  <S**2>=2.000
     269 -> 272        0.10370
     270 -> 272       -0.10058
     270 -> 273        0.13364
     271 -> 272        0.64894
 This state for optimization and/or second-order correction.
 Total Energy, E(TD-HF/TD-DFT) =  -3573.40074088
 Copying the excited state density for this state as the 1-particle RhoCI density.

 Excited state symmetry could not be determined.
 Excited State   2:      Triplet-?Sym    2.6405 eV  469.55 nm  f=0.0000  <S**2>=2.000
     270 -> 272        0.65331
     270 -> 273       -0.10170
     271 -> 272        0.10402
     271 -> 273        0.13715

 Excited state symmetry could not be determined.
 Excited State   3:      Singlet-?Sym    2.6834 eV  462.04 nm  f=0.0983  <S**2>=0.000
     270 -> 272       -0.17267
     271 -> 272        0.67380

 Excited state symmetry could not be determined.
 Excited State   4:      Singlet-?Sym    2.6928 eV  460.42 nm  f=0.0304  <S**2>=0.000
     270 -> 272        0.67501
     271 -> 272        0.17400

 Alpha  occ. eigenvalues --  -89.09868 -19.14282 -19.14280 -14.40050 -14.40041
 Alpha  occ. eigenvalues --  -14.36470 -14.36463 -14.32154 -14.32137 -10.25660
 Alpha  occ. eigenvalues --  -10.25659 -10.24430 -10.24416 -10.23686 -10.23677
 Alpha  occ. eigenvalues --  -10.23422 -10.23421 -10.23253 -10.23245 -10.23034
 Alpha  occ. eigenvalues --  -10.23014 -10.22992 -10.22982 -10.22981 -10.22979
 Alpha  occ. eigenvalues --  -10.22495 -10.22492 -10.22302 -10.22288 -10.22189
 Alpha  occ. eigenvalues --  -10.22187 -10.22180 -10.22179 -10.22022 -10.22003
 Alpha  occ. eigenvalues --  -10.21755 -10.21752 -10.21726 -10.21726 -10.21726
 Alpha  occ. eigenvalues --  -10.21726 -10.21722 -10.21721 -10.21673 -10.21673
 Alpha  occ. eigenvalues --  -10.21654 -10.21653 -10.20395 -10.20393 -10.20322
 Alpha  occ. eigenvalues --  -10.20314 -10.20026 -10.20007 -10.19965 -10.19953
 Alpha  occ. eigenvalues --  -10.19838 -10.19820 -10.19771 -10.19770 -10.19127
 Alpha  occ. eigenvalues --  -10.19110 -10.19099 -10.19096 -10.19069 -10.19054
 Alpha  occ. eigenvalues --  -10.19053 -10.19044 -10.18796 -10.18774 -10.18766
 Alpha  occ. eigenvalues --  -10.18766 -10.18762 -10.18747 -10.18727 -10.18721
 Alpha  occ. eigenvalues --  -10.18636 -10.18622 -10.18588 -10.18579  -8.12699
 Alpha  occ. eigenvalues --   -6.09131  -6.09083  -6.09023  -1.10015  -1.00715
 Alpha  occ. eigenvalues --   -1.00711  -0.99868  -0.96442  -0.96439  -0.93190
 Alpha  occ. eigenvalues --   -0.93173  -0.89642  -0.89559  -0.88007  -0.87848
 Alpha  occ. eigenvalues --   -0.85819  -0.85778  -0.85338  -0.85336  -0.83733
 Alpha  occ. eigenvalues --   -0.83699  -0.82308  -0.82090  -0.80108  -0.79365
 Alpha  occ. eigenvalues --   -0.78296  -0.78262  -0.77729  -0.77696  -0.77039
 Alpha  occ. eigenvalues --   -0.77025  -0.76621  -0.76223  -0.75477  -0.75443
 Alpha  occ. eigenvalues --   -0.74992  -0.74650  -0.74271  -0.74270  -0.74127
 Alpha  occ. eigenvalues --   -0.73765  -0.73487  -0.73466  -0.70997  -0.70733
 Alpha  occ. eigenvalues --   -0.69174  -0.67233  -0.66202  -0.65114  -0.65021
 Alpha  occ. eigenvalues --   -0.64740  -0.63628  -0.63503  -0.63415  -0.62286
 Alpha  occ. eigenvalues --   -0.62202  -0.62117  -0.61999  -0.61803  -0.60671
 Alpha  occ. eigenvalues --   -0.60495  -0.60214  -0.60191  -0.59916  -0.59428
 Alpha  occ. eigenvalues --   -0.59410  -0.59310  -0.58823  -0.57323  -0.57318
 Alpha  occ. eigenvalues --   -0.56133  -0.55685  -0.55174  -0.54118  -0.53501
 Alpha  occ. eigenvalues --   -0.53451  -0.53233  -0.53213  -0.53150  -0.52862
 Alpha  occ. eigenvalues --   -0.51836  -0.50027  -0.49782  -0.49716  -0.49605
 Alpha  occ. eigenvalues --   -0.49313  -0.48984  -0.48926  -0.47872  -0.47864
 Alpha  occ. eigenvalues --   -0.47690  -0.47195  -0.47127  -0.47054  -0.46958
 Alpha  occ. eigenvalues --   -0.46878  -0.46495  -0.46418  -0.46056  -0.46013
 Alpha  occ. eigenvalues --   -0.45264  -0.45182  -0.45106  -0.45020  -0.44880
 Alpha  occ. eigenvalues --   -0.44861  -0.44676  -0.44580  -0.44526  -0.44516
 Alpha  occ. eigenvalues --   -0.44408  -0.44383  -0.43980  -0.43691  -0.43662
 Alpha  occ. eigenvalues --   -0.43324  -0.43223  -0.43114  -0.43047  -0.42869
 Alpha  occ. eigenvalues --   -0.42803  -0.42113  -0.42094  -0.42072  -0.42053
 Alpha  occ. eigenvalues --   -0.41999  -0.41995  -0.40486  -0.40290  -0.39872
 Alpha  occ. eigenvalues --   -0.39622  -0.38939  -0.38759  -0.38051  -0.38012
 Alpha  occ. eigenvalues --   -0.37834  -0.37801  -0.37701  -0.37509  -0.37313
 Alpha  occ. eigenvalues --   -0.37279  -0.36726  -0.36721  -0.36564  -0.36543
 Alpha  occ. eigenvalues --   -0.36515  -0.36459  -0.36232  -0.36191  -0.35786
 Alpha  occ. eigenvalues --   -0.35773  -0.35466  -0.35453  -0.34769  -0.34705
 Alpha  occ. eigenvalues --   -0.34490  -0.34487  -0.34182  -0.34180  -0.33048
 Alpha  occ. eigenvalues --   -0.31831  -0.31210  -0.30767  -0.30371  -0.30289
 Alpha  occ. eigenvalues --   -0.30022  -0.29346  -0.29307  -0.28819  -0.28025
 Alpha  occ. eigenvalues --   -0.27872  -0.27850  -0.27660  -0.27322  -0.27275
 Alpha  occ. eigenvalues --   -0.26203  -0.25745  -0.25742  -0.25350  -0.25262
 Alpha  occ. eigenvalues --   -0.25175  -0.25060  -0.25042  -0.24758  -0.24721
 Alpha  occ. eigenvalues --   -0.22900  -0.22885  -0.22514  -0.22406  -0.18176
 Alpha  occ. eigenvalues --   -0.18169
 Alpha virt. eigenvalues --   -0.07342  -0.05562  -0.04032  -0.04028  -0.03481
 Alpha virt. eigenvalues --   -0.03039  -0.02877  -0.02324  -0.01872  -0.01592
 Alpha virt. eigenvalues --   -0.01585  -0.01104  -0.01102  -0.00624  -0.00592

 Mulliken charges:
               1
     1  O   -0.554936
     2  S    1.137266
     3  O   -0.554907
     4  C   -0.140044
     5  C   -0.146121
     6  C   -0.169412
     7  C    0.092896
     8  C    0.100665
     9  C   -0.189207
    10  C   -0.156858
    11  C    0.279162
    12  N   -0.738667
    13  C    0.345044
    14  C   -0.188274
    15  C    0.030051
    16  N   -0.433697
    17  C   -0.014702
    18  C    0.032208
    19  C    0.058166
    20  C   -0.248940
    21  C    0.273318
    22  N   -0.655943
    23  C    0.281342
    24  C   -0.163849
    25  C   -0.139255
    26  C   -0.128968
    27  C   -0.139920
    28  C   -0.165888
    29  C    0.281340
    30  C   -0.167531
    31  C   -0.139630
    32  C   -0.129429
    33  C   -0.139842
    34  C   -0.165056
    35  C   -0.176049
    36  C   -0.182598
    37  C    0.319133
    38  C   -0.158411
    39  C   -0.189360
    40  C   -0.170081
    41  C   -0.147082
    42  C   -0.140033
    43  C   -0.146939
    44  C   -0.169990
    45  C    0.092791
    46  C    0.100714
    47  C   -0.189499
    48  C   -0.156623
    49  C    0.278025
    50  N   -0.738375
    51  C    0.345139
    52  C   -0.188402
    53  C    0.030064
    54  N   -0.433704
    55  C   -0.014615
    56  C    0.032283
    57  C    0.057973
    58  C   -0.249100
    59  C    0.272080
    60  N   -0.655804
    61  C    0.281111
    62  C   -0.165697
    63  C   -0.139977
    64  C   -0.128906
    65  C   -0.139271
    66  C   -0.164312
    67  C    0.282618
    68  C   -0.165431
    69  C   -0.139795
    70  C   -0.129621
    71  C   -0.139771
    72  C   -0.167839
    73  C   -0.174660
    74  C   -0.183131
    75  C    0.319709
    76  C   -0.157822
    77  C   -0.189066
    78  C   -0.169375
    79  C   -0.146267
    80  H    0.176875
    81  H    0.145946
    82  H    0.144582
    83  H    0.158183
    84  H    0.142219
    85  H    0.139391
    86  H    0.144401
    87  H    0.152311
    88  H    0.139269
    89  H    0.130940
    90  H    0.127703
    91  H    0.131560
    92  H    0.144660
    93  H    0.142196
    94  H    0.130986
    95  H    0.127299
    96  H    0.131016
    97  H    0.143957
    98  H    0.148139
    99  H    0.144799
   100  H    0.159325
   101  H    0.147990
   102  H    0.146497
   103  H    0.177524
   104  H    0.177389
   105  H    0.146692
   106  H    0.147880
   107  H    0.159065
   108  H    0.142763
   109  H    0.139672
   110  H    0.144379
   111  H    0.152541
   112  H    0.144497
   113  H    0.131530
   114  H    0.127721
   115  H    0.131140
   116  H    0.140418
   117  H    0.144302
   118  H    0.131070
   119  H    0.127028
   120  H    0.130142
   121  H    0.141006
   122  H    0.147782
   123  H    0.144753
   124  H    0.158410
   125  H    0.144763
   126  H    0.145838
   127  H    0.177036
 Sum of Mulliken charges =  -0.00000

 Dipole moment (field-independent basis, Debye):
    X=             -0.5941    Y=             -0.8559    Z=              1.7732  Tot=              2.0566
 Quadrupole moment (field-independent basis, Debye-Ang):
   XX=           -469.9814   YY=           -466.9116   ZZ=           -507.1495
   XY=             46.7952   XZ=             36.5243   YZ=              8.1138

 Normal termination of Gaussian 16 at Sat Nov  5 11:24:06 2022.
