 Gaussian 16, Revision B.01,
 Gaussian 16:  ES64L-G16RevB.01 20-Dec-2017

 -------------------------------------------------------------------
 #p b3lyp/6-31g(d) 6D 10F nosymm GFInput td=(50-50,nstate=2) SCF=XQC
 -------------------------------------------------------------------

 ------------------------------
 Gaussian input prepared by ASE
 ------------------------------
 Symbolic Z-matrix:
 Charge =  0 Multiplicity = 1

                          Input orientation:
 ---------------------------------------------------------------------
 Center     Atomic      Atomic             Coordinates (Angstroms)
 Number     Number       Type             X           Y           Z
 ---------------------------------------------------------------------
      1          6           0       -7.093080    3.380850   -2.101957
      2          6           0       -6.932087    2.028387   -2.412848
      3          6           0       -5.831937    1.322967   -1.930694
      4          6           0       -4.872710    1.962795   -1.129017
      5          6           0       -3.700676    1.214407   -0.615001
      6          7           0       -2.819857    1.875653    0.158752
      7          6           0       -1.774139    1.199938    0.622512
      8          6           0       -1.557132   -0.159867    0.335677
      9          7           0       -0.443376   -0.861633    0.820193
     10          6           0       -0.526311   -2.249893    1.121333
     11          6           0       -1.680565   -2.768375    1.776919
     12          6           0       -1.764142   -4.103282    2.089008
     13          6           0       -0.704253   -5.000930    1.788282
     14          6           0       -0.760349   -6.383095    2.105005
     15          6           0        0.289508   -7.220236    1.797977
     16          6           0        1.444669   -6.706965    1.158435
     17          6           0        1.530715   -5.370086    0.840569
     18          6           0        0.464972   -4.479051    1.144495
     19          6           0        0.519583   -3.101424    0.814291
     20          6           0        0.784306   -0.165468    1.057446
     21          6           0        1.385834   -0.202965    2.314001
     22          6           0        2.590176    0.477082    2.563916
     23          6           0        3.227192    1.216743    1.573829
     24          6           0        2.631935    1.243064    0.307540
     25          6           0        1.411876    0.566553    0.024388
     26          6           0        1.093542    0.826123   -1.350826
     27          6           0        2.084895    1.626828   -1.844458
     28          7           0        3.031931    1.887450   -0.861067
     29          6           0        4.189046    2.690449   -1.047836
     30          6           0        5.446673    2.231832   -0.635882
     31          6           0        6.574368    3.027175   -0.836744
     32          6           0        6.461731    4.268896   -1.465118
     33          6           0        5.208734    4.717336   -1.886940
     34          6           0        4.072339    3.938427   -1.672239
     35          6           0       -2.530745   -0.749958   -0.490263
     36          7           0       -3.582832   -0.083128   -0.953702
     37          6           0       -5.040919    3.322655   -0.821339
     38          6           0       -6.143344    4.023915   -1.304313
     39          1           0       -7.952574    3.929642   -2.478368
     40          1           0       -7.667050    1.520962   -3.032499
     41          1           0       -5.699363    0.272586   -2.165342
     42          1           0       -1.068906    1.748959    1.242964
     43          1           0       -2.490130   -2.094186    2.037769
     44          1           0       -2.648689   -4.485595    2.592996
     45          1           0       -1.649998   -6.771419    2.595663
     46          1           0        0.235576   -8.276979    2.044801
     47          1           0        2.267315   -7.375763    0.919632
     48          1           0        2.417888   -4.976211    0.350349
     49          1           0        1.402159   -2.711544    0.315846
     50          1           0        0.907143   -0.765791    3.109202
     51          1           0        3.022526    0.434859    3.559439
     52          1           0        4.145120    1.755807    1.780454
     53          1           0        0.242762    0.458426   -1.905085
     54          1           0        2.229442    2.020772   -2.840360
     55          1           0        5.537319    1.250798   -0.181225
     56          1           0        7.546834    2.665236   -0.514513
     57          1           0        7.343895    4.881929   -1.625656
     58          1           0        5.109925    5.684187   -2.372588
     59          1           0        3.091826    4.297555   -1.970002
     60          1           0       -2.449197   -1.796797   -0.776539
     61          1           0       -4.297687    3.813339   -0.202673
     62          1           0       -6.261706    5.076060   -1.058100
 ---------------------------------------------------------------------

 SCF Done:  E(RB3LYP) =  -1529.10081617     A.U. after   16 cycles

 Excitation energies and oscillator strengths:

 Excited state symmetry could not be determined.
 Excited State   1:      Triplet-?Sym    2.5021 eV  495.51 nm  f=0.0000  <S**2>=2.000
     126 ->129        -0.20671
     126 ->130        -0.21117
     126 ->131        -0.13199
     127 ->129         0.12265
     128 ->129         0.55820
     128 ->131         0.12051
 This state for optimization and/or second-order correction.
 Total Energy, E(TD-HF/TD-DFT) =  -1529.00886448
 Copying the excited state density for this state as the 1-particle RhoCI density.

 Excited state symmetry could not be determined.
 Excited State   2:      Triplet-?Sym    2.7045 eV  458.43 nm  f=0.0000  <S**2>=2.000
     126 ->129        -0.25702
     128 ->129        -0.19547
     128 ->130         0.49467
     128 ->131         0.23847

 Excited state symmetry could not be determined.
 Excited State   3:      Singlet-?Sym    3.2954 eV  376.23 nm  f=0.2804  <S**2>=0.000
     128 ->129         0.64832
     128 ->130         0.23556
     128 ->131        -0.10485

 Excited state symmetry could not be determined.
 Excited State   4:      Singlet-?Sym    3.4148 eV  363.08 nm  f=0.3192  <S**2>=0.000
     128 ->129        -0.25316
     128 ->130         0.63621
     128 ->131        -0.10619

 Alpha  occ. eigenvalues --  -14.39404 -14.37408 -14.32999 -14.32948 -10.24782
 Alpha  occ. eigenvalues --  -10.24643 -10.23837 -10.23434 -10.23031 -10.22959
 Alpha  occ. eigenvalues --  -10.22861 -10.22670 -10.22414 -10.20604 -10.20599
 Alpha  occ. eigenvalues --  -10.20543 -10.20537 -10.20266 -10.19931 -10.19671
 Alpha  occ. eigenvalues --  -10.19493 -10.19405 -10.19357 -10.19338 -10.19104
 Alpha  occ. eigenvalues --  -10.19101 -10.19076 -10.18961 -10.18949 -10.18886
 Alpha  occ. eigenvalues --  -10.18687 -10.18532 -10.18244 -10.18174 -10.17925
 Alpha  occ. eigenvalues --  -10.17919 -10.17614 -10.17609  -0.99808  -0.98506
 Alpha  occ. eigenvalues --   -0.96251  -0.87952  -0.87394  -0.87031  -0.84528
 Alpha  occ. eigenvalues --   -0.84206  -0.81921  -0.80249  -0.78923  -0.77153
 Alpha  occ. eigenvalues --   -0.76303  -0.75714  -0.74203  -0.73349  -0.73232
 Alpha  occ. eigenvalues --   -0.73099  -0.72064  -0.70396  -0.66029  -0.65033
 Alpha  occ. eigenvalues --   -0.64165  -0.62897  -0.62764  -0.61596  -0.60316
 Alpha  occ. eigenvalues --   -0.59720  -0.59169  -0.58893  -0.58266  -0.57244
 Alpha  occ. eigenvalues --   -0.55198  -0.53866  -0.52260  -0.51526  -0.51381
 Alpha  occ. eigenvalues --   -0.50902  -0.50183  -0.49366  -0.48224  -0.47788
 Alpha  occ. eigenvalues --   -0.47517  -0.47069  -0.46044  -0.45174  -0.44578
 Alpha  occ. eigenvalues --   -0.44314  -0.43909  -0.43726  -0.43073  -0.42930
 Alpha  occ. eigenvalues --   -0.42397  -0.42226  -0.41920  -0.41398  -0.41188
 Alpha  occ. eigenvalues --   -0.40997  -0.40425  -0.40292  -0.39927  -0.39065
 Alpha  occ. eigenvalues --   -0.37952  -0.37885  -0.37485  -0.37061  -0.36295
 Alpha  occ. eigenvalues --   -0.35755  -0.35502  -0.34652  -0.34282  -0.34040
 Alpha  occ. eigenvalues --   -0.33685  -0.33148  -0.32991  -0.31504  -0.30895
 Alpha  occ. eigenvalues --   -0.30202  -0.29109  -0.28516  -0.27134  -0.26597
 Alpha  occ. eigenvalues --   -0.25754  -0.24060  -0.23862  -0.23477  -0.22796
 Alpha  occ. eigenvalues --   -0.21848  -0.21314  -0.18313
 Alpha virt. eigenvalues --   -0.04445  -0.03754  -0.03116  -0.02222  -0.01757
 Alpha virt. eigenvalues --   -0.01674  -0.00090   0.01434   0.02137   0.03313
 Alpha virt. eigenvalues --    0.04540   0.06250   0.08340   0.09608   0.09776

 Mulliken charges:
               1
     1  C   -0.122641
     2  C   -0.137082
     3  C   -0.169805
     4  C    0.101547
     5  C    0.402648
     6  N   -0.465844
     7  C    0.028285
     8  C    0.274878
     9  N   -0.671890
    10  C    0.284704
    11  C   -0.168385
    12  C   -0.205277
    13  C    0.143309
    14  C   -0.193306
    15  C   -0.136606
    16  C   -0.136210
    17  C   -0.190953
    18  C    0.135986
    19  C   -0.250195
    20  C    0.159358
    21  C   -0.158065
    22  C   -0.166158
    23  C   -0.154220
    24  C    0.301084
    25  C    0.087013
    26  C   -0.235669
    27  C    0.036707
    28  N   -0.614564
    29  C    0.283089
    30  C   -0.156715
    31  C   -0.142306
    32  C   -0.121874
    33  C   -0.139829
    34  C   -0.154288
    35  C    0.023090
    36  N   -0.465393
    37  C   -0.169575
    38  C   -0.137109
    39  H    0.125839
    40  H    0.126740
    41  H    0.154229
    42  H    0.162472
    43  H    0.146837
    44  H    0.135601
    45  H    0.130201
    46  H    0.129828
    47  H    0.130186
    48  H    0.130761
    49  H    0.145205
    50  H    0.137572
    51  H    0.131599
    52  H    0.140969
    53  H    0.148022
    54  H    0.163106
    55  H    0.153302
    56  H    0.139945
    57  H    0.137019
    58  H    0.140643
    59  H    0.149228
    60  H    0.161970
    61  H    0.154498
    62  H    0.126491
 Sum of Mulliken charges =  -0.00000

 Dipole moment (field-independent basis, Debye):
    X=              4.4410    Y=              0.2035    Z=             -0.0369  Tot=              4.4458
 Quadrupole moment (field-independent basis, Debye-Ang):
   XX=           -197.2066   YY=           -196.8234   ZZ=           -211.7332
   XY=             12.1754   XZ=             -4.1203   YZ=             -9.1209

 Normal termination of Gaussian 16 at Sat Nov  5 10:54:24 2022.
