 Gaussian 16, Revision B.01,
 Gaussian 16:  ES64L-G16RevB.01 20-Dec-2017

 -----------------------------
 #p b3lyp/6-31g(d) opt SCF=XQC
 -----------------------------

 ------------------------------
 Gaussian input prepared by ASE
 ------------------------------
 Symbolic Z-matrix:
 Charge =  0 Multiplicity = 1

 SCF Done:  E(RB3LYP) =  -1529.09133680     A.U. after   16 cycles
 SCF Done:  E(RB3LYP) =  -1529.10019122     A.U. after   13 cycles
 SCF Done:  E(RB3LYP) =  -1529.10071397     A.U. after   12 cycles
 SCF Done:  E(RB3LYP) =  -1529.10078814     A.U. after   11 cycles
 SCF Done:  E(RB3LYP) =  -1529.10080773     A.U. after   10 cycles
 SCF Done:  E(RB3LYP) =  -1529.10081635     A.U. after   10 cycles
 SCF Done:  E(RB3LYP) =  -1529.10081790     A.U. after    9 cycles
 SCF Done:  E(RB3LYP) =  -1529.10081830     A.U. after    8 cycles
 SCF Done:  E(RB3LYP) =  -1529.10081842     A.U. after    7 cycles
 SCF Done:  E(RB3LYP) =  -1529.10081843     A.U. after    7 cycles
 SCF Done:  E(RB3LYP) =  -1529.10081841     A.U. after    7 cycles
 Optimization completed.
    -- Stationary point found.

                         Standard orientation:
 ---------------------------------------------------------------------
 Center     Atomic      Atomic             Coordinates (Angstroms)
 Number     Number       Type             X           Y           Z
 ---------------------------------------------------------------------
      1          6           0        6.239672   -5.104946   -0.350739
      2          6           0        6.347983   -3.933165   -1.103684
      3          6           0        5.401960   -2.919971   -0.966222
      4          6           0        4.329266   -3.065348   -0.071583
      5          6           0        3.320817   -1.988714    0.076234
      6          7           0        2.321109   -2.177476    0.957560
      7          6           0        1.422854   -1.207758    1.091634
      8          6           0        1.477438   -0.010935    0.354700
      9          7           0        0.517337    1.002140    0.494582
     10          6           0        0.866320    2.371001    0.323529
     11          6           0        2.093461    2.864441    0.854154
     12          6           0        2.432584    4.187659    0.711141
     13          6           0        1.570580    5.105001    0.051593
     14          6           0        1.891912    6.478367   -0.104785
     15          6           0        1.028020    7.335908   -0.749443
     16          6           0       -0.199140    6.852893   -1.266775
     17          6           0       -0.541018    5.526337   -1.128725
     18          6           0        0.327988    4.615132   -0.467925
     19          6           0        0.009119    3.241106   -0.325620
     20          6           0       -0.824518    0.661318    0.857083
     21          6           0       -1.418586    1.231301    1.981527
     22          6           0       -2.734524    0.905456    2.352329
     23          6           0       -3.494396    0.000999    1.619041
     24          6           0       -2.904213   -0.560845    0.481268
     25          6           0       -1.573247   -0.252390    0.081552
     26          6           0       -1.299113   -1.016668   -1.101942
     27          6           0       -2.422910   -1.744933   -1.374508
     28          7           0       -3.411440   -1.480720   -0.433840
     29          6           0       -4.701046   -2.076961   -0.429416
     30          6           0       -5.848955   -1.287071   -0.287855
     31          6           0       -7.108086   -1.886334   -0.297030
     32          6           0       -7.233746   -3.266363   -0.467746
     33          6           0       -6.088308   -4.049378   -0.622309
     34          6           0       -4.823969   -3.462149   -0.594019
     35          6           0        2.554774    0.077694   -0.545188
     36          7           0        3.461004   -0.884861   -0.681431
     37          6           0        4.226621   -4.246348    0.681333
     38          6           0        5.175694   -5.256391    0.541888
     39          1           0        6.979204   -5.894272   -0.458644
     40          1           0        7.173281   -3.807749   -1.799941
     41          1           0        5.478622   -2.006247   -1.545156
     42          1           0        0.618608   -1.376655    1.804656
     43          1           0        2.753826    2.184914    1.383426
     44          1           0        3.370047    4.552477    1.124253
     45          1           0        2.835671    6.843284    0.294178
     46          1           0        1.284485    8.385521   -0.863786
     47          1           0       -0.873585    7.537293   -1.774501
     48          1           0       -1.483432    5.155998   -1.525251
     49          1           0       -0.927935    2.870832   -0.730863
     50          1           0       -0.846674    1.934822    2.578384
     51          1           0       -3.159374    1.360619    3.242332
     52          1           0       -4.501566   -0.261017    1.923723
     53          1           0       -0.388026   -1.018874   -1.681723
     54          1           0       -2.632381   -2.420961   -2.191218
     55          1           0       -5.750921   -0.210671   -0.192409
     56          1           0       -7.994322   -1.267547   -0.186526
     57          1           0       -8.216918   -3.727870   -0.481162
     58          1           0       -6.175292   -5.124688   -0.750995
     59          1           0       -3.929516   -4.071477   -0.681844
     60          1           0        2.681262    0.961413   -1.167697
     61          1           0        3.396483   -4.355157    1.370493
     62          1           0        5.084644   -6.165254    1.131224
 ---------------------------------------------------------------------

 The electronic state is 1-A.
 Alpha  occ. eigenvalues --  -14.39404 -14.37408 -14.32999 -14.32948 -10.24782
 Alpha  occ. eigenvalues --  -10.24643 -10.23837 -10.23434 -10.23031 -10.22959
 Alpha  occ. eigenvalues --  -10.22861 -10.22670 -10.22414 -10.20604 -10.20599
 Alpha  occ. eigenvalues --  -10.20543 -10.20537 -10.20266 -10.19931 -10.19671
 Alpha  occ. eigenvalues --  -10.19493 -10.19405 -10.19357 -10.19338 -10.19104
 Alpha  occ. eigenvalues --  -10.19101 -10.19076 -10.18961 -10.18949 -10.18886
 Alpha  occ. eigenvalues --  -10.18687 -10.18532 -10.18244 -10.18174 -10.17925
 Alpha  occ. eigenvalues --  -10.17919 -10.17614 -10.17610  -0.99808  -0.98506
 Alpha  occ. eigenvalues --   -0.96251  -0.87952  -0.87394  -0.87031  -0.84528
 Alpha  occ. eigenvalues --   -0.84206  -0.81921  -0.80249  -0.78923  -0.77153
 Alpha  occ. eigenvalues --   -0.76303  -0.75714  -0.74203  -0.73349  -0.73232
 Alpha  occ. eigenvalues --   -0.73099  -0.72064  -0.70396  -0.66029  -0.65033
 Alpha  occ. eigenvalues --   -0.64165  -0.62897  -0.62764  -0.61596  -0.60316
 Alpha  occ. eigenvalues --   -0.59720  -0.59170  -0.58893  -0.58266  -0.57244
 Alpha  occ. eigenvalues --   -0.55198  -0.53866  -0.52260  -0.51526  -0.51381
 Alpha  occ. eigenvalues --   -0.50902  -0.50183  -0.49366  -0.48224  -0.47788
 Alpha  occ. eigenvalues --   -0.47517  -0.47069  -0.46044  -0.45174  -0.44578
 Alpha  occ. eigenvalues --   -0.44314  -0.43909  -0.43726  -0.43073  -0.42930
 Alpha  occ. eigenvalues --   -0.42397  -0.42226  -0.41920  -0.41398  -0.41188
 Alpha  occ. eigenvalues --   -0.40997  -0.40425  -0.40292  -0.39927  -0.39065
 Alpha  occ. eigenvalues --   -0.37952  -0.37885  -0.37485  -0.37061  -0.36295
 Alpha  occ. eigenvalues --   -0.35755  -0.35502  -0.34652  -0.34282  -0.34040
 Alpha  occ. eigenvalues --   -0.33685  -0.33148  -0.32991  -0.31504  -0.30895
 Alpha  occ. eigenvalues --   -0.30202  -0.29109  -0.28516  -0.27134  -0.26597
 Alpha  occ. eigenvalues --   -0.25754  -0.24060  -0.23862  -0.23477  -0.22796
 Alpha  occ. eigenvalues --   -0.21848  -0.21314  -0.18313
 Alpha virt. eigenvalues --   -0.04445  -0.03754  -0.03116  -0.02222  -0.01757
 Alpha virt. eigenvalues --   -0.01674  -0.00090   0.01434   0.02137   0.03313
 Alpha virt. eigenvalues --    0.04540   0.06250   0.08340   0.09608   0.09776

 Mulliken charges:
               1
     1  C   -0.122632
     2  C   -0.137083
     3  C   -0.169804
     4  C    0.101543
     5  C    0.402629
     6  N   -0.465819
     7  C    0.028278
     8  C    0.274903
     9  N   -0.671893
    10  C    0.284715
    11  C   -0.168387
    12  C   -0.205280
    13  C    0.143311
    14  C   -0.193309
    15  C   -0.136607
    16  C   -0.136209
    17  C   -0.190951
    18  C    0.135985
    19  C   -0.250198
    20  C    0.159352
    21  C   -0.158059
    22  C   -0.166172
    23  C   -0.154195
    24  C    0.301082
    25  C    0.087016
    26  C   -0.235676
    27  C    0.036708
    28  N   -0.614570
    29  C    0.283088
    30  C   -0.156721
    31  C   -0.142298
    32  C   -0.121878
    33  C   -0.139826
    34  C   -0.154290
    35  C    0.023060
    36  N   -0.465384
    37  C   -0.169570
    38  C   -0.137121
    39  H    0.125838
    40  H    0.126740
    41  H    0.154228
    42  H    0.162469
    43  H    0.146842
    44  H    0.135601
    45  H    0.130201
    46  H    0.129828
    47  H    0.130186
    48  H    0.130761
    49  H    0.145208
    50  H    0.137571
    51  H    0.131600
    52  H    0.140967
    53  H    0.148023
    54  H    0.163105
    55  H    0.153302
    56  H    0.139944
    57  H    0.137019
    58  H    0.140643
    59  H    0.149226
    60  H    0.161970
    61  H    0.154498
    62  H    0.126491
 Sum of Mulliken charges =  -0.00000

 Dipole moment (field-independent basis, Debye):
    X=             -4.3951    Y=              0.5996    Z=             -0.2983  Tot=              4.4458
 Quadrupole moment (field-independent basis, Debye-Ang):
   XX=           -191.9624   YY=           -197.3797   ZZ=           -215.7122
   XY=             12.5353   XZ=              1.9397   YZ=              3.0849

 1\1\GINC-NODE49\FOpt\RB3LYP\6-31G(d)\C34H24N4\WYKGROUP\05-Nov-2022\0\\
 #p b3lyp/6-31g(d) opt SCF=XQC\\Gaussian input prepared by ASE\\0,1\C,-
 7.0930795872,3.3808501672,-2.1019573338\C,-6.9320867462,2.0283871891,-
 2.4128475277\C,-5.8319374643,1.32296683,-1.9306939067\C,-4.8727097569,
 1.962794757,-1.1290165367\C,-3.7006758613,1.2144067955,-0.6150005846\N
 ,-2.8198566785,1.8756530526,0.1587520633\C,-1.7741391596,1.1999382759,
 0.622512211\C,-1.5571315241,-0.1598667589,0.3356768308\N,-0.4433763441
 ,-0.8616331656,0.8201931138\C,-0.5263107392,-2.2498933404,1.1213333473

 Normal termination of Gaussian 16 at Sat Nov  5 01:17:41 2022.
