 Gaussian 16, Revision B.01,
 Gaussian 16:  ES64L-G16RevB.01 20-Dec-2017

 -----------------------------
 #p b3lyp/6-31g(d) opt SCF=XQC
 -----------------------------

 ------------------------------
 Gaussian input prepared by ASE
 ------------------------------
 Symbolic Z-matrix:
 Charge =  0 Multiplicity = 1

 SCF Done:  E(RB3LYP) =  -3573.47488794     A.U. after   15 cycles
 SCF Done:  E(RB3LYP) =  -3573.49546381     A.U. after   13 cycles
 SCF Done:  E(RB3LYP) =  -3573.49696047     A.U. after   12 cycles
 SCF Done:  E(RB3LYP) =  -3573.49727266     A.U. after   12 cycles
 SCF Done:  E(RB3LYP) =  -3573.49737317     A.U. after   12 cycles
 SCF Done:  E(RB3LYP) =  -3573.49744457     A.U. after   12 cycles
 SCF Done:  E(RB3LYP) =  -3573.49746749     A.U. after   11 cycles
 SCF Done:  E(RB3LYP) =  -3573.49747424     A.U. after   10 cycles
 SCF Done:  E(RB3LYP) =  -3573.49747467     A.U. after    9 cycles
 SCF Done:  E(RB3LYP) =  -3573.49747482     A.U. after    7 cycles
 SCF Done:  E(RB3LYP) =  -3573.49747487     A.U. after    7 cycles
 SCF Done:  E(RB3LYP) =  -3573.49747488     A.U. after    5 cycles
 Optimization completed.
    -- Stationary point found.

                         Standard orientation:
 ---------------------------------------------------------------------
 Center     Atomic      Atomic             Coordinates (Angstroms)
 Number     Number       Type             X           Y           Z
 ---------------------------------------------------------------------
      1          8           0       -0.206812    6.776684   -2.150100
      2         16           0        0.057159    6.229687   -0.809284
      3          8           0        0.392080    7.095518    0.333015
      4          6           0        1.389983    5.029382   -0.976639
      5          6           0        1.620326    4.424822   -2.213371
      6          6           0        2.654555    3.501659   -2.337797
      7          6           0        3.471780    3.173862   -1.241229
      8          6           0        4.573121    2.190035   -1.380871
      9          6           0        4.882591    1.296319   -0.341488
     10          6           0        5.907535    0.364218   -0.471143
     11          6           0        6.668078    0.314395   -1.646220
     12          7           0        7.718292   -0.629957   -1.781909
     13          6           0        7.868849   -1.537580   -2.826615
     14          6           0        7.077895   -1.775614   -3.952677
     15          6           0        7.507504   -2.790533   -4.804609
     16          7           0        8.607942   -3.545916   -4.620251
     17          6           0        9.344162   -3.312701   -3.531368
     18          6           0        9.024211   -2.324501   -2.596259
     19          6           0        9.605675   -1.870789   -1.349312
     20          6           0       10.750919   -2.233473   -0.635888
     21          6           0       11.052653   -1.571309    0.558904
     22          7           0       12.200035   -1.936881    1.318292
     23          6           0       12.494032   -3.310241    1.536625
     24          6           0       11.466528   -4.219187    1.838772
     25          6           0       11.755637   -5.567391    2.039445
     26          6           0       13.070207   -6.032324    1.961446
     27          6           0       14.094994   -5.129886    1.669457
     28          6           0       13.813832   -3.782856    1.448707
     29          6           0       13.063070   -0.927062    1.821807
     30          6           0       13.365475    0.205612    1.048024
     31          6           0       14.199027    1.201637    1.553659
     32          6           0       14.759840    1.081642    2.826671
     33          6           0       14.468104   -0.047603    3.595189
     34          6           0       13.621283   -1.040088    3.106298
     35          6           0       10.210211   -0.532381    1.013952
     36          6           0        9.081341   -0.140391    0.302281
     37          6           0        8.775140   -0.826736   -0.874459
     38          6           0        6.380187    1.205901   -2.687281
     39          6           0        5.340497    2.121464   -2.556034
     40          6           0        3.223889    3.808624   -0.010865
     41          6           0        2.191045    4.731472    0.126927
     42          6           0       -1.384689    5.258491   -0.337077
     43          6           0       -1.657098    5.042708    1.014810
     44          6           0       -2.776533    4.297211    1.373141
     45          6           0       -3.634683    3.760011    0.396806
     46          6           0       -4.825235    2.965186    0.785675
     47          6           0       -6.030528    3.065666    0.069962
     48          6           0       -7.152023    2.328364    0.437007
     49          6           0       -7.090740    1.450247    1.526425
     50          7           0       -8.229366    0.690700    1.901188
     51          6           0       -8.799073    0.647480    3.170536
     52          6           0       -8.454889    1.310372    4.350528
     53          6           0       -9.259849    1.055030    5.458332
     54          7           0      -10.326976    0.232369    5.470341
     55          6           0      -10.648668   -0.381874    4.329648
     56          6           0       -9.925327   -0.211698    3.145908
     57          6           0      -10.044680   -0.716991    1.793458
     58          6           0      -10.942971   -1.585628    1.167973
     59          6           0      -10.763242   -1.900676   -0.182993
     60          7           0      -11.652369   -2.796527   -0.842271
     61          6           0      -12.040347   -4.004672   -0.201747
     62          6           0      -13.371113   -4.450386   -0.259233
     63          6           0      -13.742729   -5.638617    0.367088
     64          6           0      -12.805458   -6.392739    1.076097
     65          6           0      -11.483756   -5.946805    1.143802
     66          6           0      -11.098194   -4.769805    0.505374
     67          6           0      -12.170934   -2.459837   -2.120795
     68          6           0      -12.311834   -3.441727   -3.116095
     69          6           0      -12.821674   -3.106041   -4.368468
     70          6           0      -13.182300   -1.788713   -4.660989
     71          6           0      -13.034786   -0.808864   -3.677324
     72          6           0      -12.542912   -1.137599   -2.415387
     73          6           0       -9.682457   -1.334469   -0.895116
     74          6           0       -8.794580   -0.447785   -0.295223
     75          6           0       -8.985766   -0.138012    1.052750
     76          6           0       -5.894246    1.331019    2.244369
     77          6           0       -4.783667    2.087198    1.881898
     78          6           0       -3.340364    4.002660   -0.956766
     79          6           0       -2.225318    4.748638   -1.327738
     80          1           0        1.003805    4.686867   -3.066728
     81          1           0        2.818808    3.013718   -3.293883
     82          1           0        4.286307    1.302095    0.566261
     83          1           0        6.107999   -0.343369    0.327015
     84          1           0        6.174275   -1.213860   -4.161957
     85          1           0        6.928579   -3.015895   -5.698441
     86          1           0       10.223438   -3.941772   -3.397863
     87          1           0       11.404963   -3.020622   -0.996924
     88          1           0       10.444351   -3.862111    1.914086
     89          1           0       10.946968   -6.255487    2.271981
     90          1           0       13.292518   -7.082886    2.124972
     91          1           0       15.122546   -5.476760    1.596703
     92          1           0       14.613449   -3.089904    1.207311
     93          1           0       12.945562    0.298121    0.051500
     94          1           0       14.421793    2.070327    0.939423
     95          1           0       15.414752    1.856595    3.214506
     96          1           0       14.890442   -0.152976    4.591216
     97          1           0       13.387247   -1.907919    3.714592
     98          1           0       10.459148   -0.026640    1.941065
     99          1           0        8.458445    0.670508    0.664654
    100          1           0        6.987402    1.193168   -3.586781
    101          1           0        5.150127    2.822714   -3.363148
    102          1           0        3.869178    3.602758    0.837914
    103          1           0        2.024488    5.243016    1.069066
    104          1           0       -1.016693    5.482850    1.771917
    105          1           0       -3.008183    4.158604    2.424964
    106          1           0       -6.105472    3.762209   -0.759887
    107          1           0       -8.085499    2.446567   -0.103872
    108          1           0       -7.615130    1.993552    4.413918
    109          1           0       -9.035019    1.544981    6.403980
    110          1           0      -11.519921   -1.035048    4.360741
    111          1           0      -11.768084   -2.024209    1.719848
    112          1           0      -14.108109   -3.861535   -0.795850
    113          1           0      -14.777378   -5.967124    0.311731
    114          1           0      -13.100834   -7.314194    1.569576
    115          1           0      -10.740391   -6.525229    1.686306
    116          1           0      -10.066492   -4.435771    0.550716
    117          1           0      -12.019928   -4.464606   -2.900709
    118          1           0      -12.923179   -3.879703   -5.125231
    119          1           0      -13.572834   -1.530061   -5.641019
    120          1           0      -13.318434    0.219638   -3.885525
    121          1           0      -12.446375   -0.373801   -1.650373
    122          1           0       -9.546727   -1.603289   -1.937553
    123          1           0       -7.967245   -0.032564   -0.860875
    124          1           0       -5.832830    0.629652    3.070404
    125          1           0       -3.857010    1.962367    2.434436
    126          1           0       -3.981394    3.586196   -1.728017
    127          1           0       -2.012088    4.947271   -2.372752
 ---------------------------------------------------------------------

 The electronic state is 1-A.
 Alpha  occ. eigenvalues --  -89.09868 -19.14282 -19.14280 -14.40050 -14.40041
 Alpha  occ. eigenvalues --  -14.36470 -14.36463 -14.32154 -14.32138 -10.25660
 Alpha  occ. eigenvalues --  -10.25659 -10.24430 -10.24416 -10.23686 -10.23677
 Alpha  occ. eigenvalues --  -10.23423 -10.23421 -10.23253 -10.23245 -10.23034
 Alpha  occ. eigenvalues --  -10.23014 -10.22991 -10.22982 -10.22981 -10.22979
 Alpha  occ. eigenvalues --  -10.22495 -10.22492 -10.22302 -10.22289 -10.22189
 Alpha  occ. eigenvalues --  -10.22187 -10.22180 -10.22179 -10.22022 -10.22003
 Alpha  occ. eigenvalues --  -10.21755 -10.21752 -10.21726 -10.21726 -10.21726
 Alpha  occ. eigenvalues --  -10.21726 -10.21722 -10.21721 -10.21673 -10.21673
 Alpha  occ. eigenvalues --  -10.21655 -10.21653 -10.20395 -10.20393 -10.20322
 Alpha  occ. eigenvalues --  -10.20314 -10.20026 -10.20007 -10.19965 -10.19953
 Alpha  occ. eigenvalues --  -10.19838 -10.19820 -10.19771 -10.19770 -10.19127
 Alpha  occ. eigenvalues --  -10.19110 -10.19099 -10.19096 -10.19069 -10.19054
 Alpha  occ. eigenvalues --  -10.19053 -10.19044 -10.18796 -10.18774 -10.18766
 Alpha  occ. eigenvalues --  -10.18766 -10.18762 -10.18747 -10.18727 -10.18721
 Alpha  occ. eigenvalues --  -10.18636 -10.18622 -10.18588 -10.18579  -8.12700
 Alpha  occ. eigenvalues --   -6.09131  -6.09083  -6.09023  -1.10015  -1.00715
 Alpha  occ. eigenvalues --   -1.00711  -0.99868  -0.96442  -0.96439  -0.93190
 Alpha  occ. eigenvalues --   -0.93174  -0.89643  -0.89559  -0.88007  -0.87848
 Alpha  occ. eigenvalues --   -0.85819  -0.85778  -0.85338  -0.85336  -0.83733
 Alpha  occ. eigenvalues --   -0.83699  -0.82308  -0.82090  -0.80108  -0.79365
 Alpha  occ. eigenvalues --   -0.78296  -0.78262  -0.77729  -0.77696  -0.77039
 Alpha  occ. eigenvalues --   -0.77025  -0.76621  -0.76223  -0.75477  -0.75443
 Alpha  occ. eigenvalues --   -0.74992  -0.74650  -0.74272  -0.74270  -0.74127
 Alpha  occ. eigenvalues --   -0.73765  -0.73487  -0.73466  -0.70997  -0.70733
 Alpha  occ. eigenvalues --   -0.69174  -0.67233  -0.66202  -0.65114  -0.65021
 Alpha  occ. eigenvalues --   -0.64740  -0.63628  -0.63503  -0.63415  -0.62286
 Alpha  occ. eigenvalues --   -0.62202  -0.62117  -0.61999  -0.61803  -0.60671
 Alpha  occ. eigenvalues --   -0.60495  -0.60214  -0.60191  -0.59916  -0.59428
 Alpha  occ. eigenvalues --   -0.59410  -0.59310  -0.58823  -0.57323  -0.57318
 Alpha  occ. eigenvalues --   -0.56133  -0.55686  -0.55174  -0.54118  -0.53501
 Alpha  occ. eigenvalues --   -0.53451  -0.53233  -0.53213  -0.53151  -0.52862
 Alpha  occ. eigenvalues --   -0.51836  -0.50027  -0.49782  -0.49716  -0.49605
 Alpha  occ. eigenvalues --   -0.49313  -0.48984  -0.48927  -0.47872  -0.47864
 Alpha  occ. eigenvalues --   -0.47690  -0.47195  -0.47127  -0.47054  -0.46958
 Alpha  occ. eigenvalues --   -0.46878  -0.46495  -0.46418  -0.46056  -0.46013
 Alpha  occ. eigenvalues --   -0.45263  -0.45182  -0.45106  -0.45020  -0.44880
 Alpha  occ. eigenvalues --   -0.44861  -0.44676  -0.44580  -0.44526  -0.44516
 Alpha  occ. eigenvalues --   -0.44408  -0.44383  -0.43980  -0.43691  -0.43662
 Alpha  occ. eigenvalues --   -0.43324  -0.43223  -0.43114  -0.43047  -0.42869
 Alpha  occ. eigenvalues --   -0.42803  -0.42113  -0.42094  -0.42072  -0.42053
 Alpha  occ. eigenvalues --   -0.41999  -0.41995  -0.40487  -0.40290  -0.39872
 Alpha  occ. eigenvalues --   -0.39622  -0.38939  -0.38759  -0.38051  -0.38012
 Alpha  occ. eigenvalues --   -0.37834  -0.37801  -0.37701  -0.37509  -0.37313
 Alpha  occ. eigenvalues --   -0.37279  -0.36726  -0.36721  -0.36564  -0.36543
 Alpha  occ. eigenvalues --   -0.36515  -0.36459  -0.36232  -0.36191  -0.35786
 Alpha  occ. eigenvalues --   -0.35773  -0.35466  -0.35453  -0.34769  -0.34705
 Alpha  occ. eigenvalues --   -0.34490  -0.34487  -0.34182  -0.34180  -0.33048
 Alpha  occ. eigenvalues --   -0.31831  -0.31210  -0.30767  -0.30371  -0.30289
 Alpha  occ. eigenvalues --   -0.30022  -0.29346  -0.29307  -0.28819  -0.28025
 Alpha  occ. eigenvalues --   -0.27872  -0.27850  -0.27660  -0.27322  -0.27275
 Alpha  occ. eigenvalues --   -0.26203  -0.25745  -0.25742  -0.25350  -0.25262
 Alpha  occ. eigenvalues --   -0.25175  -0.25060  -0.25042  -0.24758  -0.24721
 Alpha  occ. eigenvalues --   -0.22900  -0.22885  -0.22514  -0.22406  -0.18176
 Alpha  occ. eigenvalues --   -0.18169
 Alpha virt. eigenvalues --   -0.07342  -0.05562  -0.04032  -0.04028  -0.03481
 Alpha virt. eigenvalues --   -0.03039  -0.02877  -0.02324  -0.01872  -0.01592
 Alpha virt. eigenvalues --   -0.01585  -0.01104  -0.01102  -0.00624  -0.00592

 Mulliken charges:
               1
     1  O   -0.554929
     2  S    1.137226
     3  O   -0.554903
     4  C   -0.140040
     5  C   -0.146130
     6  C   -0.169393
     7  C    0.092858
     8  C    0.100693
     9  C   -0.189208
    10  C   -0.156854
    11  C    0.279116
    12  N   -0.738649
    13  C    0.345068
    14  C   -0.188282
    15  C    0.030046
    16  N   -0.433711
    17  C   -0.014693
    18  C    0.032195
    19  C    0.058158
    20  C   -0.248917
    21  C    0.273306
    22  N   -0.655919
    23  C    0.281339
    24  C   -0.163863
    25  C   -0.139236
    26  C   -0.128974
    27  C   -0.139924
    28  C   -0.165880
    29  C    0.281317
    30  C   -0.167516
    31  C   -0.139632
    32  C   -0.129426
    33  C   -0.139849
    34  C   -0.165049
    35  C   -0.176052
    36  C   -0.182588
    37  C    0.319131
    38  C   -0.158392
    39  C   -0.189377
    40  C   -0.170057
    41  C   -0.147087
    42  C   -0.140016
    43  C   -0.146936
    44  C   -0.169995
    45  C    0.092784
    46  C    0.100701
    47  C   -0.189492
    48  C   -0.156601
    49  C    0.277962
    50  N   -0.738358
    51  C    0.345145
    52  C   -0.188385
    53  C    0.030049
    54  N   -0.433708
    55  C   -0.014615
    56  C    0.032288
    57  C    0.057943
    58  C   -0.249057
    59  C    0.272063
    60  N   -0.655805
    61  C    0.281120
    62  C   -0.165697
    63  C   -0.139974
    64  C   -0.128909
    65  C   -0.139270
    66  C   -0.164318
    67  C    0.282599
    68  C   -0.165424
    69  C   -0.139803
    70  C   -0.129621
    71  C   -0.139768
    72  C   -0.167829
    73  C   -0.174651
    74  C   -0.183119
    75  C    0.319690
    76  C   -0.157799
    77  C   -0.189060
    78  C   -0.169362
    79  C   -0.146276
    80  H    0.176878
    81  H    0.145947
    82  H    0.144582
    83  H    0.158183
    84  H    0.142221
    85  H    0.139393
    86  H    0.144400
    87  H    0.152311
    88  H    0.139267
    89  H    0.130938
    90  H    0.127703
    91  H    0.131560
    92  H    0.144657
    93  H    0.142190
    94  H    0.130986
    95  H    0.127299
    96  H    0.131016
    97  H    0.143954
    98  H    0.148141
    99  H    0.144798
   100  H    0.159324
   101  H    0.147991
   102  H    0.146497
   103  H    0.177524
   104  H    0.177390
   105  H    0.146693
   106  H    0.147879
   107  H    0.159068
   108  H    0.142759
   109  H    0.139674
   110  H    0.144379
   111  H    0.152541
   112  H    0.144497
   113  H    0.131529
   114  H    0.127721
   115  H    0.131142
   116  H    0.140417
   117  H    0.144301
   118  H    0.131071
   119  H    0.127029
   120  H    0.130143
   121  H    0.141004
   122  H    0.147783
   123  H    0.144755
   124  H    0.158411
   125  H    0.144763
   126  H    0.145838
   127  H    0.177038
 Sum of Mulliken charges =  -0.00000

 Dipole moment (field-independent basis, Debye):
    X=              0.6283    Y=             -1.9549    Z=              0.1151  Tot=              2.0566
 Quadrupole moment (field-independent basis, Debye-Ang):
   XX=           -474.9641   YY=           -505.0243   ZZ=           -462.8498
   XY=             15.9821   XZ=             57.2577   YZ=             -7.2493

 Normal termination of Gaussian 16 at Sat Nov  5 02:04:47 2022.
