 Gaussian 16, Revision B.01,
 Gaussian 16:  ES64L-G16RevB.01 20-Dec-2017

 -----------------------------
 #p b3lyp/6-31g(d) opt SCF=XQC
 -----------------------------

 ------------------------------
 Gaussian input prepared by ASE
 ------------------------------
 Symbolic Z-matrix:
 Charge =  0 Multiplicity = 1

 SCF Done:  E(RB3LYP) =  -1664.29174940     A.U. after   15 cycles
 SCF Done:  E(RB3LYP) =  -1664.30005539     A.U. after   13 cycles
 SCF Done:  E(RB3LYP) =  -1664.30029019     A.U. after   12 cycles
 SCF Done:  E(RB3LYP) =  -1664.30034307     A.U. after   11 cycles
 SCF Done:  E(RB3LYP) =  -1664.30034629     A.U. after    9 cycles
 SCF Done:  E(RB3LYP) =  -1664.30034642     A.U. after    8 cycles
 SCF Done:  E(RB3LYP) =  -1664.30034715     A.U. after    7 cycles
 SCF Done:  E(RB3LYP) =  -1664.30034722     A.U. after    7 cycles
 SCF Done:  E(RB3LYP) =  -1664.30034726     A.U. after    7 cycles
 Optimization completed.
    -- Stationary point found.

                         Standard orientation:
 ---------------------------------------------------------------------
 Center     Atomic      Atomic             Coordinates (Angstroms)
 Number     Number       Type             X           Y           Z
 ---------------------------------------------------------------------
      1          7           0       12.327173    0.106208   -1.245333
      2          6           0       11.176890    0.089808   -1.070939
      3          6           0        9.759751    0.069104   -0.856223
      4          6           0        9.077523   -1.155146   -0.754673
      5          6           0        7.703549   -1.169831   -0.543996
      6          6           0        6.972934    0.026748   -0.429304
      7          6           0        5.493078    0.023902   -0.264039
      8          6           0        4.724565    0.710626   -1.186836
      9          6           0        3.318826    0.728775   -1.108043
     10          6           0        2.639616    0.058227   -0.106617
     11          6           0        1.152159    0.137834   -0.075052
     12          6           0        0.460412    0.625948    1.046795
     13          6           0       -0.926525    0.748823    1.038497
     14          6           0       -1.680140    0.386115   -0.091136
     15          6           0       -3.168051    0.455577   -0.094332
     16          6           0       -3.886875   -0.668511   -0.383315
     17          6           0       -5.321774   -0.695815   -0.370968
     18          6           0       -6.042995   -1.853267   -0.653579
     19          6           0       -7.444518   -1.840331   -0.612052
     20          6           0       -8.252984   -2.980746   -0.889420
     21          6           0       -9.621371   -2.893575   -0.827084
     22          6           0      -10.251738   -1.663991   -0.484578
     23          6           0       -9.504138   -0.545494   -0.211121
     24          6           0       -8.079917   -0.595320   -0.265580
     25          7           0       -7.387788    0.529911    0.010945
     26          6           0       -6.059821    0.493880   -0.037762
     27          6           0       -5.302900    1.718278    0.249231
     28          7           0       -6.004599    2.836236    0.528428
     29          6           0       -5.340759    3.960530    0.752134
     30          6           0       -3.941069    4.061512    0.696973
     31          6           0       -3.211789    2.920903    0.419358
     32          6           0       -3.877804    1.694753    0.204801
     33          6           0       -0.988875   -0.100025   -1.211425
     34          6           0        0.399411   -0.219519   -1.204234
     35          6           0        3.396077   -0.679155    0.867490
     36          6           0        2.767240   -1.439276    1.893181
     37          6           0        3.501782   -2.111520    2.843414
     38          6           0        4.912249   -2.050222    2.821542
     39          6           0        5.557568   -1.353871    1.824931
     40          6           0        4.834424   -0.676104    0.803636
     41          6           0        7.668383    1.243316   -0.538138
     42          6           0        9.042938    1.271742   -0.747495
     43          1           0        9.628232   -2.085484   -0.850270
     44          1           0        7.182669   -2.120561   -0.485957
     45          1           0        5.214853    1.233873   -2.003138
     46          1           0        2.755344    1.296110   -1.843381
     47          1           0        1.017610    0.922693    1.930829
     48          1           0       -1.434520    1.117747    1.925236
     49          1           0       -3.363456   -1.596708   -0.600242
     50          1           0       -5.516355   -2.771801   -0.906431
     51          1           0       -7.766465   -3.917828   -1.150367
     52          1           0      -10.232966   -3.766144   -1.039635
     53          1           0      -11.336501   -1.617353   -0.440992
     54          1           0       -9.960561    0.403335    0.052165
     55          1           0       -5.945490    4.838036    0.979159
     56          1           0       -3.449884    5.015706    0.863574
     57          1           0       -2.129931    2.963710    0.356086
     58          1           0       -1.548610   -0.378005   -2.100246
     59          1           0        0.910388   -0.603084   -2.083187
     60          1           0        1.684676   -1.490424    1.916758
     61          1           0        2.995258   -2.685617    3.614412
     62          1           0        5.489878   -2.556942    3.589791
     63          1           0        6.640915   -1.310865    1.818648
     64          1           0        7.121235    2.176503   -0.442896
     65          1           0        9.568195    2.218531   -0.822442
 ---------------------------------------------------------------------

 The electronic state is 1-A.
 Alpha  occ. eigenvalues --  -14.33562 -14.32636 -14.32389 -10.24180 -10.23043
 Alpha  occ. eigenvalues --  -10.23009 -10.22878 -10.22611 -10.22581 -10.22375
 Alpha  occ. eigenvalues --  -10.22151 -10.22147 -10.21527 -10.21468 -10.21435
 Alpha  occ. eigenvalues --  -10.21427 -10.21406 -10.21376 -10.21374 -10.21303
 Alpha  occ. eigenvalues --  -10.21276 -10.21248 -10.21050 -10.20938 -10.20882
 Alpha  occ. eigenvalues --  -10.20672 -10.20412 -10.20377 -10.20335 -10.20320
 Alpha  occ. eigenvalues --  -10.20296 -10.20240 -10.20196 -10.20130 -10.20057
 Alpha  occ. eigenvalues --  -10.19987 -10.19962 -10.19907 -10.19892 -10.19823
 Alpha  occ. eigenvalues --  -10.19778 -10.19033  -0.95482  -0.93250  -0.90762
 Alpha  occ. eigenvalues --   -0.89402  -0.88090  -0.87301  -0.85286  -0.84780
 Alpha  occ. eigenvalues --   -0.83413  -0.81775  -0.80929  -0.79418  -0.77937
 Alpha  occ. eigenvalues --   -0.77298  -0.76429  -0.75968  -0.75503  -0.75065
 Alpha  occ. eigenvalues --   -0.74294  -0.73286  -0.71628  -0.67153  -0.66285
 Alpha  occ. eigenvalues --   -0.64758  -0.63872  -0.63618  -0.63089  -0.62559
 Alpha  occ. eigenvalues --   -0.61493  -0.61145  -0.60393  -0.60138  -0.58229
 Alpha  occ. eigenvalues --   -0.56606  -0.56298  -0.53548  -0.53365  -0.52835
 Alpha  occ. eigenvalues --   -0.52585  -0.51296  -0.50824  -0.50254  -0.49165
 Alpha  occ. eigenvalues --   -0.48421  -0.48110  -0.47376  -0.46798  -0.46359
 Alpha  occ. eigenvalues --   -0.45612  -0.45273  -0.44877  -0.44603  -0.44366
 Alpha  occ. eigenvalues --   -0.43815  -0.43359  -0.43148  -0.42841  -0.42698
 Alpha  occ. eigenvalues --   -0.42345  -0.41738  -0.41425  -0.40966  -0.40480
 Alpha  occ. eigenvalues --   -0.40379  -0.39819  -0.39768  -0.39592  -0.38113
 Alpha  occ. eigenvalues --   -0.37797  -0.37384  -0.37227  -0.36505  -0.35930
 Alpha  occ. eigenvalues --   -0.35832  -0.35650  -0.35263  -0.35069  -0.34684
 Alpha  occ. eigenvalues --   -0.34320  -0.33537  -0.33368  -0.33098  -0.32988
 Alpha  occ. eigenvalues --   -0.30536  -0.29766  -0.28774  -0.27741  -0.26588
 Alpha  occ. eigenvalues --   -0.26389  -0.26320  -0.25731  -0.25574  -0.25514
 Alpha  occ. eigenvalues --   -0.24146  -0.23563  -0.21969  -0.21091
 Alpha virt. eigenvalues --   -0.07501  -0.06615  -0.05192  -0.04230  -0.02798
 Alpha virt. eigenvalues --   -0.02143  -0.02042  -0.01460  -0.01188   0.00546
 Alpha virt. eigenvalues --    0.02465   0.02867   0.03708   0.05187   0.07587

 Mulliken charges:
               1
     1  N   -0.477614
     2  C    0.236951
     3  C    0.132731
     4  C   -0.141940
     5  C   -0.172830
     6  C    0.071794
     7  C    0.025701
     8  C   -0.183775
     9  C   -0.185881
    10  C    0.032104
    11  C    0.062067
    12  C   -0.173894
    13  C   -0.176756
    14  C    0.063505
    15  C    0.028220
    16  C   -0.258605
    17  C    0.173717
    18  C   -0.240969
    19  C    0.160275
    20  C   -0.188801
    21  C   -0.136867
    22  C   -0.135977
    23  C   -0.145830
    24  C    0.249894
    25  N   -0.578952
    26  C    0.233280
    27  C    0.192962
    28  N   -0.473825
    29  C    0.042591
    30  C   -0.145905
    31  C   -0.172138
    32  C    0.123630
    33  C   -0.169552
    34  C   -0.170640
    35  C    0.086193
    36  C   -0.205496
    37  C   -0.131859
    38  C   -0.131337
    39  C   -0.208120
    40  C    0.090297
    41  C   -0.170112
    42  C   -0.141318
    43  H    0.161068
    44  H    0.156301
    45  H    0.139694
    46  H    0.139734
    47  H    0.145967
    48  H    0.145423
    49  H    0.137799
    50  H    0.138079
    51  H    0.132887
    52  H    0.135353
    53  H    0.136712
    54  H    0.152076
    55  H    0.142590
    56  H    0.139117
    57  H    0.155736
    58  H    0.139550
    59  H    0.139228
    60  H    0.149220
    61  H    0.134845
    62  H    0.135217
    63  H    0.145915
    64  H    0.149646
    65  H    0.160927
 Sum of Mulliken charges =  -0.00000

 Dipole moment (field-independent basis, Debye):
    X=             -2.7794    Y=             -1.7397    Z=              0.4158  Tot=              3.3052
 Quadrupole moment (field-independent basis, Debye-Ang):
   XX=           -333.8280   YY=           -215.4137   ZZ=           -233.3804
   XY=             16.4630   XZ=             16.4903   YZ=              1.0125

 1\1\GINC-NODE13\FOpt\RB3LYP\6-31G(d)\C39H23N3\WYKGROUP\05-Nov-2022\0\\
 #p b3lyp/6-31g(d) opt SCF=XQC\\Gaussian input prepared by ASE\\0,1\N,1
 2.3533251515,1.3140494234,0.0286325162\C,11.2033847961,1.1366592236,0.
 0305484687\C,9.7866711692,0.9181816344,0.0323967939\C,9.1109185711,0.6
 488786334,-1.1698389211\C,7.7373324886,0.435313813,-1.1623678034\C,7.0
 007044718,0.4836847725,0.0350430532\C,5.5211143187,0.3165043795,0.0475
 151828\C,4.7477843955,1.3228825367,0.5978970381\C,3.3420806431,1.24438
 57658,0.6197148599\C,2.6677339409,0.1593160684,0.0889659888\C,1.179929

 Normal termination of Gaussian 16 at Sat Nov  5 01:15:53 2022.
