 Gaussian 16, Revision B.01,
 Gaussian 16:  ES64L-G16RevB.01 20-Dec-2017

 -----------------------------
 #p b3lyp/6-31g(d) opt SCF=XQC
 -----------------------------

 ------------------------------
 Gaussian input prepared by ASE
 ------------------------------
 Symbolic Z-matrix:
 Charge =  0 Multiplicity = 1

 SCF Done:  E(RB3LYP) =  -2185.52593252     A.U. after   16 cycles
 SCF Done:  E(RB3LYP) =  -2185.53827928     A.U. after   13 cycles
 SCF Done:  E(RB3LYP) =  -2185.53920943     A.U. after   12 cycles
 SCF Done:  E(RB3LYP) =  -2185.53966337     A.U. after   12 cycles
 SCF Done:  E(RB3LYP) =  -2185.53974276     A.U. after   11 cycles
 SCF Done:  E(RB3LYP) =  -2185.53979727     A.U. after   10 cycles
 SCF Done:  E(RB3LYP) =  -2185.53983195     A.U. after   10 cycles
 SCF Done:  E(RB3LYP) =  -2185.53984471     A.U. after    9 cycles
 SCF Done:  E(RB3LYP) =  -2185.53985283     A.U. after   10 cycles
 SCF Done:  E(RB3LYP) =  -2185.53985951     A.U. after   10 cycles
 SCF Done:  E(RB3LYP) =  -2185.53987496     A.U. after    6 cycles
 SCF Done:  E(RB3LYP) =  -2185.53987497     A.U. after    6 cycles
 SCF Done:  E(RB3LYP) =  -2185.53987498     A.U. after    6 cycles
 SCF Done:  E(RB3LYP) =  -2185.53987499     A.U. after    6 cycles
 SCF Done:  E(RB3LYP) =  -2185.53987500     A.U. after    6 cycles
 SCF Done:  E(RB3LYP) =  -2185.53987501     A.U. after    6 cycles
 SCF Done:  E(RB3LYP) =  -2185.53987502     A.U. after    6 cycles
 SCF Done:  E(RB3LYP) =  -2185.53987502     A.U. after    6 cycles
 SCF Done:  E(RB3LYP) =  -2185.53987503     A.U. after    6 cycles
 SCF Done:  E(RB3LYP) =  -2185.53987503     A.U. after    6 cycles
 Optimization completed.
    -- Stationary point found.

                         Standard orientation:
 ---------------------------------------------------------------------
 Center     Atomic      Atomic             Coordinates (Angstroms)
 Number     Number       Type             X           Y           Z
 ---------------------------------------------------------------------
      1          6           0        0.650134    4.953295    0.317195
      2          6           0        1.561765    3.749154    0.273675
      3          6           0        2.029503    3.157709    1.450424
      4          6           0        2.844552    2.022071    1.435027
      5          6           0        3.304717    1.415395    2.741874
      6          6           0        3.217216    1.457702    0.194394
      7          6           0        4.091712    0.253568    0.160401
      8          6           0        3.752481   -1.111376    0.419639
      9          6           0        2.460282   -1.721774    0.794439
     10          6           0        2.446646   -2.983336    1.416914
     11          6           0        1.240440   -3.584574    1.765632
     12          6           0        0.023007   -2.950789    1.511035
     13          6           0        0.037578   -1.704322    0.882729
     14          8           0       -1.122932   -0.980544    0.661772
     15          6           0       -2.223634   -1.572477    0.079280
     16          6           0       -2.131628   -2.619609   -0.842925
     17          6           0       -3.306856   -3.079114   -1.435781
     18          6           0       -4.546129   -2.527672   -1.121417
     19          6           0       -4.631649   -1.474186   -0.190211
     20          7           0       -5.886688   -0.916006    0.090958
     21          6           0       -6.883409   -0.806681   -0.977637
     22          7           0       -7.858242    0.153217   -0.454190
     23          6           0       -9.131176    0.238656   -1.038610
     24          6           0       -9.256371    0.066994   -2.430154
     25          6           0      -10.507551    0.118474   -3.041177
     26          6           0      -11.659050    0.348523   -2.287704
     27          6           0      -11.540528    0.510371   -0.905975
     28          6           0      -10.297480    0.449246   -0.280080
     29          6           0       -7.453718    0.581460    0.818441
     30          6           0       -8.007329    1.524224    1.677148
     31          6           0       -7.393015    1.743496    2.921346
     32          6           0       -6.255340    1.032747    3.287369
     33          6           0       -5.671394    0.107366    2.406239
     34          6           0       -6.254998   -0.084020    1.159026
     35          6           0       -3.452004   -0.995160    0.401119
     36          6           0        1.236533   -1.090205    0.524053
     37          7           0        4.822406   -1.900328    0.295753
     38          7           0        5.848777   -1.086119   -0.039418
     39          6           0        7.147611   -1.664112   -0.158099
     40          6           0        8.267200   -1.033911    0.393786
     41          6           0        9.520572   -1.634120    0.275581
     42          6           0        9.658912   -2.863284   -0.371206
     43          6           0        8.532158   -3.495037   -0.902295
     44          6           0        7.276436   -2.899132   -0.801996
     45          6           0        5.452013    0.230323   -0.142094
     46          6           0        6.326508    1.330965   -0.594316
     47          6           0        6.346165    2.552353    0.098537
     48          6           0        7.142186    3.607901   -0.345871
     49          6           0        7.931251    3.462276   -1.487710
     50          6           0        7.915507    2.253979   -2.188009
     51          6           0        7.119176    1.198215   -1.748604
     52          6           0        2.756565    2.041632   -1.005958
     53          6           0        3.124310    1.461166   -2.353037
     54          6           0        1.939473    3.175187   -0.942693
     55          1           0        0.764203    5.575762   -0.576793
     56          1           0       -0.404483    4.651293    0.370660
     57          1           0        0.852275    5.578165    1.193938
     58          1           0        1.750398    3.589929    2.409620
     59          1           0        3.031281    2.056146    3.586005
     60          1           0        4.390565    1.266262    2.764707
     61          1           0        2.849472    0.431680    2.908265
     62          1           0        3.389774   -3.477335    1.621675
     63          1           0        1.244748   -4.554871    2.255195
     64          1           0       -0.919410   -3.408082    1.794228
     65          1           0       -1.170321   -3.052495   -1.093542
     66          1           0       -3.255661   -3.890007   -2.157556
     67          1           0       -5.444856   -2.928028   -1.578247
     68          1           0       -6.396883   -0.462105   -1.904231
     69          1           0       -7.385104   -1.763313   -1.195120
     70          1           0       -8.370277   -0.086402   -3.038326
     71          1           0      -10.576731   -0.013823   -4.117824
     72          1           0      -12.632261    0.395657   -2.767341
     73          1           0      -12.428002    0.670279   -0.298931
     74          1           0      -10.234907    0.530295    0.797916
     75          1           0       -8.887410    2.088977    1.393945
     76          1           0       -7.822249    2.474316    3.600543
     77          1           0       -5.801221    1.192720    4.260872
     78          1           0       -4.791155   -0.449216    2.703649
     79          1           0       -3.459398   -0.151618    1.078022
     80          1           0        1.194750   -0.124783    0.035064
     81          1           0        8.156854   -0.090209    0.915625
     82          1           0       10.388821   -1.141691    0.704532
     83          1           0       10.636873   -3.328822   -0.455273
     84          1           0        8.629222   -4.455051   -1.401776
     85          1           0        6.390939   -3.379135   -1.202949
     86          1           0        5.734443    2.672434    0.986464
     87          1           0        7.145778    4.545038    0.204195
     88          1           0        8.551657    4.285199   -1.832220
     89          1           0        8.520542    2.133576   -3.082614
     90          1           0        7.104934    0.265413   -2.304049
     91          1           0        4.186978    1.609238   -2.579898
     92          1           0        2.937972    0.381881   -2.391877
     93          1           0        2.544266    1.934963   -3.151164
     94          1           0        1.587148    3.619422   -1.871763
 ---------------------------------------------------------------------

 The electronic state is 1-A.
 Alpha  occ. eigenvalues --  -19.18061 -14.41628 -14.36989 -14.36945 -14.34436
 Alpha  occ. eigenvalues --  -10.26522 -10.24860 -10.24329 -10.23775 -10.23496
 Alpha  occ. eigenvalues --  -10.23349 -10.22900 -10.22503 -10.22453 -10.21139
 Alpha  occ. eigenvalues --  -10.20940 -10.19818 -10.19810 -10.19718 -10.19676
 Alpha  occ. eigenvalues --  -10.19629 -10.19554 -10.19531 -10.19506 -10.19504
 Alpha  occ. eigenvalues --  -10.19490 -10.19431 -10.19231 -10.19078 -10.19004
 Alpha  occ. eigenvalues --  -10.18969 -10.18964 -10.18845 -10.18811 -10.18789
 Alpha  occ. eigenvalues --  -10.18750 -10.18737 -10.18635 -10.18551 -10.18381
 Alpha  occ. eigenvalues --  -10.18352 -10.18260 -10.18223 -10.18148 -10.18140
 Alpha  occ. eigenvalues --  -10.18123 -10.17870 -10.17817 -10.17796 -10.17751
 Alpha  occ. eigenvalues --  -10.17389 -10.17379 -10.17373 -10.17276  -1.06986
 Alpha  occ. eigenvalues --   -1.04942  -1.00752  -0.92949  -0.87935  -0.86438
 Alpha  occ. eigenvalues --   -0.85867  -0.85467  -0.85109  -0.83796  -0.83698
 Alpha  occ. eigenvalues --   -0.82478  -0.80555  -0.77315  -0.77153  -0.76709
 Alpha  occ. eigenvalues --   -0.76155  -0.75538  -0.75211  -0.75100  -0.74894
 Alpha  occ. eigenvalues --   -0.74401  -0.73964  -0.73778  -0.72630  -0.72208
 Alpha  occ. eigenvalues --   -0.71582  -0.69199  -0.67909  -0.66944  -0.66650
 Alpha  occ. eigenvalues --   -0.64214  -0.63663  -0.62729  -0.62637  -0.62185
 Alpha  occ. eigenvalues --   -0.61785  -0.60971  -0.60575  -0.60170  -0.59174
 Alpha  occ. eigenvalues --   -0.58126  -0.57624  -0.57320  -0.56574  -0.55218
 Alpha  occ. eigenvalues --   -0.55073  -0.53876  -0.53511  -0.52720  -0.50853
 Alpha  occ. eigenvalues --   -0.50244  -0.50188  -0.49723  -0.49490  -0.49339
 Alpha  occ. eigenvalues --   -0.48456  -0.48038  -0.47850  -0.47720  -0.47201
 Alpha  occ. eigenvalues --   -0.46733  -0.46591  -0.46168  -0.45452  -0.45198
 Alpha  occ. eigenvalues --   -0.44718  -0.44418  -0.43858  -0.43398  -0.43212
 Alpha  occ. eigenvalues --   -0.43002  -0.42726  -0.42624  -0.42497  -0.42360
 Alpha  occ. eigenvalues --   -0.42293  -0.42006  -0.41743  -0.41561  -0.41432
 Alpha  occ. eigenvalues --   -0.40848  -0.40425  -0.40419  -0.39650  -0.39592
 Alpha  occ. eigenvalues --   -0.39505  -0.39196  -0.38913  -0.38630  -0.37994
 Alpha  occ. eigenvalues --   -0.37646  -0.37441  -0.37281  -0.37033  -0.36581
 Alpha  occ. eigenvalues --   -0.36409  -0.36281  -0.35891  -0.35743  -0.35717
 Alpha  occ. eigenvalues --   -0.35497  -0.35215  -0.35099  -0.34804  -0.34595
 Alpha  occ. eigenvalues --   -0.34179  -0.33787  -0.33146  -0.32924  -0.32783
 Alpha  occ. eigenvalues --   -0.32222  -0.31302  -0.29762  -0.29076  -0.28921
 Alpha  occ. eigenvalues --   -0.27424  -0.25928  -0.25335  -0.25142  -0.25031
 Alpha  occ. eigenvalues --   -0.24990  -0.24740  -0.24352  -0.23158  -0.22906
 Alpha  occ. eigenvalues --   -0.22226  -0.21728  -0.21007  -0.20388  -0.16892
 Alpha virt. eigenvalues --   -0.03331  -0.01764  -0.01204  -0.00680  -0.00603
 Alpha virt. eigenvalues --   -0.00294  -0.00160   0.00001   0.00071   0.00372
 Alpha virt. eigenvalues --    0.01099   0.01664   0.02977   0.03342   0.04718

 Mulliken charges:
               1
     1  C   -0.532498
     2  C    0.215196
     3  C   -0.267795
     4  C    0.188435
     5  C   -0.537336
     6  C   -0.092234
     7  C   -0.183838
     8  C    0.267914
     9  C    0.105717
    10  C   -0.163826
    11  C   -0.145954
    12  C   -0.161485
    13  C    0.338541
    14  O   -0.579017
    15  C    0.350761
    16  C   -0.179374
    17  C   -0.143438
    18  C   -0.185172
    19  C    0.329989
    20  N   -0.677409
    21  C    0.053557
    22  N   -0.671959
    23  C    0.322623
    24  C   -0.182586
    25  C   -0.135805
    26  C   -0.130743
    27  C   -0.142539
    28  C   -0.174904
    29  C    0.332955
    30  C   -0.189143
    31  C   -0.146735
    32  C   -0.147044
    33  C   -0.188268
    34  C    0.335254
    35  C   -0.242343
    36  C   -0.236088
    37  N   -0.388838
    38  N   -0.446113
    39  C    0.281996
    40  C   -0.138792
    41  C   -0.145421
    42  C   -0.120667
    43  C   -0.144233
    44  C   -0.136474
    45  C    0.310428
    46  C    0.083171
    47  C   -0.158410
    48  C   -0.138320
    49  C   -0.123402
    50  C   -0.138050
    51  C   -0.151758
    52  C    0.187721
    53  C   -0.537954
    54  C   -0.266641
    55  H    0.154865
    56  H    0.168706
    57  H    0.154523
    58  H    0.113000
    59  H    0.149881
    60  H    0.157202
    61  H    0.176649
    62  H    0.152891
    63  H    0.132864
    64  H    0.144419
    65  H    0.147577
    66  H    0.133278
    67  H    0.128857
    68  H    0.158777
    69  H    0.157905
    70  H    0.131446
    71  H    0.130298
    72  H    0.126827
    73  H    0.131110
    74  H    0.147044
    75  H    0.141359
    76  H    0.123511
    77  H    0.124628
    78  H    0.145123
    79  H    0.157031
    80  H    0.163220
    81  H    0.152633
    82  H    0.136970
    83  H    0.133073
    84  H    0.136868
    85  H    0.159953
    86  H    0.151678
    87  H    0.135503
    88  H    0.132901
    89  H    0.134833
    90  H    0.144500
    91  H    0.170207
    92  H    0.162892
    93  H    0.150104
    94  H    0.113245
 Sum of Mulliken charges =  -0.00000

 Dipole moment (field-independent basis, Debye):
    X=              2.2070    Y=              0.5154    Z=             -1.7084  Tot=              2.8382
 Quadrupole moment (field-independent basis, Debye-Ang):
   XX=           -265.3194   YY=           -296.4895   ZZ=           -298.0780
   XY=              5.3938   XZ=              1.6909   YZ=              7.5334

 Normal termination of Gaussian 16 at Sat Nov  5 03:10:32 2022.
