 Gaussian 16, Revision B.01,
 Gaussian 16:  ES64L-G16RevB.01 20-Dec-2017

 -------------------------------------------------------------------
 #p b3lyp/6-31g(d) 6D 10F nosymm GFInput td=(50-50,nstate=2) SCF=XQC
 -------------------------------------------------------------------

 ------------------------------
 Gaussian input prepared by ASE
 ------------------------------
 Symbolic Z-matrix:
 Charge =  0 Multiplicity = 1

                          Input orientation:
 ---------------------------------------------------------------------
 Center     Atomic      Atomic             Coordinates (Angstroms)
 Number     Number       Type             X           Y           Z
 ---------------------------------------------------------------------
      1          7           0       12.353325    1.314049    0.028633
      2          6           0       11.203385    1.136659    0.030548
      3          6           0        9.786671    0.918182    0.032397
      4          6           0        9.110919    0.648879   -1.169839
      5          6           0        7.737332    0.435314   -1.162368
      6          6           0        7.000704    0.483685    0.035043
      7          6           0        5.521114    0.316504    0.047515
      8          6           0        4.747784    1.322883    0.597897
      9          6           0        3.342081    1.244386    0.619715
     10          6           0        2.667734    0.159316    0.088966
     11          6           0        1.179930    0.135832    0.164808
     12          6           0        0.487227   -0.910230    0.798232
     13          6           0       -0.900336   -0.888104    0.911983
     14          6           0       -1.653633    0.179802    0.394599
     15          6           0       -3.141887    0.189365    0.455639
     16          6           0       -3.855294    0.320541   -0.700923
     17          6           0       -5.290013    0.301595   -0.733355
     18          6           0       -6.005636    0.421895   -1.922109
     19          6           0       -7.407148    0.379611   -1.910527
     20          6           0       -8.210095    0.496864   -3.082118
     21          6           0       -9.578826    0.444179   -2.993992
     22          6           0      -10.215063    0.271592   -1.732260
     23          6           0       -9.472872    0.155091   -0.583216
     24          6           0       -8.048490    0.205192   -0.632996
     25          7           0       -7.361801    0.086459    0.522864
     26          6           0       -6.033734    0.132547    0.487061
     27          6           0       -5.282752    0.017128    1.742907
     28          7           0       -5.989830   -0.108146    2.885058
     29          6           0       -5.331498   -0.174743    4.032633
     30          6           0       -3.932426   -0.103391    4.132027
     31          6           0       -3.197648    0.017278    2.967789
     32          6           0       -3.857616    0.060890    1.720554
     33          6           0       -0.961420    1.224589   -0.236658
     34          6           0        0.427474    1.204024   -0.347205
     35          6           0        3.429344   -0.904838   -0.504646
     36          6           0        2.805865   -2.026080   -1.120562
     37          6           0        3.545187   -3.057730   -1.653018
     38          6           0        4.955287   -3.024753   -1.588333
     39          6           0        5.595618   -1.940998   -1.031533
     40          6           0        4.867566   -0.838176   -0.503261
     41          6           0        7.689707    0.759182    1.228738
     42          6           0        9.063806    0.973318    1.235063
     43          1           0        9.666294    0.617598   -2.101788
     44          1           0        7.221453    0.246824   -2.098803
     45          1           0        5.234230    2.204045    1.007094
     46          1           0        2.774656    2.049176    1.078456
     47          1           0        1.044109   -1.744263    1.215742
     48          1           0       -1.409001   -1.717168    1.396114
     49          1           0       -3.327387    0.409688   -1.647465
     50          1           0       -5.474609    0.547957   -2.863973
     51          1           0       -7.719103    0.628327   -4.043659
     52          1           0      -10.186199    0.534231   -3.890424
     53          1           0      -11.299990    0.232531   -1.685450
     54          1           0       -9.933826    0.022979    0.390430
     55          1           0       -5.940439   -0.280990    4.929940
     56          1           0       -3.445947   -0.137022    5.102446
     57          1           0       -2.116115    0.088055    3.006880
     58          1           0       -1.520943    2.065923   -0.636246
     59          1           0        0.939206    2.023381   -0.844760
     60          1           0        1.723614   -2.058676   -1.173343
     61          1           0        3.042705   -3.900994   -2.118859
     62          1           0        5.536591   -3.853834   -1.982462
     63          1           0        6.678718   -1.926645   -0.984450
     64          1           0        7.137878    0.791211    2.163479
     65          1           0        9.584060    1.178027    2.165306
 ---------------------------------------------------------------------

 SCF Done:  E(RB3LYP) =  -1664.30034998     A.U. after   16 cycles

 Excitation energies and oscillator strengths:

 Excited state symmetry could not be determined.
 Excited State   1:      Triplet-?Sym    2.1104 eV  587.49 nm  f=0.0000  <S**2>=2.000
     137 ->142         0.13602
     138 ->140         0.27426
     139 ->140         0.58824
     139 ->141         0.11278
 This state for optimization and/or second-order correction.
 Total Energy, E(TD-HF/TD-DFT) =  -1664.22279449
 Copying the excited state density for this state as the 1-particle RhoCI density.

 Excited state symmetry could not be determined.
 Excited State   2:      Triplet-?Sym    2.5098 eV  494.00 nm  f=0.0000  <S**2>=2.000
     138 ->140        -0.19782
     138 ->141         0.45608
     138 ->143        -0.25477
     139 ->141        -0.30229
     139 ->143         0.15071

 Excited state symmetry could not be determined.
 Excited State   3:      Singlet-?Sym    3.3166 eV  373.83 nm  f=0.1858  <S**2>=0.000
     139 ->140         0.68034

 Excited state symmetry could not be determined.
 Excited State   4:      Singlet-?Sym    3.5426 eV  349.99 nm  f=0.2915  <S**2>=0.000
     137 ->140        -0.24799
     138 ->141        -0.13531
     138 ->142         0.11990
     139 ->141         0.55139
     139 ->142         0.28402

 Alpha  occ. eigenvalues --  -14.33562 -14.32636 -14.32389 -10.24180 -10.23043
 Alpha  occ. eigenvalues --  -10.23009 -10.22878 -10.22611 -10.22581 -10.22375
 Alpha  occ. eigenvalues --  -10.22151 -10.22147 -10.21527 -10.21468 -10.21435
 Alpha  occ. eigenvalues --  -10.21427 -10.21406 -10.21376 -10.21374 -10.21304
 Alpha  occ. eigenvalues --  -10.21276 -10.21248 -10.21050 -10.20938 -10.20882
 Alpha  occ. eigenvalues --  -10.20672 -10.20412 -10.20377 -10.20335 -10.20320
 Alpha  occ. eigenvalues --  -10.20296 -10.20240 -10.20196 -10.20130 -10.20057
 Alpha  occ. eigenvalues --  -10.19987 -10.19962 -10.19907 -10.19892 -10.19823
 Alpha  occ. eigenvalues --  -10.19778 -10.19033  -0.95482  -0.93250  -0.90762
 Alpha  occ. eigenvalues --   -0.89402  -0.88090  -0.87301  -0.85286  -0.84780
 Alpha  occ. eigenvalues --   -0.83413  -0.81775  -0.80929  -0.79418  -0.77937
 Alpha  occ. eigenvalues --   -0.77298  -0.76429  -0.75968  -0.75503  -0.75065
 Alpha  occ. eigenvalues --   -0.74294  -0.73286  -0.71628  -0.67153  -0.66285
 Alpha  occ. eigenvalues --   -0.64758  -0.63872  -0.63618  -0.63089  -0.62559
 Alpha  occ. eigenvalues --   -0.61493  -0.61145  -0.60393  -0.60138  -0.58229
 Alpha  occ. eigenvalues --   -0.56606  -0.56298  -0.53548  -0.53365  -0.52835
 Alpha  occ. eigenvalues --   -0.52585  -0.51296  -0.50824  -0.50254  -0.49165
 Alpha  occ. eigenvalues --   -0.48421  -0.48110  -0.47376  -0.46798  -0.46359
 Alpha  occ. eigenvalues --   -0.45612  -0.45273  -0.44877  -0.44603  -0.44366
 Alpha  occ. eigenvalues --   -0.43815  -0.43359  -0.43148  -0.42841  -0.42698
 Alpha  occ. eigenvalues --   -0.42345  -0.41738  -0.41425  -0.40966  -0.40480
 Alpha  occ. eigenvalues --   -0.40379  -0.39819  -0.39768  -0.39593  -0.38113
 Alpha  occ. eigenvalues --   -0.37797  -0.37384  -0.37227  -0.36505  -0.35930
 Alpha  occ. eigenvalues --   -0.35832  -0.35650  -0.35263  -0.35069  -0.34684
 Alpha  occ. eigenvalues --   -0.34320  -0.33537  -0.33368  -0.33098  -0.32988
 Alpha  occ. eigenvalues --   -0.30536  -0.29766  -0.28774  -0.27741  -0.26588
 Alpha  occ. eigenvalues --   -0.26389  -0.26320  -0.25731  -0.25574  -0.25514
 Alpha  occ. eigenvalues --   -0.24146  -0.23563  -0.21969  -0.21091
 Alpha virt. eigenvalues --   -0.07501  -0.06615  -0.05192  -0.04230  -0.02798
 Alpha virt. eigenvalues --   -0.02143  -0.02042  -0.01460  -0.01188   0.00545
 Alpha virt. eigenvalues --    0.02465   0.02867   0.03708   0.05187   0.07587

 Mulliken charges:
               1
     1  N   -0.477618
     2  C    0.236954
     3  C    0.132731
     4  C   -0.141935
     5  C   -0.172826
     6  C    0.071782
     7  C    0.025707
     8  C   -0.183788
     9  C   -0.185872
    10  C    0.032099
    11  C    0.062064
    12  C   -0.173895
    13  C   -0.176751
    14  C    0.063507
    15  C    0.028212
    16  C   -0.258593
    17  C    0.173719
    18  C   -0.240976
    19  C    0.160273
    20  C   -0.188802
    21  C   -0.136859
    22  C   -0.135980
    23  C   -0.145833
    24  C    0.249893
    25  N   -0.578947
    26  C    0.233279
    27  C    0.192955
    28  N   -0.473823
    29  C    0.042592
    30  C   -0.145910
    31  C   -0.172130
    32  C    0.123628
    33  C   -0.169558
    34  C   -0.170630
    35  C    0.086193
    36  C   -0.205493
    37  C   -0.131857
    38  C   -0.131338
    39  C   -0.208117
    40  C    0.090292
    41  C   -0.170105
    42  C   -0.141320
    43  H    0.161067
    44  H    0.156300
    45  H    0.139695
    46  H    0.139734
    47  H    0.145967
    48  H    0.145423
    49  H    0.137799
    50  H    0.138080
    51  H    0.132887
    52  H    0.135352
    53  H    0.136713
    54  H    0.152076
    55  H    0.142591
    56  H    0.139118
    57  H    0.155733
    58  H    0.139549
    59  H    0.139228
    60  H    0.149215
    61  H    0.134845
    62  H    0.135217
    63  H    0.145916
    64  H    0.149646
    65  H    0.160928
 Sum of Mulliken charges =  -0.00000

 Dipole moment (field-independent basis, Debye):
    X=             -2.7698    Y=             -0.6554    Z=             -1.6802  Tot=              3.3052
 Quadrupole moment (field-independent basis, Debye-Ang):
   XX=           -334.1066   YY=           -233.4308   ZZ=           -215.4052
   XY=            -14.4323   XZ=             17.8360   YZ=              1.3364

 Normal termination of Gaussian 16 at Sat Nov  5 10:42:37 2022.
