 Gaussian 16, Revision B.01,
 Gaussian 16:  ES64L-G16RevB.01 20-Dec-2017

 -------------------------------------------------------------------
 #p b3lyp/6-31g(d) 6D 10F nosymm GFInput td=(50-50,nstate=2) SCF=XQC
 -------------------------------------------------------------------

 ------------------------------
 Gaussian input prepared by ASE
 ------------------------------
 Symbolic Z-matrix:
 Charge =  0 Multiplicity = 1

                          Input orientation:
 ---------------------------------------------------------------------
 Center     Atomic      Atomic             Coordinates (Angstroms)
 Number     Number       Type             X           Y           Z
 ---------------------------------------------------------------------
      1          6           0       -1.133969    1.247308   -4.601098
      2          6           0       -1.894909    0.717422   -3.408155
      3          6           0       -2.129864   -0.651724   -3.254671
      4          6           0       -2.800110   -1.167722   -2.141687
      5          6           0       -3.008610   -2.660961   -2.021607
      6          6           0       -3.264386   -0.281051   -1.144279
      7          6           0       -3.987520   -0.813572    0.042877
      8          6           0       -3.458387   -1.471519    1.197207
      9          6           0       -2.065079   -1.815648    1.548071
     10          6           0       -1.820545   -2.826750    2.495212
     11          6           0       -0.516398   -3.157874    2.852399
     12          6           0        0.573347   -2.500691    2.278630
     13          6           0        0.328902   -1.489616    1.347698
     14          8           0        1.356461   -0.841593    0.681628
     15          6           0        2.432524   -0.327685    1.373880
     16          6           0        2.343514    0.143678    2.687391
     17          6           0        3.475935    0.725577    3.255547
     18          6           0        4.672131    0.832717    2.551030
     19          6           0        4.755199    0.354185    1.228760
     20          7           0        5.961727    0.496913    0.529002
     21          6           0        6.788459    1.686153    0.751540
     22          7           0        7.703877    1.698670   -0.391943
     23          6           0        8.869301    2.478592   -0.339808
     24          6           0        8.828729    3.723655    0.315715
     25          6           0        9.973230    4.512704    0.410429
     26          6           0       11.179020    4.088280   -0.148614
     27          6           0       11.226018    2.849966   -0.791876
     28          6           0       10.092624    2.045184   -0.883514
     29          6           0        7.423552    0.606331   -1.225511
     30          6           0        7.970774    0.233731   -2.447961
     31          6           0        7.504863   -0.939845   -3.063702
     32          6           0        6.517427   -1.713411   -2.463698
     33          6           0        5.935335   -1.319099   -1.247392
     34          6           0        6.367333   -0.138125   -0.654566
     35          6           0        3.615927   -0.220246    0.643277
     36          6           0       -0.970943   -1.143621    0.981681
     37          7           0       -4.434713   -1.809006    2.043034
     38          7           0       -5.585198   -1.386481    1.471571
     39          6           0       -6.811002   -1.693295    2.133687
     40          6           0       -7.914215   -2.168774    1.418109
     41          6           0       -9.092594   -2.476225    2.097860
     42          6           0       -9.169310   -2.330022    3.483881
     43          6           0       -8.056114   -1.873086    4.192924
     44          6           0       -6.877282   -1.550220    3.523511
     45          6           0       -5.363556   -0.767927    0.259444
     46          6           0       -6.413832   -0.112560   -0.545587
     47          6           0       -6.485602   -0.330156   -1.931128
     48          6           0       -7.452292    0.315312   -2.701977
     49          6           0       -8.362702    1.187530   -2.103633
     50          6           0       -8.297312    1.415903   -0.727327
     51          6           0       -7.330952    0.775028    0.045515
     52          6           0       -3.038642    1.106087   -1.281783
     53          6           0       -3.510256    2.086194   -0.231180
     54          6           0       -2.359808    1.577527   -2.410286
     55          1           0       -1.437878    2.269928   -4.849247
     56          1           0       -0.053352    1.267633   -4.405816
     57          1           0       -1.290661    0.622227   -5.486944
     58          1           0       -1.779300   -1.340183   -4.021417
     59          1           0       -2.703437   -3.171623   -2.940292
     60          1           0       -4.056665   -2.913842   -1.822963
     61          1           0       -2.422542   -3.081359   -1.195520
     62          1           0       -2.663405   -3.343857    2.939781
     63          1           0       -0.341454   -3.947956    3.577887
     64          1           0        1.592238   -2.764973    2.542229
     65          1           0        1.415333    0.065024    3.241107
     66          1           0        3.425734    1.100956    4.274222
     67          1           0        5.543439    1.263865    3.032302
     68          1           0        6.146451    2.580451    0.797045
     69          1           0        7.366280    1.637095    1.688481
     70          1           0        7.894320    4.084650    0.734197
     71          1           0        9.914533    5.471610    0.918869
     72          1           0       12.067838    4.708523   -0.079958
     73          1           0       12.160868    2.492506   -1.216093
     74          1           0       10.164047    1.068296   -1.345194
     75          1           0        8.732864    0.837393   -2.925980
     76          1           0        7.930934   -1.241158   -4.016237
     77          1           0        6.180372   -2.631293   -2.936360
     78          1           0        5.174004   -1.933053   -0.782106
     79          1           0        3.613234   -0.550116   -0.386769
     80          1           0       -1.108356   -0.349556    0.258166
     81          1           0       -7.847905   -2.303648    0.344574
     82          1           0       -9.948452   -2.844560    1.539131
     83          1           0      -10.088006   -2.576480    4.008722
     84          1           0       -8.104471   -1.762316    5.272703
     85          1           0       -6.002212   -1.200539    4.059464
     86          1           0       -5.780295   -1.006350   -2.402660
     87          1           0       -7.493610    0.133228   -3.772467
     88          1           0       -9.115909    1.688972   -2.705321
     89          1           0       -8.996882    2.099255   -0.253498
     90          1           0       -7.280376    0.965349    1.113252
     91          1           0       -4.603573    2.170974   -0.220022
     92          1           0       -3.204709    1.777362    0.774977
     93          1           0       -3.100824    3.083639   -0.419358
     94          1           0       -2.188323    2.647781   -2.509265
 ---------------------------------------------------------------------

 SCF Done:  E(RB3LYP) =  -2185.53987755     A.U. after   16 cycles

 Excitation energies and oscillator strengths:

 Excited state symmetry could not be determined.
 Excited State   1:      Triplet-?Sym    3.0108 eV  411.80 nm  f=0.0000  <S**2>=2.000
     174 ->199         0.10526
     184 ->190         0.13542
     185 ->187        -0.15980
     185 ->189         0.35838
     185 ->190         0.38533
     185 ->191        -0.18082
     185 ->193        -0.15330
     185 ->199         0.17218
 This state for optimization and/or second-order correction.
 Total Energy, E(TD-HF/TD-DFT) =  -2185.42923313
 Copying the excited state density for this state as the 1-particle RhoCI density.

 Excited state symmetry could not be determined.
 Excited State   2:      Triplet-?Sym    3.1458 eV  394.12 nm  f=0.0000  <S**2>=2.000
     177 ->187         0.11792
     181 ->186         0.22617
     183 ->186        -0.30707
     183 ->187         0.16278
     183 ->191        -0.10171
     184 ->186        -0.26473
     184 ->187         0.17050
     185 ->189         0.11528
     185 ->190        -0.24287

 Excited state symmetry could not be determined.
 Excited State   3:      Singlet-?Sym    3.4474 eV  359.65 nm  f=0.0120  <S**2>=0.000
     185 ->186         0.70015

 Excited state symmetry could not be determined.
 Excited State   4:      Singlet-?Sym    3.7641 eV  329.38 nm  f=0.2101  <S**2>=0.000
     185 ->187         0.59885
     185 ->189        -0.32409
     185 ->191         0.12832

 Alpha  occ. eigenvalues --  -19.18061 -14.41628 -14.36989 -14.36945 -14.34436
 Alpha  occ. eigenvalues --  -10.26522 -10.24860 -10.24329 -10.23775 -10.23496
 Alpha  occ. eigenvalues --  -10.23349 -10.22900 -10.22503 -10.22453 -10.21139
 Alpha  occ. eigenvalues --  -10.20940 -10.19818 -10.19810 -10.19718 -10.19676
 Alpha  occ. eigenvalues --  -10.19630 -10.19554 -10.19531 -10.19506 -10.19504
 Alpha  occ. eigenvalues --  -10.19490 -10.19431 -10.19231 -10.19078 -10.19004
 Alpha  occ. eigenvalues --  -10.18969 -10.18964 -10.18845 -10.18811 -10.18789
 Alpha  occ. eigenvalues --  -10.18750 -10.18737 -10.18635 -10.18551 -10.18381
 Alpha  occ. eigenvalues --  -10.18352 -10.18260 -10.18223 -10.18148 -10.18140
 Alpha  occ. eigenvalues --  -10.18123 -10.17870 -10.17817 -10.17796 -10.17751
 Alpha  occ. eigenvalues --  -10.17389 -10.17379 -10.17373 -10.17276  -1.06986
 Alpha  occ. eigenvalues --   -1.04942  -1.00753  -0.92949  -0.87935  -0.86438
 Alpha  occ. eigenvalues --   -0.85867  -0.85467  -0.85109  -0.83796  -0.83698
 Alpha  occ. eigenvalues --   -0.82478  -0.80555  -0.77315  -0.77153  -0.76709
 Alpha  occ. eigenvalues --   -0.76155  -0.75538  -0.75211  -0.75100  -0.74894
 Alpha  occ. eigenvalues --   -0.74401  -0.73964  -0.73778  -0.72629  -0.72208
 Alpha  occ. eigenvalues --   -0.71582  -0.69199  -0.67909  -0.66944  -0.66650
 Alpha  occ. eigenvalues --   -0.64214  -0.63663  -0.62729  -0.62637  -0.62185
 Alpha  occ. eigenvalues --   -0.61785  -0.60971  -0.60575  -0.60170  -0.59174
 Alpha  occ. eigenvalues --   -0.58126  -0.57624  -0.57320  -0.56574  -0.55218
 Alpha  occ. eigenvalues --   -0.55073  -0.53876  -0.53511  -0.52720  -0.50853
 Alpha  occ. eigenvalues --   -0.50244  -0.50188  -0.49723  -0.49490  -0.49338
 Alpha  occ. eigenvalues --   -0.48456  -0.48038  -0.47850  -0.47720  -0.47201
 Alpha  occ. eigenvalues --   -0.46733  -0.46591  -0.46168  -0.45452  -0.45198
 Alpha  occ. eigenvalues --   -0.44718  -0.44418  -0.43858  -0.43398  -0.43212
 Alpha  occ. eigenvalues --   -0.43002  -0.42726  -0.42624  -0.42497  -0.42360
 Alpha  occ. eigenvalues --   -0.42293  -0.42006  -0.41743  -0.41561  -0.41433
 Alpha  occ. eigenvalues --   -0.40848  -0.40425  -0.40419  -0.39650  -0.39592
 Alpha  occ. eigenvalues --   -0.39505  -0.39196  -0.38913  -0.38630  -0.37994
 Alpha  occ. eigenvalues --   -0.37646  -0.37441  -0.37281  -0.37033  -0.36581
 Alpha  occ. eigenvalues --   -0.36409  -0.36281  -0.35891  -0.35743  -0.35716
 Alpha  occ. eigenvalues --   -0.35497  -0.35215  -0.35099  -0.34805  -0.34595
 Alpha  occ. eigenvalues --   -0.34179  -0.33787  -0.33146  -0.32924  -0.32783
 Alpha  occ. eigenvalues --   -0.32222  -0.31302  -0.29762  -0.29076  -0.28921
 Alpha  occ. eigenvalues --   -0.27424  -0.25928  -0.25335  -0.25142  -0.25031
 Alpha  occ. eigenvalues --   -0.24990  -0.24740  -0.24352  -0.23158  -0.22906
 Alpha  occ. eigenvalues --   -0.22226  -0.21728  -0.21007  -0.20388  -0.16892
 Alpha virt. eigenvalues --   -0.03331  -0.01764  -0.01204  -0.00680  -0.00603
 Alpha virt. eigenvalues --   -0.00294  -0.00160   0.00001   0.00071   0.00372
 Alpha virt. eigenvalues --    0.01099   0.01664   0.02977   0.03342   0.04718

 Mulliken charges:
               1
     1  C   -0.532493
     2  C    0.215192
     3  C   -0.267794
     4  C    0.188427
     5  C   -0.537333
     6  C   -0.092206
     7  C   -0.183847
     8  C    0.267905
     9  C    0.105719
    10  C   -0.163823
    11  C   -0.145953
    12  C   -0.161484
    13  C    0.338550
    14  O   -0.579013
    15  C    0.350746
    16  C   -0.179361
    17  C   -0.143443
    18  C   -0.185179
    19  C    0.329999
    20  N   -0.677421
    21  C    0.053589
    22  N   -0.671970
    23  C    0.322606
    24  C   -0.182579
    25  C   -0.135807
    26  C   -0.130740
    27  C   -0.142548
    28  C   -0.174892
    29  C    0.332944
    30  C   -0.189139
    31  C   -0.146738
    32  C   -0.147039
    33  C   -0.188275
    34  C    0.335263
    35  C   -0.242343
    36  C   -0.236104
    37  N   -0.388833
    38  N   -0.446122
    39  C    0.282005
    40  C   -0.138789
    41  C   -0.145425
    42  C   -0.120668
    43  C   -0.144236
    44  C   -0.136469
    45  C    0.310426
    46  C    0.083144
    47  C   -0.158387
    48  C   -0.138332
    49  C   -0.123396
    50  C   -0.138055
    51  C   -0.151747
    52  C    0.187722
    53  C   -0.537952
    54  C   -0.266643
    55  H    0.154864
    56  H    0.168705
    57  H    0.154522
    58  H    0.113000
    59  H    0.149881
    60  H    0.157202
    61  H    0.176649
    62  H    0.152890
    63  H    0.132863
    64  H    0.144417
    65  H    0.147576
    66  H    0.133278
    67  H    0.128858
    68  H    0.158775
    69  H    0.157903
    70  H    0.131448
    71  H    0.130299
    72  H    0.126827
    73  H    0.131112
    74  H    0.147043
    75  H    0.141359
    76  H    0.123511
    77  H    0.124627
    78  H    0.145125
    79  H    0.157030
    80  H    0.163222
    81  H    0.152633
    82  H    0.136970
    83  H    0.133073
    84  H    0.136867
    85  H    0.159952
    86  H    0.151680
    87  H    0.135502
    88  H    0.132902
    89  H    0.134833
    90  H    0.144498
    91  H    0.170207
    92  H    0.162891
    93  H    0.150104
    94  H    0.113244
 Sum of Mulliken charges =  -0.00000

 Dipole moment (field-independent basis, Debye):
    X=             -2.4587    Y=              1.3901    Z=              0.2777  Tot=              2.8381
 Quadrupole moment (field-independent basis, Debye-Ang):
   XX=           -265.9849   YY=           -302.1395   ZZ=           -292.1649
   XY=              6.4539   XZ=              2.8753   YZ=              5.7038

 Normal termination of Gaussian 16 at Sat Nov  5 11:13:27 2022.
