 Gaussian 16, Revision B.01,
 Gaussian 16:  ES64L-G16RevB.01 20-Dec-2017

 -----------------------------
 #p b3lyp/6-31g(d) opt SCF=XQC
 -----------------------------

 ------------------------------
 Gaussian input prepared by ASE
 ------------------------------
 Symbolic Z-matrix:
 Charge =  0 Multiplicity = 1

 SCF Done:  E(RB3LYP) =  -2082.29313283     A.U. after   16 cycles
 SCF Done:  E(RB3LYP) =  -2082.29797726     A.U. after   15 cycles
 SCF Done:  E(RB3LYP) =  -2082.30214039     A.U. after   15 cycles
 SCF Done:  E(RB3LYP) =  -2082.30211390     A.U. after   13 cycles
 SCF Done:  E(RB3LYP) =  -2082.30383615     A.U. after   13 cycles
 SCF Done:  E(RB3LYP) =  -2082.30374957     A.U. after   13 cycles
 SCF Done:  E(RB3LYP) =  -2082.30475498     A.U. after   12 cycles
 SCF Done:  E(RB3LYP) =  -2082.30487214     A.U. after   11 cycles
 SCF Done:  E(RB3LYP) =  -2082.30490114     A.U. after   10 cycles
 SCF Done:  E(RB3LYP) =  -2082.30490628     A.U. after   10 cycles
 SCF Done:  E(RB3LYP) =  -2082.30490739     A.U. after    8 cycles
 SCF Done:  E(RB3LYP) =  -2082.30490764     A.U. after    7 cycles
 SCF Done:  E(RB3LYP) =  -2082.30490768     A.U. after    7 cycles
 Optimization completed.
    -- Stationary point found.

                         Standard orientation:
 ---------------------------------------------------------------------
 Center     Atomic      Atomic             Coordinates (Angstroms)
 Number     Number       Type             X           Y           Z
 ---------------------------------------------------------------------
      1          6           0       -2.731271   -4.567648    0.848543
      2          6           0       -3.711276   -4.667838   -0.142363
      3          6           0       -4.560944   -3.594105   -0.396651
      4          6           0       -4.431456   -2.392741    0.319620
      5          6           0       -5.423420   -1.302763    0.100155
      6          7           0       -6.668615   -1.703679   -0.096700
      7          6           0       -7.655386   -0.771312   -0.148226
      8          6           0       -8.999058   -1.170744   -0.363667
      9          6           0      -10.003931   -0.228857   -0.341771
     10          6           0       -9.709615    1.138952   -0.104004
     11          6           0       -8.411613    1.554200    0.096576
     12          6           0       -7.357114    0.606464    0.066266
     13          7           0       -6.068306    1.018522    0.191985
     14          6           0       -5.105933    0.111316    0.163251
     15          6           0       -3.722225    0.660417    0.141825
     16          6           0       -3.400743    1.752508    0.962403
     17          6           0       -2.145324    2.346218    0.905465
     18          6           0       -1.190487    1.896302   -0.018855
     19          7           0        0.067239    2.543799   -0.108308
     20          6           0        0.258196    3.936465   -0.142760
     21          6           0       -0.685286    4.963577   -0.227958
     22          6           0       -0.217100    6.276171   -0.278194
     23          6           0        1.156710    6.564731   -0.252021
     24          6           0        2.092966    5.536077   -0.188284
     25          6           0        1.647691    4.210843   -0.138601
     26          6           0        2.329958    2.934778   -0.105399
     27          6           0        3.677926    2.579228   -0.061697
     28          6           0        4.003594    1.225881   -0.031285
     29          6           0        5.276860    0.533478    0.018547
     30          6           0        6.580769    0.973959    0.103371
     31          6           0        7.642826    0.040778    0.197272
     32          6           0        9.001851    0.451860    0.284852
     33          6           0       10.017675   -0.469029    0.396227
     34          6           0        9.720975   -1.854925    0.427759
     35          6           0        8.417729   -2.288708    0.343752
     36          6           0        7.341793   -1.366230    0.223087
     37          6           0        5.994640   -1.806620    0.132963
     38          6           0        4.989735   -0.870900    0.009560
     39          7           0        3.591480   -1.042615   -0.063673
     40          6           0        2.927579   -2.254833   -0.341669
     41          6           0        3.524470   -3.230486   -1.161447
     42          6           0        2.825860   -4.406265   -1.405252
     43          6           0        1.552660   -4.573839   -0.856890
     44          6           0        1.035276   -3.530401   -0.094063
     45          7           0        1.701843   -2.400974    0.174259
     46          6           0        2.981354    0.235037   -0.042766
     47          6           0        1.626154    0.559496   -0.055754
     48          6           0        1.325944    1.924049   -0.100029
     49          6           0       -1.507208    0.815644   -0.853595
     50          6           0       -2.749892    0.194502   -0.756471
     51          6           0       -3.438048   -2.298660    1.306977
     52          6           0       -2.600391   -3.381360    1.574014
     53          1           0       -2.081164   -5.412344    1.061837
     54          1           0       -3.821688   -5.588422   -0.709315
     55          1           0       -5.345243   -3.675736   -1.141964
     56          1           0       -9.200119   -2.224845   -0.528322
     57          1           0      -11.035041   -0.531617   -0.501799
     58          1           0      -10.519730    1.862730   -0.086541
     59          1           0       -8.159102    2.596457    0.265664
     60          1           0       -4.148038    2.128833    1.653384
     61          1           0       -1.897615    3.162096    1.576142
     62          1           0       -1.748454    4.753457   -0.265060
     63          1           0       -0.934713    7.089504   -0.343144
     64          1           0        1.490200    7.597880   -0.289803
     65          1           0        3.156974    5.758249   -0.184927
     66          1           0        4.454869    3.338973   -0.051023
     67          1           0        6.807038    2.037584    0.114302
     68          1           0        9.223950    1.516472    0.263804
     69          1           0       11.050403   -0.137603    0.462094
     70          1           0       10.529026   -2.575925    0.518568
     71          1           0        8.190717   -3.352289    0.367936
     72          1           0        5.786916   -2.869699    0.184914
     73          1           0        4.490307   -3.052000   -1.617184
     74          1           0        3.263994   -5.173831   -2.037622
     75          1           0        0.971891   -5.474179   -1.029626
     76          1           0        0.033691   -3.595578    0.325895
     77          1           0        0.868223   -0.207338   -0.002680
     78          1           0       -0.788708    0.479033   -1.593198
     79          1           0       -2.977873   -0.636533   -1.416610
     80          1           0       -3.334619   -1.387243    1.886433
     81          1           0       -1.852382   -3.299463    2.358053
 ---------------------------------------------------------------------

 The electronic state is 1-A.
 Alpha  occ. eigenvalues --  -14.38575 -14.38339 -14.34500 -14.34481 -14.33541
 Alpha  occ. eigenvalues --  -10.27211 -10.24670 -10.24632 -10.24087 -10.23154
 Alpha  occ. eigenvalues --  -10.23109 -10.22925 -10.22919 -10.22872 -10.22684
 Alpha  occ. eigenvalues --  -10.22235 -10.21603 -10.20619 -10.20575 -10.20530
 Alpha  occ. eigenvalues --  -10.20398 -10.20352 -10.20172 -10.20155 -10.19892
 Alpha  occ. eigenvalues --  -10.19878 -10.19875 -10.19869 -10.19840 -10.19784
 Alpha  occ. eigenvalues --  -10.19739 -10.19620 -10.19602 -10.19545 -10.19451
 Alpha  occ. eigenvalues --  -10.19355 -10.19227 -10.19194 -10.18898 -10.18858
 Alpha  occ. eigenvalues --  -10.18784 -10.18655 -10.18624 -10.18616 -10.18576
 Alpha  occ. eigenvalues --  -10.18528 -10.18490 -10.18477 -10.18453 -10.18372
 Alpha  occ. eigenvalues --  -10.18361 -10.17984  -0.99883  -0.98779  -0.98265
 Alpha  occ. eigenvalues --   -0.94105  -0.91406  -0.87359  -0.86520  -0.86302
 Alpha  occ. eigenvalues --   -0.85126  -0.84443  -0.83983  -0.81973  -0.81039
 Alpha  occ. eigenvalues --   -0.79657  -0.78410  -0.77136  -0.77025  -0.76398
 Alpha  occ. eigenvalues --   -0.75769  -0.75256  -0.74989  -0.74600  -0.73895
 Alpha  occ. eigenvalues --   -0.72990  -0.72292  -0.71048  -0.70185  -0.67431
 Alpha  occ. eigenvalues --   -0.66464  -0.65569  -0.64532  -0.63149  -0.62839
 Alpha  occ. eigenvalues --   -0.62119  -0.61215  -0.61019  -0.60311  -0.59778
 Alpha  occ. eigenvalues --   -0.59581  -0.59360  -0.58286  -0.57442  -0.57332
 Alpha  occ. eigenvalues --   -0.54464  -0.54337  -0.54151  -0.53785  -0.52941
 Alpha  occ. eigenvalues --   -0.52358  -0.51337  -0.50474  -0.50192  -0.49606
 Alpha  occ. eigenvalues --   -0.49000  -0.48206  -0.47796  -0.47148  -0.46673
 Alpha  occ. eigenvalues --   -0.46084  -0.45945  -0.45585  -0.45333  -0.44908
 Alpha  occ. eigenvalues --   -0.44781  -0.44562  -0.44048  -0.43946  -0.43538
 Alpha  occ. eigenvalues --   -0.43301  -0.43206  -0.42960  -0.42861  -0.42675
 Alpha  occ. eigenvalues --   -0.42464  -0.42394  -0.42301  -0.41504  -0.41130
 Alpha  occ. eigenvalues --   -0.40917  -0.40634  -0.39838  -0.39239  -0.38844
 Alpha  occ. eigenvalues --   -0.38458  -0.37967  -0.37455  -0.37234  -0.37226
 Alpha  occ. eigenvalues --   -0.36744  -0.36387  -0.35954  -0.35858  -0.35307
 Alpha  occ. eigenvalues --   -0.34878  -0.34765  -0.34408  -0.34070  -0.33858
 Alpha  occ. eigenvalues --   -0.33608  -0.33540  -0.32643  -0.32320  -0.31324
 Alpha  occ. eigenvalues --   -0.30488  -0.29208  -0.28566  -0.27596  -0.27428
 Alpha  occ. eigenvalues --   -0.27063  -0.26641  -0.26081  -0.25875  -0.25386
 Alpha  occ. eigenvalues --   -0.25073  -0.24781  -0.23874  -0.23218  -0.22209
 Alpha  occ. eigenvalues --   -0.21637  -0.18809  -0.18355
 Alpha virt. eigenvalues --   -0.07398  -0.04952  -0.04299  -0.03104  -0.02357
 Alpha virt. eigenvalues --   -0.02077  -0.01456  -0.00683  -0.00053   0.00576
 Alpha virt. eigenvalues --    0.00697   0.01211   0.02166   0.03232   0.04386

 Mulliken charges:
               1
     1  C   -0.128072
     2  C   -0.137537
     3  C   -0.147738
     4  C    0.087510
     5  C    0.193664
     6  N   -0.535544
     7  C    0.282329
     8  C   -0.154992
     9  C   -0.135334
    10  C   -0.135282
    11  C   -0.155211
    12  C    0.281119
    13  N   -0.530883
    14  C    0.182491
    15  C    0.094704
    16  C   -0.163588
    17  C   -0.168431
    18  C    0.298993
    19  N   -0.755521
    20  C    0.311762
    21  C   -0.178180
    22  C   -0.142364
    23  C   -0.144264
    24  C   -0.197269
    25  C    0.055208
    26  C    0.060483
    27  C   -0.277822
    28  C    0.061652
    29  C    0.072152
    30  C   -0.293273
    31  C    0.134402
    32  C   -0.189234
    33  C   -0.141638
    34  C   -0.136875
    35  C   -0.197084
    36  C    0.139311
    37  C   -0.269968
    38  C    0.339481
    39  N   -0.744703
    40  C    0.471159
    41  C   -0.170545
    42  C   -0.108866
    43  C   -0.150182
    44  C    0.035268
    45  N   -0.480604
    46  C    0.302489
    47  C   -0.233276
    48  C    0.324749
    49  C   -0.163680
    50  C   -0.169439
    51  C   -0.157259
    52  C   -0.140060
    53  H    0.132239
    54  H    0.133408
    55  H    0.148344
    56  H    0.146780
    57  H    0.139330
    58  H    0.139476
    59  H    0.147133
    60  H    0.150369
    61  H    0.156703
    62  H    0.144712
    63  H    0.126814
    64  H    0.124036
    65  H    0.128181
    66  H    0.135228
    67  H    0.131319
    68  H    0.126387
    69  H    0.126557
    70  H    0.126438
    71  H    0.123423
    72  H    0.141729
    73  H    0.162948
    74  H    0.147375
    75  H    0.138687
    76  H    0.154271
    77  H    0.182198
    78  H    0.156188
    79  H    0.146731
    80  H    0.146420
    81  H    0.142368
 Sum of Mulliken charges =  -0.00000

 Dipole moment (field-independent basis, Debye):
    X=             -1.5900    Y=             -2.3682    Z=             -1.1390  Tot=              3.0714
 Quadrupole moment (field-independent basis, Debye-Ang):
   XX=           -262.8145   YY=           -263.2654   ZZ=           -297.5672
   XY=             -7.2619   XZ=             -1.3601   YZ=              9.3616

 1\1\GINC-NODE61\FOpt\RB3LYP\6-31G(d)\C47H29N5\WYKGROUP\05-Nov-2022\0\\
 #p b3lyp/6-31g(d) opt SCF=XQC\\Gaussian input prepared by ASE\\0,1\C,-
 3.1529678481,-4.3272205684,0.0797930592\C,-4.0855835486,-4.1961888437,
 -0.9523892435\C,-4.8352103167,-3.0287580872,-1.0734855228\C,-4.6498928
 97,-1.9622288095,-0.1783540794\C,-5.541727544,-0.7719446264,-0.2681544
 326\N,-6.8025067185,-1.0326484133,-0.5722358311\C,-7.7100251226,-0.023
 0161473,-0.519943766\C,-9.067783715,-0.271186384,-0.8460069411\C,-9.99
 63598774,0.738460023,-0.7204635068\C,-9.6094332797,2.026069558,-0.2661

 Normal termination of Gaussian 16 at Sat Nov  5 01:47:42 2022.
