 Gaussian 16, Revision B.01,
 Gaussian 16:  ES64L-G16RevB.01 20-Dec-2017

 -------------------------------------------------------------------
 #p b3lyp/6-31g(d) 6D 10F nosymm GFInput td=(50-50,nstate=2) SCF=XQC
 -------------------------------------------------------------------

 ------------------------------
 Gaussian input prepared by ASE
 ------------------------------
 Symbolic Z-matrix:
 Charge =  0 Multiplicity = 1

                          Input orientation:
 ---------------------------------------------------------------------
 Center     Atomic      Atomic             Coordinates (Angstroms)
 Number     Number       Type             X           Y           Z
 ---------------------------------------------------------------------
      1          6           0       -3.152968   -4.327221    0.079793
      2          6           0       -4.085584   -4.196189   -0.952389
      3          6           0       -4.835210   -3.028758   -1.073486
      4          6           0       -4.649893   -1.962229   -0.178354
      5          6           0       -5.541728   -0.771945   -0.268154
      6          7           0       -6.802507   -1.032648   -0.572236
      7          6           0       -7.710025   -0.023016   -0.519944
      8          6           0       -9.067784   -0.271186   -0.846007
      9          6           0       -9.996360    0.738460   -0.720464
     10          6           0       -9.609433    2.026070   -0.266145
     11          6           0       -8.295155    2.295884    0.045860
     12          6           0       -7.317191    1.277533   -0.086941
     13          7           0       -6.008469    1.556087    0.150287
     14          6           0       -5.119167    0.585215    0.021602
     15          6           0       -3.697766    1.012621    0.138060
     16          6           0       -3.335122    1.939796    1.127099
     17          6           0       -2.036170    2.427255    1.210251
     18          6           0       -1.072886    2.040472    0.266329
     19          7           0        0.234207    2.585558    0.325640
     20          6           0        0.534137    3.946773    0.510853
     21          6           0       -0.321201    5.051101    0.545991
     22          6           0        0.249355    6.312357    0.714283
     23          6           0        1.638245    6.476820    0.837745
     24          6           0        2.487371    5.374767    0.780895
     25          6           0        1.938674    4.099205    0.611030
     26          6           0        2.517290    2.779345    0.476469
     27          6           0        3.829585    2.308731    0.518288
     28          6           0        4.047296    0.943243    0.355271
     29          6           0        5.258768    0.146118    0.349001
     30          6           0        6.586832    0.457470    0.550753
     31          6           0        7.567070   -0.565606    0.543132
     32          6           0        8.947588   -0.288282    0.745292
     33          6           0        9.881849   -1.297937    0.754987
     34          6           0        9.477310   -2.643123    0.563784
     35          6           0        8.150384   -2.948052    0.363882
     36          6           0        7.156873   -1.930379    0.342902
     37          6           0        5.786033   -2.237205    0.134237
     38          6           0        4.864411   -1.212074    0.115344
     39          7           0        3.462664   -1.252361   -0.037783
     40          6           0        2.721893   -2.349494   -0.522629
     41          6           0        3.282629   -3.239590   -1.457250
     42          6           0        2.508369   -4.302961   -1.904145
     43          6           0        1.199520   -4.441948   -1.437867
     44          6           0        0.726129   -3.483325   -0.546073
     45          7           0        1.463630   -2.466558   -0.083266
     46          6           0        2.953220    0.054945    0.153280
     47          6           0        1.629734    0.490977    0.136783
     48          6           0        1.438952    1.867414    0.288809
     49          6           0       -1.429174    1.126261   -0.734770
     50          6           0       -2.719641    0.604735   -0.781909
     51          6           0       -3.704223   -2.099885    0.849919
     52          6           0       -2.967907   -3.277029    0.981773
     53          1           0       -2.582164   -5.246047    0.187426
     54          1           0       -4.237799   -5.009823   -1.656612
     55          1           0       -5.584147   -2.932399   -1.852644
     56          1           0       -9.341281   -1.268413   -1.176770
     57          1           0      -11.038260    0.550935   -0.964876
     58          1           0      -10.360787    2.805025   -0.170527
     59          1           0       -7.971578    3.276439    0.381214
     60          1           0       -4.085485    2.271168    1.837504
     61          1           0       -1.760704    3.110740    2.006362
     62          1           0       -1.394150    4.939324    0.435813
     63          1           0       -0.398717    7.183972    0.745746
     64          1           0        2.052372    7.472257    0.970577
     65          1           0        3.563825    5.503355    0.859612
     66          1           0        4.661543    2.990150    0.674746
     67          1           0        6.894065    1.484761    0.732134
     68          1           0        9.252389    0.745076    0.895076
     69          1           0       10.932422   -1.068333    0.910828
     70          1           0       10.221261   -3.435229    0.575437
     71          1           0        7.840611   -3.980446    0.217159
     72          1           0        5.494075   -3.274852    0.015767
     73          1           0        4.281537   -3.077644   -1.842416
     74          1           0        2.917551   -5.002426   -2.628251
     75          1           0        0.560304   -5.254415   -1.768082
     76          1           0       -0.297743   -3.525298   -0.180410
     77          1           0        0.812880   -0.208491    0.042948
     78          1           0       -0.701904    0.843666   -1.488282
     79          1           0       -2.977181   -0.096914   -1.569144
     80          1           0       -3.560314   -1.296549    1.564824
     81          1           0       -2.257071   -3.375807    1.797798
 ---------------------------------------------------------------------

 SCF Done:  E(RB3LYP) =  -2082.30490436     A.U. after   16 cycles

 Excitation energies and oscillator strengths:

 Excited state symmetry could not be determined.
 Excited State   1:      Triplet-?Sym    2.3522 eV  527.09 nm  f=0.0000  <S**2>=2.000
     170 ->176         0.14238
     171 ->176        -0.19193
     172 ->176        -0.15069
     173 ->175        -0.23101
     173 ->176         0.52666
     173 ->178         0.13441
 This state for optimization and/or second-order correction.
 Total Energy, E(TD-HF/TD-DFT) =  -2082.21846120
 Copying the excited state density for this state as the 1-particle RhoCI density.

 Excited state symmetry could not be determined.
 Excited State   2:      Triplet-?Sym    2.5518 eV  485.87 nm  f=0.0000  <S**2>=2.000
     168 ->174         0.40597
     169 ->175        -0.10123
     170 ->174         0.13757
     170 ->175         0.10380
     172 ->174         0.46582
     172 ->175         0.14445

 Excited state symmetry could not be determined.
 Excited State   3:      Singlet-?Sym    2.7080 eV  457.84 nm  f=0.0037  <S**2>=0.000
     173 ->174         0.70534

 Excited state symmetry could not be determined.
 Excited State   4:      Singlet-?Sym    2.7535 eV  450.28 nm  f=0.1009  <S**2>=0.000
     172 ->174         0.70288

 Alpha  occ. eigenvalues --  -14.38575 -14.38339 -14.34500 -14.34481 -14.33541
 Alpha  occ. eigenvalues --  -10.27211 -10.24670 -10.24632 -10.24087 -10.23154
 Alpha  occ. eigenvalues --  -10.23109 -10.22925 -10.22919 -10.22872 -10.22684
 Alpha  occ. eigenvalues --  -10.22235 -10.21603 -10.20619 -10.20575 -10.20530
 Alpha  occ. eigenvalues --  -10.20398 -10.20352 -10.20172 -10.20155 -10.19892
 Alpha  occ. eigenvalues --  -10.19878 -10.19875 -10.19869 -10.19840 -10.19784
 Alpha  occ. eigenvalues --  -10.19739 -10.19620 -10.19602 -10.19545 -10.19451
 Alpha  occ. eigenvalues --  -10.19355 -10.19227 -10.19194 -10.18898 -10.18858
 Alpha  occ. eigenvalues --  -10.18784 -10.18655 -10.18623 -10.18616 -10.18576
 Alpha  occ. eigenvalues --  -10.18528 -10.18490 -10.18477 -10.18453 -10.18372
 Alpha  occ. eigenvalues --  -10.18361 -10.17984  -0.99883  -0.98779  -0.98265
 Alpha  occ. eigenvalues --   -0.94105  -0.91406  -0.87359  -0.86520  -0.86302
 Alpha  occ. eigenvalues --   -0.85126  -0.84443  -0.83983  -0.81973  -0.81039
 Alpha  occ. eigenvalues --   -0.79657  -0.78410  -0.77136  -0.77025  -0.76398
 Alpha  occ. eigenvalues --   -0.75769  -0.75256  -0.74989  -0.74600  -0.73895
 Alpha  occ. eigenvalues --   -0.72990  -0.72291  -0.71048  -0.70185  -0.67431
 Alpha  occ. eigenvalues --   -0.66464  -0.65569  -0.64532  -0.63149  -0.62839
 Alpha  occ. eigenvalues --   -0.62119  -0.61215  -0.61019  -0.60311  -0.59778
 Alpha  occ. eigenvalues --   -0.59581  -0.59360  -0.58286  -0.57442  -0.57332
 Alpha  occ. eigenvalues --   -0.54464  -0.54337  -0.54151  -0.53785  -0.52941
 Alpha  occ. eigenvalues --   -0.52358  -0.51337  -0.50474  -0.50192  -0.49606
 Alpha  occ. eigenvalues --   -0.49000  -0.48206  -0.47796  -0.47148  -0.46673
 Alpha  occ. eigenvalues --   -0.46084  -0.45945  -0.45585  -0.45333  -0.44908
 Alpha  occ. eigenvalues --   -0.44781  -0.44562  -0.44048  -0.43946  -0.43538
 Alpha  occ. eigenvalues --   -0.43301  -0.43206  -0.42960  -0.42861  -0.42675
 Alpha  occ. eigenvalues --   -0.42464  -0.42394  -0.42301  -0.41504  -0.41130
 Alpha  occ. eigenvalues --   -0.40917  -0.40634  -0.39838  -0.39239  -0.38844
 Alpha  occ. eigenvalues --   -0.38458  -0.37967  -0.37455  -0.37234  -0.37226
 Alpha  occ. eigenvalues --   -0.36744  -0.36387  -0.35954  -0.35858  -0.35307
 Alpha  occ. eigenvalues --   -0.34878  -0.34765  -0.34408  -0.34070  -0.33858
 Alpha  occ. eigenvalues --   -0.33608  -0.33540  -0.32643  -0.32320  -0.31324
 Alpha  occ. eigenvalues --   -0.30488  -0.29208  -0.28566  -0.27596  -0.27428
 Alpha  occ. eigenvalues --   -0.27063  -0.26641  -0.26081  -0.25875  -0.25386
 Alpha  occ. eigenvalues --   -0.25073  -0.24781  -0.23874  -0.23218  -0.22209
 Alpha  occ. eigenvalues --   -0.21637  -0.18809  -0.18355
 Alpha virt. eigenvalues --   -0.07398  -0.04952  -0.04299  -0.03104  -0.02357
 Alpha virt. eigenvalues --   -0.02077  -0.01456  -0.00683  -0.00053   0.00576
 Alpha virt. eigenvalues --    0.00697   0.01211   0.02166   0.03232   0.04386

 Mulliken charges:
               1
     1  C   -0.128086
     2  C   -0.137517
     3  C   -0.147736
     4  C    0.087488
     5  C    0.193636
     6  N   -0.535531
     7  C    0.282330
     8  C   -0.154992
     9  C   -0.135337
    10  C   -0.135278
    11  C   -0.155211
    12  C    0.281119
    13  N   -0.530885
    14  C    0.182493
    15  C    0.094693
    16  C   -0.163574
    17  C   -0.168423
    18  C    0.298968
    19  N   -0.755523
    20  C    0.311763
    21  C   -0.178183
    22  C   -0.142370
    23  C   -0.144266
    24  C   -0.197255
    25  C    0.055185
    26  C    0.060488
    27  C   -0.277852
    28  C    0.061683
    29  C    0.072140
    30  C   -0.293263
    31  C    0.134398
    32  C   -0.189232
    33  C   -0.141639
    34  C   -0.136877
    35  C   -0.197084
    36  C    0.139314
    37  C   -0.269969
    38  C    0.339472
    39  N   -0.744684
    40  C    0.471147
    41  C   -0.170534
    42  C   -0.108879
    43  C   -0.150188
    44  C    0.035289
    45  N   -0.480614
    46  C    0.302498
    47  C   -0.233311
    48  C    0.324783
    49  C   -0.163664
    50  C   -0.169432
    51  C   -0.157234
    52  C   -0.140066
    53  H    0.132240
    54  H    0.133406
    55  H    0.148341
    56  H    0.146780
    57  H    0.139331
    58  H    0.139476
    59  H    0.147133
    60  H    0.150370
    61  H    0.156705
    62  H    0.144714
    63  H    0.126815
    64  H    0.124036
    65  H    0.128181
    66  H    0.135227
    67  H    0.131319
    68  H    0.126387
    69  H    0.126557
    70  H    0.126438
    71  H    0.123423
    72  H    0.141729
    73  H    0.162948
    74  H    0.147377
    75  H    0.138689
    76  H    0.154263
    77  H    0.182210
    78  H    0.156185
    79  H    0.146733
    80  H    0.146419
    81  H    0.142372
 Sum of Mulliken charges =  -0.00000

 Dipole moment (field-independent basis, Debye):
    X=             -1.7083    Y=             -2.0303    Z=             -1.5471  Tot=              3.0715
 Quadrupole moment (field-independent basis, Debye-Ang):
   XX=           -263.8442   YY=           -265.8594   ZZ=           -294.2341
   XY=             -7.8078   XZ=             -0.0728   YZ=             13.6639

 Normal termination of Gaussian 16 at Sat Nov  5 11:12:28 2022.
