 Gaussian 16, Revision B.01,
 Gaussian 16:  ES64L-G16RevB.01 20-Dec-2017

 -------------------------------------------------------------------
 #p b3lyp/6-31g(d) 6D 10F nosymm GFInput td=(50-50,nstate=2) SCF=XQC
 -------------------------------------------------------------------

 ------------------------------
 Gaussian input prepared by ASE
 ------------------------------
 Symbolic Z-matrix:
 Charge =  0 Multiplicity = 1

                          Input orientation:
 ---------------------------------------------------------------------
 Center     Atomic      Atomic             Coordinates (Angstroms)
 Number     Number       Type             X           Y           Z
 ---------------------------------------------------------------------
      1          6           0        5.278009    0.667678   -6.961045
      2          6           0        5.130199    1.470354   -5.688537
      3          6           0        5.096073    2.871179   -5.727434
      4          6           0        4.989374    3.607526   -4.548685
      5          6           0        4.909532    2.959817   -3.316108
      6          6           0        4.939136    1.557507   -3.244827
      7          6           0        4.850291    0.859046   -1.936313
      8          6           0        4.111659   -0.341453   -1.808660
      9          6           0        3.985310   -1.013382   -0.597360
     10          6           0        4.609530   -0.462709    0.523428
     11          6           0        5.374982    0.725493    0.426741
     12          6           0        5.489374    1.378083   -0.803207
     13          6           0        5.900035    0.996688    1.749828
     14          6           0        6.705890    2.008960    2.283263
     15          6           0        7.016081    1.984777    3.640380
     16          6           0        6.523452    0.962616    4.469359
     17          6           0        5.719049   -0.057677    3.964324
     18          6           0        5.422445   -0.033838    2.598949
     19          7           0        4.633223   -0.914315    1.847026
     20          6           0        3.965839   -2.057786    2.369392
     21          6           0        4.745141   -3.102369    2.880405
     22          6           0        4.157259   -4.248162    3.402967
     23          6           0        2.760691   -4.387364    3.412926
     24          6           0        2.115143   -5.608320    3.958800
     25          6           0        0.972626   -6.158262    3.351628
     26          6           0        0.367287   -7.306090    3.861869
     27          6           0        0.887044   -7.936633    4.988971
     28          6           0        2.028460   -7.400939    5.607107
     29          6           0        2.575562   -8.031647    6.774246
     30          7           0        3.020144   -8.544004    7.719184
     31          6           0        2.634507   -6.244690    5.094005
     32          6           0        1.989529   -3.337142    2.897420
     33          6           0        2.555490   -2.161157    2.382311
     34          6           0        1.657662   -1.088862    1.871942
     35          6           0        1.854835    0.264860    2.186856
     36          6           0        1.004834    1.236115    1.670541
     37          6           0       -0.048693    0.897603    0.814208
     38          7           0       -0.873602    1.943412    0.318851
     39          6           0       -0.495511    2.875283   -0.650140
     40          6           0        0.713040    2.986610   -1.341919
     41          6           0        0.823668    4.005224   -2.286865
     42          6           0       -0.240266    4.890858   -2.536210
     43          6           0       -1.444319    4.767861   -1.846691
     44          6           0       -1.584629    3.750138   -0.895748
     45          6           0       -2.668986    3.318919   -0.035790
     46          6           0       -3.972674    3.773941    0.175938
     47          6           0       -4.804126    3.124268    1.097694
     48          6           0       -6.194267    3.592970    1.332426
     49          6           0       -7.241484    2.681190    1.538620
     50          6           0       -8.542601    3.134480    1.753802
     51          6           0       -8.822545    4.499686    1.764452
     52          6           0       -7.797851    5.435263    1.563292
     53          6           0       -8.090678    6.918082    1.602030
     54          6           0       -6.498971    4.965353    1.351040
     55          6           0       -4.295288    2.009545    1.804898
     56          6           0       -3.000967    1.536056    1.616790
     57          6           0       -2.193917    2.196718    0.688577
     58          6           0       -0.273868   -0.456618    0.496681
     59          6           0       -1.338793   -0.922167   -0.437694
     60          7           0       -1.592460   -0.192512   -1.526960
     61          6           0       -2.526762   -0.692823   -2.356147
     62          6           0       -2.832564    0.064012   -3.590478
     63          6           0       -2.141073    1.251334   -3.881455
     64          6           0       -2.430459    1.962167   -5.043502
     65          6           0       -3.409130    1.498545   -5.925853
     66          6           0       -4.100393    0.317408   -5.641987
     67          6           0       -3.815213   -0.397093   -4.481835
     68          7           0       -3.188640   -1.839990   -2.132989
     69          6           0       -2.863546   -2.500525   -1.013655
     70          6           0       -3.572853   -3.769113   -0.719569
     71          6           0       -3.337290   -4.449723    0.485496
     72          6           0       -4.007964   -5.638087    0.763620
     73          6           0       -4.917778   -6.163030   -0.157716
     74          6           0       -5.156201   -5.491156   -1.359180
     75          6           0       -4.490514   -4.300341   -1.639171
     76          7           0       -1.934435   -2.084436   -0.134929
     77          6           0        0.574117   -1.424256    1.051121
     78          6           0        5.050522    0.835812   -4.445450
     79          1           0        4.602040    1.030867   -7.743918
     80          1           0        5.061144   -0.392169   -6.794093
     81          1           0        6.298623    0.736541   -7.359898
     82          1           0        5.152980    3.384559   -6.684812
     83          1           0        4.957357    4.693460   -4.589604
     84          1           0        4.798060    3.541957   -2.405521
     85          1           0        3.600907   -0.737784   -2.681158
     86          1           0        3.403313   -1.926281   -0.528539
     87          1           0        6.091867    2.278206   -0.887402
     88          1           0        7.082052    2.804912    1.645939
     89          1           0        7.642013    2.764334    4.064937
     90          1           0        6.771817    0.965123    5.527128
     91          1           0        5.340063   -0.843204    4.610189
     92          1           0        5.826158   -3.012033    2.838271
     93          1           0        4.787330   -5.054119    3.767279
     94          1           0        0.570138   -5.694686    2.455769
     95          1           0       -0.509579   -7.717129    3.370357
     96          1           0        0.424592   -8.831368    5.392295
     97          1           0        3.500140   -5.832497    5.601913
     98          1           0        0.906884   -3.404198    2.945533
     99          1           0        2.662262    0.560244    2.848288
    100          1           0        1.142945    2.280286    1.932968
    101          1           0        1.532882    2.298293   -1.162238
    102          1           0        1.750794    4.106768   -2.844681
    103          1           0       -0.120976    5.676679   -3.276977
    104          1           0       -2.267528    5.448282   -2.048951
    105          1           0       -4.353861    4.616695   -0.394114
    106          1           0       -7.040314    1.614304    1.500323
    107          1           0       -9.345277    2.416221    1.901629
    108          1           0       -9.841271    4.843928    1.929857
    109          1           0       -8.336734    7.250741    2.618935
    110          1           0       -8.946068    7.174048    0.965395
    111          1           0       -7.231520    7.505169    1.262321
    112          1           0       -5.693949    5.684695    1.220554
    113          1           0       -4.928640    1.522878    2.540817
    114          1           0       -2.632137    0.685955    2.182486
    115          1           0       -1.383573    1.606141   -3.192690
    116          1           0       -1.891888    2.881505   -5.254988
    117          1           0       -3.634252    2.055802   -6.831610
    118          1           0       -4.863255   -0.045356   -6.325592
    119          1           0       -4.346603   -1.313097   -4.250015
    120          1           0       -2.632255   -4.028884    1.193686
    121          1           0       -3.825079   -6.154624    1.702195
    122          1           0       -5.440558   -7.090531    0.060647
    123          1           0       -5.863419   -5.895598   -2.078147
    124          1           0       -4.669472   -3.768564   -2.566679
    125          1           0        0.396107   -2.461503    0.788458
    126          1           0        5.100003   -0.249742   -4.405836
 ---------------------------------------------------------------------

 SCF Done:  E(RB3LYP) =  -3101.20121652     A.U. after   16 cycles

 Excitation energies and oscillator strengths:

 Excited state symmetry could not be determined.
 Excited State   1:      Triplet-?Sym    2.6172 eV  473.73 nm  f=0.0000  <S**2>=2.000
     261 -> 262        0.61788
     261 -> 263        0.29791
 This state for optimization and/or second-order correction.
 Total Energy, E(TD-HF/TD-DFT) =  -3101.10503600
 Copying the excited state density for this state as the 1-particle RhoCI density.

 Excited state symmetry could not be determined.
 Excited State   2:      Singlet-?Sym    2.6613 eV  465.87 nm  f=0.0077  <S**2>=0.000
     261 -> 262        0.63791
     261 -> 263        0.28794

 Excited state symmetry could not be determined.
 Excited State   3:      Triplet-?Sym    2.7592 eV  449.34 nm  f=0.0000  <S**2>=2.000
     261 -> 262       -0.29808
     261 -> 263        0.63397

 Excited state symmetry could not be determined.
 Excited State   4:      Singlet-?Sym    2.7707 eV  447.48 nm  f=0.0019  <S**2>=0.000
     261 -> 262       -0.28942
     261 -> 263        0.64260

 Alpha  occ. eigenvalues --  -14.38969 -14.37782 -14.34251 -14.34066 -14.34017
 Alpha  occ. eigenvalues --  -14.33951 -10.28216 -10.27972 -10.27760 -10.25380
 Alpha  occ. eigenvalues --  -10.24871 -10.24775 -10.23301 -10.23138 -10.23033
 Alpha  occ. eigenvalues --  -10.22972 -10.22743 -10.22573 -10.22550 -10.22535
 Alpha  occ. eigenvalues --  -10.22153 -10.22066 -10.22044 -10.22034 -10.21999
 Alpha  occ. eigenvalues --  -10.21972 -10.21519 -10.21460 -10.21455 -10.21020
 Alpha  occ. eigenvalues --  -10.20958 -10.20740 -10.20615 -10.20319 -10.20001
 Alpha  occ. eigenvalues --  -10.19910 -10.19894 -10.19814 -10.19798 -10.19601
 Alpha  occ. eigenvalues --  -10.19565 -10.19547 -10.19544 -10.19491 -10.19479
 Alpha  occ. eigenvalues --  -10.19434 -10.19408 -10.19394 -10.19380 -10.19215
 Alpha  occ. eigenvalues --  -10.19180 -10.19133 -10.19064 -10.18939 -10.18884
 Alpha  occ. eigenvalues --  -10.18850 -10.18778 -10.18777 -10.18737 -10.18662
 Alpha  occ. eigenvalues --  -10.18581 -10.18547 -10.18467 -10.18455 -10.18408
 Alpha  occ. eigenvalues --  -10.18374 -10.18364 -10.18364 -10.18360 -10.18316
 Alpha  occ. eigenvalues --  -10.18311 -10.18307 -10.18118 -10.17877 -10.17874
 Alpha  occ. eigenvalues --  -10.17751 -10.17740 -10.17665  -1.02452  -0.99811
 Alpha  occ. eigenvalues --   -0.98882  -0.91257  -0.91101  -0.90918  -0.89725
 Alpha  occ. eigenvalues --   -0.88442  -0.87357  -0.86288  -0.85961  -0.85557
 Alpha  occ. eigenvalues --   -0.85126  -0.85041  -0.84443  -0.84127  -0.83642
 Alpha  occ. eigenvalues --   -0.81291  -0.80032  -0.79000  -0.78349  -0.77989
 Alpha  occ. eigenvalues --   -0.77573  -0.77486  -0.76881  -0.76583  -0.75943
 Alpha  occ. eigenvalues --   -0.75829  -0.75499  -0.75352  -0.75253  -0.74763
 Alpha  occ. eigenvalues --   -0.74378  -0.73962  -0.73101  -0.72133  -0.71398
 Alpha  occ. eigenvalues --   -0.71086  -0.70462  -0.68405  -0.68231  -0.67940
 Alpha  occ. eigenvalues --   -0.67710  -0.66618  -0.66387  -0.65006  -0.63836
 Alpha  occ. eigenvalues --   -0.63657  -0.62767  -0.62215  -0.62082  -0.61577
 Alpha  occ. eigenvalues --   -0.61334  -0.60900  -0.60556  -0.59871  -0.59542
 Alpha  occ. eigenvalues --   -0.58802  -0.58597  -0.58351  -0.58007  -0.57589
 Alpha  occ. eigenvalues --   -0.57212  -0.56838  -0.56386  -0.55776  -0.54649
 Alpha  occ. eigenvalues --   -0.54478  -0.53985  -0.53129  -0.52203  -0.51721
 Alpha  occ. eigenvalues --   -0.51532  -0.51356  -0.51234  -0.50793  -0.50365
 Alpha  occ. eigenvalues --   -0.49914  -0.49302  -0.48783  -0.48516  -0.48345
 Alpha  occ. eigenvalues --   -0.47611  -0.47161  -0.46765  -0.46512  -0.46205
 Alpha  occ. eigenvalues --   -0.45903  -0.45835  -0.45785  -0.45446  -0.45318
 Alpha  occ. eigenvalues --   -0.45150  -0.45110  -0.44798  -0.44690  -0.44361
 Alpha  occ. eigenvalues --   -0.44055  -0.43949  -0.43862  -0.43177  -0.43079
 Alpha  occ. eigenvalues --   -0.43053  -0.42978  -0.42818  -0.42455  -0.42392
 Alpha  occ. eigenvalues --   -0.42280  -0.42145  -0.41950  -0.41822  -0.41727
 Alpha  occ. eigenvalues --   -0.41687  -0.41466  -0.41368  -0.41235  -0.41164
 Alpha  occ. eigenvalues --   -0.40872  -0.40398  -0.39904  -0.39843  -0.39563
 Alpha  occ. eigenvalues --   -0.39136  -0.38527  -0.38408  -0.38322  -0.38027
 Alpha  occ. eigenvalues --   -0.37863  -0.37644  -0.37366  -0.37141  -0.36976
 Alpha  occ. eigenvalues --   -0.36772  -0.36628  -0.36520  -0.36300  -0.36010
 Alpha  occ. eigenvalues --   -0.35961  -0.35918  -0.35528  -0.35191  -0.35169
 Alpha  occ. eigenvalues --   -0.35006  -0.34944  -0.34838  -0.34437  -0.34299
 Alpha  occ. eigenvalues --   -0.34150  -0.33939  -0.33594  -0.33473  -0.33338
 Alpha  occ. eigenvalues --   -0.33175  -0.33116  -0.32939  -0.32661  -0.32598
 Alpha  occ. eigenvalues --   -0.32397  -0.31732  -0.30047  -0.28960  -0.28422
 Alpha  occ. eigenvalues --   -0.27524  -0.27447  -0.27128  -0.26587  -0.26349
 Alpha  occ. eigenvalues --   -0.26224  -0.25942  -0.25725  -0.25647  -0.25338
 Alpha  occ. eigenvalues --   -0.24934  -0.24790  -0.24490  -0.24200  -0.23628
 Alpha  occ. eigenvalues --   -0.23541  -0.22927  -0.21694  -0.20739  -0.19993
 Alpha  occ. eigenvalues --   -0.19060
 Alpha virt. eigenvalues --   -0.07152  -0.06997  -0.06313  -0.05310  -0.04401
 Alpha virt. eigenvalues --   -0.03311  -0.02394  -0.02302  -0.02002  -0.01479
 Alpha virt. eigenvalues --   -0.01187  -0.00744  -0.00014   0.00261   0.00319

 Mulliken charges:
               1
     1  C   -0.530327
     2  C    0.178234
     3  C   -0.176570
     4  C   -0.134333
     5  C   -0.182638
     6  C    0.097165
     7  C    0.080813
     8  C   -0.194531
     9  C   -0.170809
    10  C    0.320173
    11  C    0.067279
    12  C   -0.260539
    13  C    0.063154
    14  C   -0.197452
    15  C   -0.144296
    16  C   -0.141122
    17  C   -0.184354
    18  C    0.299201
    19  N   -0.739874
    20  C    0.208084
    21  C   -0.150216
    22  C   -0.188975
    23  C    0.106972
    24  C    0.086708
    25  C   -0.162056
    26  C   -0.137027
    27  C   -0.134942
    28  C    0.133181
    29  C    0.238524
    30  N   -0.475950
    31  C   -0.190178
    32  C   -0.262181
    33  C    0.094450
    34  C    0.084703
    35  C   -0.165639
    36  C   -0.147630
    37  C    0.208999
    38  N   -0.731943
    39  C    0.325965
    40  C   -0.186616
    41  C   -0.149878
    42  C   -0.150445
    43  C   -0.198443
    44  C    0.058467
    45  C    0.070335
    46  C   -0.257828
    47  C    0.082891
    48  C    0.096358
    49  C   -0.182013
    50  C   -0.132168
    51  C   -0.177824
    52  C    0.177943
    53  C   -0.530296
    54  C   -0.235519
    55  C   -0.194154
    56  C   -0.180190
    57  C    0.322015
    58  C    0.133218
    59  C    0.384861
    60  N   -0.497829
    61  C    0.447212
    62  C    0.070781
    63  C   -0.157165
    64  C   -0.144603
    65  C   -0.115354
    66  C   -0.140192
    67  C   -0.155272
    68  N   -0.537083
    69  C    0.445820
    70  C    0.078621
    71  C   -0.159389
    72  C   -0.139291
    73  C   -0.116005
    74  C   -0.139481
    75  C   -0.156350
    76  N   -0.521838
    77  C   -0.232262
    78  C   -0.236111
    79  H    0.159706
    80  H    0.155489
    81  H    0.164986
    82  H    0.120688
    83  H    0.128073
    84  H    0.129979
    85  H    0.135572
    86  H    0.138037
    87  H    0.136094
    88  H    0.133930
    89  H    0.128059
    90  H    0.130883
    91  H    0.139450
    92  H    0.161030
    93  H    0.147736
    94  H    0.150750
    95  H    0.149506
    96  H    0.162192
    97  H    0.161887
    98  H    0.153662
    99  H    0.160354
   100  H    0.160685
   101  H    0.151042
   102  H    0.134771
   103  H    0.121316
   104  H    0.129275
   105  H    0.133093
   106  H    0.127981
   107  H    0.125321
   108  H    0.117856
   109  H    0.163094
   110  H    0.158236
   111  H    0.154078
   112  H    0.121852
   113  H    0.130528
   114  H    0.137851
   115  H    0.187430
   116  H    0.139492
   117  H    0.132678
   118  H    0.132130
   119  H    0.157494
   120  H    0.154479
   121  H    0.129937
   122  H    0.135391
   123  H    0.136634
   124  H    0.164081
   125  H    0.156944
   126  H    0.123320
 Sum of Mulliken charges =  -0.00000

 Dipole moment (field-independent basis, Debye):
    X=             -0.9460    Y=              0.0182    Z=             -3.6185  Tot=              3.7401
 Quadrupole moment (field-independent basis, Debye-Ang):
   XX=           -430.6228   YY=           -435.7186   ZZ=           -457.4874
   XY=             27.7465   XZ=             -8.3110   YZ=             25.1602

 Normal termination of Gaussian 16 at Fri Nov  4 23:40:03 2022.
