 Gaussian 16, Revision B.01,
 Gaussian 16:  ES64L-G16RevB.01 20-Dec-2017

 -------------------------------------------------------------------
 #p b3lyp/6-31g(d) 6D 10F nosymm GFInput td=(50-50,nstate=2) SCF=XQC
 -------------------------------------------------------------------

 ------------------------------
 Gaussian input prepared by ASE
 ------------------------------
 Symbolic Z-matrix:
 Charge =  0 Multiplicity = 1

                          Input orientation:
 ---------------------------------------------------------------------
 Center     Atomic      Atomic             Coordinates (Angstroms)
 Number     Number       Type             X           Y           Z
 ---------------------------------------------------------------------
      1          6           0        2.163676    2.171798    4.536008
      2          6           0        3.025858    2.365847    3.527067
      3          6           0        3.182843    3.577104    2.729312
      4          6           0        2.324005    4.639958    2.463636
      5          6           0        0.938123    4.876512    2.893560
      6          6           0       -0.134466    4.082240    2.740031
      7          6           0       -0.168693    2.725055    2.087738
      8          6           0       -1.319187    2.577232    1.105956
      9          6           0       -1.411221    3.423239   -0.009750
     10          6           0       -2.459880    3.290905   -0.919887
     11          6           0       -3.436682    2.315863   -0.730834
     12          6           0       -3.365679    1.462740    0.379714
     13          6           0       -4.400047    0.422173    0.594385
     14          7           0       -4.287939   -0.363783    1.677539
     15          6           0       -5.247375   -1.289001    1.829667
     16          6           0       -5.167431   -2.182214    3.012449
     17          6           0       -6.143273   -3.168219    3.226106
     18          6           0       -6.066593   -4.005202    4.336581
     19          6           0       -5.015815   -3.868890    5.247112
     20          6           0       -4.040832   -2.889820    5.040935
     21          6           0       -4.114640   -2.051147    3.931487
     22          7           0       -6.273809   -1.459414    0.983285
     23          6           0       -6.305199   -0.628954   -0.072450
     24          6           0       -7.418275   -0.776462   -1.037577
     25          6           0       -7.496219    0.064876   -2.162499
     26          6           0       -8.535637   -0.060306   -3.079759
     27          6           0       -9.511548   -1.038884   -2.871717
     28          6           0       -9.441484   -1.886682   -1.746669
     29          6           0       -8.405736   -1.760041   -0.835284
     30          6           0      -10.611663   -2.870292   -1.732312
     31          6           0      -11.494086   -2.677525   -0.478373
     32          6           0      -10.119294   -4.333057   -1.810074
     33          6           0      -11.354647   -2.463808   -3.004650
     34          6           0      -12.519563   -2.998588   -3.543679
     35          6           0      -13.028920   -2.464461   -4.733176
     36          6           0      -12.377263   -1.405593   -5.375254
     37          6           0      -11.207335   -0.863770   -4.839973
     38          6           0      -10.699250   -1.397059   -3.652900
     39          7           0       -5.390265    0.325368   -0.305939
     40          6           0       -2.303707    1.605012    1.287538
     41          6           0        3.053801    5.572582    1.643488
     42          6           0        2.722474    6.814636    1.073884
     43          6           0        3.676277    7.484728    0.319838
     44          6           0        4.958500    6.933340    0.117740
     45          6           0        5.308663    5.701117    0.658121
     46          6           0        4.340575    5.027558    1.411877
     47          7           0        4.405858    3.808749    2.071853
     48          6           0        5.578220    2.998499    2.146035
     49          6           0        6.228989    2.803276    3.368888
     50          6           0        7.378890    2.014977    3.413470
     51          6           0        7.886387    1.435959    2.250733
     52          6           0        7.244303    1.626617    1.016490
     53          6           0        7.805204    1.059341   -0.241653
     54          6           0        8.098386    1.928767   -1.298992
     55          6           0        8.668088    1.472310   -2.495719
     56          6           0        8.972340    0.128222   -2.679235
     57          6           0        8.677471   -0.748946   -1.632762
     58          6           0        8.079632   -0.316067   -0.417183
     59          6           0        7.844999   -1.515586    0.373870
     60          6           0        7.258896   -1.775502    1.622715
     61          6           0        7.195503   -3.084145    2.090902
     62          6           0        7.714921   -4.146525    1.332483
     63          6           0        8.290132   -3.924531    0.085004
     64          6           0        8.333847   -2.609968   -0.388143
     65          7           0        8.841776   -2.134658   -1.598593
     66          6           0        9.396987   -2.930364   -2.639301
     67          6           0        8.638372   -3.952312   -3.223379
     68          6           0        9.190637   -4.735178   -4.237034
     69          6           0       10.490362   -4.492677   -4.686076
     70          6           0       11.242120   -3.467042   -4.109435
     71          6           0       10.703936   -2.692248   -3.082027
     72          6           0        6.083922    2.413652    0.980392
     73          1           0        2.135235    1.220755    5.059299
     74          1           0        1.471297    2.939547    4.864637
     75          1           0        3.706544    1.556382    3.270542
     76          1           0        0.764995    5.857576    3.340191
     77          1           0       -1.092100    4.448739    3.109292
     78          1           0        0.785751    2.544219    1.579282
     79          1           0       -0.251677    1.945011    2.858494
     80          1           0       -0.654355    4.189621   -0.159460
     81          1           0       -2.515659    3.951668   -1.780983
     82          1           0       -4.256723    2.203844   -1.430543
     83          1           0       -6.953840   -3.264647    2.512896
     84          1           0       -6.827366   -4.765353    4.492812
     85          1           0       -4.957084   -4.522708    6.113423
     86          1           0       -3.221573   -2.780022    5.746433
     87          1           0       -3.364027   -1.287923    3.761075
     88          1           0       -6.727053    0.815702   -2.301267
     89          1           0       -8.580665    0.597829   -3.943603
     90          1           0       -8.331588   -2.400841    0.036892
     91          1           0      -10.927860   -2.907765    0.431377
     92          1           0      -11.855008   -1.646732   -0.404470
     93          1           0      -12.364162   -3.343581   -0.511263
     94          1           0       -9.531370   -4.590489   -0.921623
     95          1           0      -10.968109   -5.024665   -1.864262
     96          1           0       -9.491748   -4.491874   -2.692814
     97          1           0      -13.034673   -3.821590   -3.053639
     98          1           0      -13.938845   -2.875933   -5.161922
     99          1           0      -12.785411   -1.002006   -6.298025
    100          1           0      -10.703806   -0.041264   -5.341608
    101          1           0       -2.258975    0.937624    2.141701
    102          1           0        1.734235    7.240791    1.224423
    103          1           0        3.435070    8.447558   -0.122343
    104          1           0        5.688187    7.481016   -0.472499
    105          1           0        6.296854    5.279381    0.504470
    106          1           0        5.835723    3.270422    4.266065
    107          1           0        7.892294    1.866376    4.359450
    108          1           0        8.792416    0.838776    2.291919
    109          1           0        7.900793    2.989365   -1.172980
    110          1           0        8.882216    2.182598   -3.289462
    111          1           0        9.410484   -0.229341   -3.604861
    112          1           0        6.857105   -0.965748    2.220531
    113          1           0        6.740419   -3.286300    3.056398
    114          1           0        7.666133   -5.159770    1.722060
    115          1           0        8.689841   -4.744462   -0.502437
    116          1           0        7.620308   -4.119853   -2.885839
    117          1           0        8.597589   -5.527706   -4.685034
    118          1           0       10.914869   -5.099437   -5.480893
    119          1           0       12.256038   -3.275874   -4.449966
    120          1           0       11.290861   -1.908709   -2.612693
    121          1           0        5.557097    2.558466    0.042381
 ---------------------------------------------------------------------

 SCF Done:  E(RB3LYP) =  -2856.47597774     A.U. after   16 cycles

 Excitation energies and oscillator strengths:

 Excited state symmetry could not be determined.
 Excited State   1:      Triplet-?Sym    2.4269 eV  510.87 nm  f=0.0000  <S**2>=2.000
     241 -> 247        0.12709
     243 -> 246        0.19509
     243 -> 247        0.62779
 This state for optimization and/or second-order correction.
 Total Energy, E(TD-HF/TD-DFT) =  -2856.38679045
 Copying the excited state density for this state as the 1-particle RhoCI density.

 Excited state symmetry could not be determined.
 Excited State   2:      Triplet-?Sym    2.6506 eV  467.76 nm  f=0.0000  <S**2>=2.000
     232 -> 253       -0.10800
     240 -> 244        0.61916
     240 -> 248        0.21452

 Excited state symmetry could not be determined.
 Excited State   3:      Singlet-?Sym    3.0572 eV  405.54 nm  f=0.0073  <S**2>=0.000
     243 -> 244        0.67114
     243 -> 245       -0.21623

 Excited state symmetry could not be determined.
 Excited State   4:      Singlet-?Sym    3.1313 eV  395.95 nm  f=0.0052  <S**2>=0.000
     243 -> 244        0.21828
     243 -> 245        0.67136

 Alpha  occ. eigenvalues --  -14.38381 -14.38111 -14.32950 -14.32898 -14.32894
 Alpha  occ. eigenvalues --  -10.26881 -10.26845 -10.26809 -10.24258 -10.23840
 Alpha  occ. eigenvalues --  -10.22783 -10.22546 -10.22496 -10.21427 -10.20860
 Alpha  occ. eigenvalues --  -10.20702 -10.20460 -10.20441 -10.20392 -10.20368
 Alpha  occ. eigenvalues --  -10.20280 -10.20235 -10.20125 -10.20049 -10.19919
 Alpha  occ. eigenvalues --  -10.19771 -10.19652 -10.19593 -10.19551 -10.19540
 Alpha  occ. eigenvalues --  -10.19488 -10.19421 -10.19246 -10.19215 -10.19130
 Alpha  occ. eigenvalues --  -10.19111 -10.19107 -10.19093 -10.19079 -10.19049
 Alpha  occ. eigenvalues --  -10.19041 -10.19025 -10.18997 -10.18962 -10.18960
 Alpha  occ. eigenvalues --  -10.18941 -10.18928 -10.18900 -10.18867 -10.18861
 Alpha  occ. eigenvalues --  -10.18824 -10.18803 -10.18798 -10.18659 -10.18570
 Alpha  occ. eigenvalues --  -10.18505 -10.18478 -10.18394 -10.18393 -10.18343
 Alpha  occ. eigenvalues --  -10.18262 -10.18256 -10.18233 -10.18227 -10.18223
 Alpha  occ. eigenvalues --  -10.18127 -10.18027 -10.18007 -10.17938 -10.17935
 Alpha  occ. eigenvalues --  -10.17879 -10.17598  -1.01238  -0.99284  -0.98731
 Alpha  occ. eigenvalues --   -0.89907  -0.89839  -0.88651  -0.87708  -0.86974
 Alpha  occ. eigenvalues --   -0.85134  -0.84973  -0.84811  -0.84212  -0.84183
 Alpha  occ. eigenvalues --   -0.83413  -0.81451  -0.81122  -0.78886  -0.78769
 Alpha  occ. eigenvalues --   -0.78151  -0.77686  -0.77326  -0.76049  -0.76014
 Alpha  occ. eigenvalues --   -0.75639  -0.75218  -0.74879  -0.74354  -0.74125
 Alpha  occ. eigenvalues --   -0.73944  -0.73871  -0.73102  -0.72435  -0.72031
 Alpha  occ. eigenvalues --   -0.71660  -0.71164  -0.70336  -0.68624  -0.67729
 Alpha  occ. eigenvalues --   -0.67027  -0.66683  -0.65129  -0.64127  -0.63280
 Alpha  occ. eigenvalues --   -0.62823  -0.62462  -0.62335  -0.62068  -0.61470
 Alpha  occ. eigenvalues --   -0.60707  -0.60078  -0.59713  -0.59170  -0.58835
 Alpha  occ. eigenvalues --   -0.58378  -0.58132  -0.57754  -0.57210  -0.56704
 Alpha  occ. eigenvalues --   -0.56487  -0.55537  -0.55321  -0.53858  -0.53244
 Alpha  occ. eigenvalues --   -0.52570  -0.52475  -0.52026  -0.51575  -0.50793
 Alpha  occ. eigenvalues --   -0.50618  -0.50522  -0.49688  -0.49380  -0.49162
 Alpha  occ. eigenvalues --   -0.48953  -0.47674  -0.47292  -0.47171  -0.46977
 Alpha  occ. eigenvalues --   -0.46657  -0.46178  -0.45943  -0.45545  -0.45308
 Alpha  occ. eigenvalues --   -0.45152  -0.45055  -0.44875  -0.44643  -0.44573
 Alpha  occ. eigenvalues --   -0.43922  -0.43859  -0.43762  -0.43541  -0.43540
 Alpha  occ. eigenvalues --   -0.43430  -0.43309  -0.43081  -0.42956  -0.42728
 Alpha  occ. eigenvalues --   -0.42612  -0.42324  -0.42130  -0.42016  -0.41797
 Alpha  occ. eigenvalues --   -0.41693  -0.41539  -0.41359  -0.41103  -0.40790
 Alpha  occ. eigenvalues --   -0.40729  -0.40096  -0.39700  -0.39099  -0.38333
 Alpha  occ. eigenvalues --   -0.38284  -0.38014  -0.37935  -0.37734  -0.37615
 Alpha  occ. eigenvalues --   -0.37551  -0.37391  -0.37289  -0.36924  -0.36578
 Alpha  occ. eigenvalues --   -0.36543  -0.36187  -0.36047  -0.35968  -0.35717
 Alpha  occ. eigenvalues --   -0.35383  -0.35303  -0.35127  -0.34852  -0.34713
 Alpha  occ. eigenvalues --   -0.34504  -0.34265  -0.34236  -0.34150  -0.33993
 Alpha  occ. eigenvalues --   -0.33595  -0.33463  -0.33312  -0.33024  -0.32812
 Alpha  occ. eigenvalues --   -0.32439  -0.32255  -0.31872  -0.31781  -0.31703
 Alpha  occ. eigenvalues --   -0.29100  -0.28169  -0.27346  -0.27208  -0.26744
 Alpha  occ. eigenvalues --   -0.26452  -0.26125  -0.25963  -0.25512  -0.25447
 Alpha  occ. eigenvalues --   -0.25037  -0.24809  -0.24645  -0.24456  -0.24256
 Alpha  occ. eigenvalues --   -0.24221  -0.24157  -0.23226  -0.21364  -0.21296
 Alpha  occ. eigenvalues --   -0.20999  -0.19945  -0.18802
 Alpha virt. eigenvalues --   -0.06554  -0.06109  -0.03904  -0.03477  -0.02394
 Alpha virt. eigenvalues --   -0.01995  -0.01522  -0.01431  -0.00934  -0.00773
 Alpha virt. eigenvalues --    0.00148   0.00270   0.00848   0.00862   0.01321

 Mulliken charges:
               1
     1  C   -0.340275
     2  C   -0.132289
     3  C    0.275968
     4  C   -0.008238
     5  C   -0.226946
     6  C   -0.073829
     7  C   -0.385315
     8  C    0.158841
     9  C   -0.158977
    10  C   -0.139602
    11  C   -0.161063
    12  C    0.082545
    13  C    0.449979
    14  N   -0.542141
    15  C    0.449208
    16  C    0.076919
    17  C   -0.156672
    18  C   -0.140248
    19  C   -0.116384
    20  C   -0.140231
    21  C   -0.157051
    22  N   -0.544373
    23  C    0.452238
    24  C    0.082074
    25  C   -0.176518
    26  C   -0.202971
    27  C    0.096174
    28  C    0.098535
    29  C   -0.246022
    30  C   -0.061496
    31  C   -0.437614
    32  C   -0.437647
    33  C    0.103747
    34  C   -0.203077
    35  C   -0.129976
    36  C   -0.136774
    37  C   -0.189827
    38  C    0.077856
    39  N   -0.546605
    40  C   -0.232271
    41  C    0.077782
    42  C   -0.206470
    43  C   -0.137744
    44  C   -0.150529
    45  C   -0.164531
    46  C    0.301544
    47  N   -0.684237
    48  C    0.241494
    49  C   -0.133600
    50  C   -0.146712
    51  C   -0.161546
    52  C    0.062817
    53  C    0.015361
    54  C   -0.187604
    55  C   -0.143703
    56  C   -0.174051
    57  C    0.311757
    58  C    0.003495
    59  C    0.056211
    60  C   -0.204331
    61  C   -0.146765
    62  C   -0.140531
    63  C   -0.178858
    64  C    0.310547
    65  N   -0.727619
    66  C    0.255258
    67  C   -0.145347
    68  C   -0.143076
    69  C   -0.120351
    70  C   -0.142742
    71  C   -0.146286
    72  C   -0.191748
    73  H    0.141418
    74  H    0.158580
    75  H    0.148219
    76  H    0.134630
    77  H    0.127540
    78  H    0.165360
    79  H    0.155003
    80  H    0.139128
    81  H    0.131337
    82  H    0.157678
    83  H    0.159045
    84  H    0.131899
    85  H    0.132344
    86  H    0.132322
    87  H    0.161961
    88  H    0.160833
    89  H    0.131761
    90  H    0.156602
    91  H    0.148003
    92  H    0.158051
    93  H    0.143587
    94  H    0.147980
    95  H    0.143567
    96  H    0.157976
    97  H    0.125997
    98  H    0.128743
    99  H    0.129439
   100  H    0.131276
   101  H    0.154031
   102  H    0.126248
   103  H    0.121034
   104  H    0.123177
   105  H    0.136322
   106  H    0.152704
   107  H    0.140939
   108  H    0.148853
   109  H    0.129245
   110  H    0.130905
   111  H    0.142045
   112  H    0.145397
   113  H    0.123865
   114  H    0.127457
   115  H    0.140086
   116  H    0.154488
   117  H    0.140393
   118  H    0.136833
   119  H    0.139675
   120  H    0.151708
   121  H    0.156777
 Sum of Mulliken charges =  -0.00000

 Dipole moment (field-independent basis, Debye):
    X=              2.5500    Y=             -3.1514    Z=             -1.1986  Tot=              4.2274
 Quadrupole moment (field-independent basis, Debye-Ang):
   XX=           -347.2258   YY=           -392.1395   ZZ=           -377.7581
   XY=             -2.5925   XZ=             -9.2470   YZ=             -4.3437

 Normal termination of Gaussian 16 at Sat Nov  5 11:20:31 2022.
