 Gaussian 16, Revision B.01,
 Gaussian 16:  ES64L-G16RevB.01 20-Dec-2017

 -----------------------------
 #p b3lyp/6-31g(d) opt SCF=XQC
 -----------------------------

 ------------------------------
 Gaussian input prepared by ASE
 ------------------------------
 Symbolic Z-matrix:
 Charge =  0 Multiplicity = 1

 SCF Done:  E(RB3LYP) =  -2856.45921261     A.U. after   16 cycles
 SCF Done:  E(RB3LYP) =  -2856.47408378     A.U. after   12 cycles
 SCF Done:  E(RB3LYP) =  -2856.47467468     A.U. after   12 cycles
 SCF Done:  E(RB3LYP) =  -2856.47564228     A.U. after   12 cycles
 SCF Done:  E(RB3LYP) =  -2856.47575866     A.U. after   11 cycles
 SCF Done:  E(RB3LYP) =  -2856.47584832     A.U. after   11 cycles
 SCF Done:  E(RB3LYP) =  -2856.47589305     A.U. after   11 cycles
 SCF Done:  E(RB3LYP) =  -2856.47591387     A.U. after   11 cycles
 SCF Done:  E(RB3LYP) =  -2856.47594145     A.U. after   11 cycles
 SCF Done:  E(RB3LYP) =  -2856.47596308     A.U. after    9 cycles
 SCF Done:  E(RB3LYP) =  -2856.47597855     A.U. after    9 cycles
 SCF Done:  E(RB3LYP) =  -2856.47598057     A.U. after    8 cycles
 SCF Done:  E(RB3LYP) =  -2856.47598171     A.U. after    9 cycles
 SCF Done:  E(RB3LYP) =  -2856.47598208     A.U. after    9 cycles
 SCF Done:  E(RB3LYP) =  -2856.47598223     A.U. after    9 cycles
 SCF Done:  E(RB3LYP) =  -2856.47598243     A.U. after    7 cycles
 SCF Done:  E(RB3LYP) =  -2856.47598253     A.U. after    7 cycles
 SCF Done:  E(RB3LYP) =  -2856.47598255     A.U. after    7 cycles
 SCF Done:  E(RB3LYP) =  -2856.47598256     A.U. after    6 cycles
 SCF Done:  E(RB3LYP) =  -2856.47598256     A.U. after    5 cycles
 Optimization completed.
    -- Stationary point found.

                         Standard orientation:
 ---------------------------------------------------------------------
 Center     Atomic      Atomic             Coordinates (Angstroms)
 Number     Number       Type             X           Y           Z
 ---------------------------------------------------------------------
      1          6           0       -2.473259   -3.813424    2.793632
      2          6           0       -3.293617   -3.365079    1.831875
      3          6           0       -3.532746   -3.976170    0.528960
      4          6           0       -2.777252   -4.851154   -0.246590
      5          6           0       -1.450091   -5.435976   -0.005572
      6          6           0       -0.292902   -4.807690    0.260994
      7          6           0       -0.079608   -3.322417    0.391672
      8          6           0        1.132885   -2.835504   -0.384319
      9          6           0        1.197179   -3.003234   -1.775983
     10          6           0        2.302945   -2.553740   -2.497637
     11          6           0        3.365020   -1.933364   -1.843636
     12          6           0        3.322644   -1.759447   -0.452904
     13          6           0        4.447355   -1.102964    0.256204
     14          7           0        4.358613   -0.967615    1.589367
     15          6           0        5.400249   -0.368993    2.186303
     16          6           0        5.349202   -0.196398    3.659665
     17          6           0        6.410110    0.420982    4.340428
     18          6           0        6.360401    0.581832    5.722901
     19          6           0        5.252090    0.128994    6.442878
     20          6           0        4.192349   -0.486359    5.772082
     21          6           0        4.238971   -0.648830    4.389648
     22          7           0        6.484414    0.083341    1.539039
     23          6           0        6.486799   -0.094295    0.207249
     24          6           0        7.661182    0.388360   -0.554353
     25          6           0        7.712491    0.230965   -1.951482
     26          6           0        8.808724    0.679062   -2.682856
     27          6           0        9.869231    1.292940   -2.010711
     28          6           0        9.826419    1.454848   -0.610227
     29          6           0        8.734003    1.008046    0.115327
     30          6           0       11.091115    2.148073   -0.103279
     31          6           0       11.877176    1.242888    0.871882
     32          6           0       10.760730    3.494949    0.578575
     33          6           0       11.856753    2.357511   -1.409431
     34          6           0       13.099712    2.948660   -1.607337
     35          6           0       13.615327    3.034937   -2.905928
     36          6           0       12.892450    2.533918   -3.994298
     37          6           0       11.643981    1.939253   -3.803177
     38          6           0       11.129675    1.853338   -2.507106
     39          7           0        5.490807   -0.681822   -0.474778
     40          6           0        2.202742   -2.214669    0.261772
     41          6           0       -3.554503   -5.144831   -1.423309
     42          6           0       -3.324736   -5.955976   -2.548555
     43          6           0       -4.300409   -6.032356   -3.533227
     44          6           0       -5.504146   -5.306554   -3.418348
     45          6           0       -5.752024   -4.486749   -2.323142
     46          6           0       -4.761787   -4.408962   -1.337037
     47          7           0       -4.734881   -3.695135   -0.147478
     48          6           0       -5.817631   -2.901438    0.336402
     49          6           0       -6.511220   -3.277137    1.491723
     50          6           0       -7.572337   -2.489852    1.938815
     51          6           0       -7.950513   -1.345748    1.236830
     52          6           0       -7.264431   -0.959345    0.074090
     53          6           0       -7.691562    0.229447   -0.715636
     54          6           0       -8.015454    0.057987   -2.066753
     55          6           0       -8.466416    1.122083   -2.860100
     56          6           0       -8.616649    2.398851   -2.330844
     57          6           0       -8.289663    2.582228   -0.985136
     58          6           0       -7.809326    1.525358   -0.163716
     59          6           0       -7.493967    2.120582    1.126989
     60          6           0       -6.954126    1.639732    2.330336
     61          6           0       -6.779325    2.512154    3.399956
     62          6           0       -7.140894    3.865419    3.292303
     63          6           0       -7.665999    4.376656    2.109403
     64          6           0       -7.821611    3.499352    1.032380
     65          7           0       -8.308669    3.767540   -0.248225
     66          6           0       -8.718174    5.040471   -0.734471
     67          6           0       -7.824776    6.118739   -0.720329
     68          6           0       -8.234214    7.366645   -1.189867
     69          6           0       -9.525252    7.541900   -1.692099
     70          6           0      -10.411816    6.463438   -1.714559
     71          6           0      -10.016273    5.217130   -1.228991
     72          6           0       -6.193249   -1.751099   -0.365121
     73          1           0       -2.373911   -3.270079    3.728528
     74          1           0       -1.885003   -4.717880    2.680771
     75          1           0       -3.869878   -2.462947    2.027962
     76          1           0       -1.406430   -6.520564   -0.122617
     77          1           0        0.598743   -5.421737    0.386105
     78          1           0       -0.979908   -2.796708    0.052136
     79          1           0        0.042107   -3.056990    1.451933
     80          1           0        0.373273   -3.491582   -2.291052
     81          1           0        2.336599   -2.688054   -3.575613
     82          1           0        4.229950   -1.580665   -2.393280
     83          1           0        7.264742    0.768341    3.771276
     84          1           0        7.187167    1.061089    6.240378
     85          1           0        5.214483    0.255086    7.521817
     86          1           0        3.328108   -0.840190    6.327833
     87          1           0        3.422758   -1.124732    3.858345
     88          1           0        6.877402   -0.248184   -2.449133
     89          1           0        8.832134    0.549665   -3.761792
     90          1           0        8.679390    1.121886    1.192764
     91          1           0       11.288637    1.045726    1.775218
     92          1           0       12.122789    0.282416    0.407741
     93          1           0       12.813073    1.724662    1.178049
     94          1           0       10.154697    3.334382    1.477581
     95          1           0       11.679393    4.011864    0.879574
     96          1           0       10.203501    4.152665   -0.096091
     97          1           0       13.670619    3.341619   -0.769209
     98          1           0       14.585983    3.495259   -3.070330
     99          1           0       13.306495    2.608496   -4.996285
    100          1           0       11.085270    1.551216   -4.651095
    101          1           0        2.181139   -2.072500    1.337096
    102          1           0       -2.396823   -6.513734   -2.642192
    103          1           0       -4.137785   -6.658968   -4.405956
    104          1           0       -6.253513   -5.388123   -4.201018
    105          1           0       -6.680182   -3.931192   -2.234436
    106          1           0       -6.219898   -4.177528    2.022983
    107          1           0       -8.119050   -2.781365    2.831378
    108          1           0       -8.789445   -0.748936    1.582111
    109          1           0       -7.938046   -0.934907   -2.500300
    110          1           0       -8.709712    0.943471   -3.903792
    111          1           0       -8.962496    3.225445   -2.942184
    112          1           0       -6.673790    0.597556    2.429338
    113          1           0       -6.359894    2.141204    4.330883
    114          1           0       -7.007350    4.527222    4.143770
    115          1           0       -7.943775    5.422014    2.024501
    116          1           0       -6.815089    5.969523   -0.350567
    117          1           0       -7.536951    8.199772   -1.174664
    118          1           0       -9.838575    8.513324   -2.063936
    119          1           0      -11.419709    6.593504   -2.098966
    120          1           0      -10.707696    4.380133   -1.221295
    121          1           0       -5.633255   -1.461989   -1.248977
 ---------------------------------------------------------------------

 The electronic state is 1-A.
 Alpha  occ. eigenvalues --  -14.38381 -14.38111 -14.32950 -14.32899 -14.32894
 Alpha  occ. eigenvalues --  -10.26881 -10.26845 -10.26810 -10.24258 -10.23840
 Alpha  occ. eigenvalues --  -10.22783 -10.22546 -10.22496 -10.21427 -10.20860
 Alpha  occ. eigenvalues --  -10.20702 -10.20460 -10.20441 -10.20392 -10.20369
 Alpha  occ. eigenvalues --  -10.20280 -10.20235 -10.20125 -10.20049 -10.19919
 Alpha  occ. eigenvalues --  -10.19771 -10.19652 -10.19593 -10.19551 -10.19540
 Alpha  occ. eigenvalues --  -10.19488 -10.19421 -10.19246 -10.19214 -10.19130
 Alpha  occ. eigenvalues --  -10.19111 -10.19107 -10.19093 -10.19079 -10.19049
 Alpha  occ. eigenvalues --  -10.19041 -10.19025 -10.18997 -10.18962 -10.18960
 Alpha  occ. eigenvalues --  -10.18941 -10.18928 -10.18900 -10.18867 -10.18861
 Alpha  occ. eigenvalues --  -10.18824 -10.18803 -10.18798 -10.18659 -10.18570
 Alpha  occ. eigenvalues --  -10.18505 -10.18477 -10.18394 -10.18393 -10.18343
 Alpha  occ. eigenvalues --  -10.18262 -10.18257 -10.18233 -10.18227 -10.18223
 Alpha  occ. eigenvalues --  -10.18127 -10.18027 -10.18007 -10.17938 -10.17935
 Alpha  occ. eigenvalues --  -10.17879 -10.17598  -1.01238  -0.99284  -0.98731
 Alpha  occ. eigenvalues --   -0.89907  -0.89839  -0.88650  -0.87708  -0.86974
 Alpha  occ. eigenvalues --   -0.85135  -0.84973  -0.84811  -0.84212  -0.84183
 Alpha  occ. eigenvalues --   -0.83413  -0.81451  -0.81122  -0.78886  -0.78769
 Alpha  occ. eigenvalues --   -0.78151  -0.77686  -0.77326  -0.76049  -0.76014
 Alpha  occ. eigenvalues --   -0.75639  -0.75218  -0.74879  -0.74354  -0.74125
 Alpha  occ. eigenvalues --   -0.73944  -0.73871  -0.73102  -0.72435  -0.72031
 Alpha  occ. eigenvalues --   -0.71660  -0.71164  -0.70336  -0.68624  -0.67729
 Alpha  occ. eigenvalues --   -0.67027  -0.66683  -0.65129  -0.64127  -0.63280
 Alpha  occ. eigenvalues --   -0.62823  -0.62462  -0.62335  -0.62068  -0.61470
 Alpha  occ. eigenvalues --   -0.60707  -0.60078  -0.59713  -0.59170  -0.58835
 Alpha  occ. eigenvalues --   -0.58378  -0.58132  -0.57754  -0.57210  -0.56704
 Alpha  occ. eigenvalues --   -0.56487  -0.55537  -0.55321  -0.53858  -0.53244
 Alpha  occ. eigenvalues --   -0.52570  -0.52475  -0.52026  -0.51575  -0.50793
 Alpha  occ. eigenvalues --   -0.50618  -0.50522  -0.49688  -0.49380  -0.49162
 Alpha  occ. eigenvalues --   -0.48953  -0.47674  -0.47292  -0.47171  -0.46977
 Alpha  occ. eigenvalues --   -0.46657  -0.46178  -0.45943  -0.45545  -0.45308
 Alpha  occ. eigenvalues --   -0.45152  -0.45055  -0.44875  -0.44643  -0.44573
 Alpha  occ. eigenvalues --   -0.43922  -0.43859  -0.43762  -0.43541  -0.43540
 Alpha  occ. eigenvalues --   -0.43430  -0.43309  -0.43081  -0.42956  -0.42728
 Alpha  occ. eigenvalues --   -0.42612  -0.42324  -0.42130  -0.42016  -0.41797
 Alpha  occ. eigenvalues --   -0.41693  -0.41539  -0.41359  -0.41103  -0.40790
 Alpha  occ. eigenvalues --   -0.40729  -0.40095  -0.39700  -0.39099  -0.38333
 Alpha  occ. eigenvalues --   -0.38284  -0.38014  -0.37935  -0.37734  -0.37615
 Alpha  occ. eigenvalues --   -0.37551  -0.37391  -0.37289  -0.36924  -0.36578
 Alpha  occ. eigenvalues --   -0.36543  -0.36187  -0.36047  -0.35968  -0.35717
 Alpha  occ. eigenvalues --   -0.35383  -0.35303  -0.35127  -0.34852  -0.34713
 Alpha  occ. eigenvalues --   -0.34504  -0.34265  -0.34236  -0.34150  -0.33993
 Alpha  occ. eigenvalues --   -0.33595  -0.33463  -0.33312  -0.33024  -0.32812
 Alpha  occ. eigenvalues --   -0.32439  -0.32255  -0.31872  -0.31781  -0.31703
 Alpha  occ. eigenvalues --   -0.29100  -0.28169  -0.27346  -0.27208  -0.26744
 Alpha  occ. eigenvalues --   -0.26452  -0.26125  -0.25963  -0.25512  -0.25447
 Alpha  occ. eigenvalues --   -0.25037  -0.24809  -0.24645  -0.24456  -0.24256
 Alpha  occ. eigenvalues --   -0.24221  -0.24157  -0.23226  -0.21364  -0.21296
 Alpha  occ. eigenvalues --   -0.20999  -0.19945  -0.18802
 Alpha virt. eigenvalues --   -0.06554  -0.06109  -0.03904  -0.03477  -0.02394
 Alpha virt. eigenvalues --   -0.01995  -0.01522  -0.01431  -0.00934  -0.00773
 Alpha virt. eigenvalues --    0.00148   0.00270   0.00848   0.00862   0.01321

 Mulliken charges:
               1
     1  C   -0.340272
     2  C   -0.132296
     3  C    0.275986
     4  C   -0.008223
     5  C   -0.226975
     6  C   -0.073824
     7  C   -0.385316
     8  C    0.158839
     9  C   -0.158980
    10  C   -0.139608
    11  C   -0.161054
    12  C    0.082537
    13  C    0.449973
    14  N   -0.542137
    15  C    0.449222
    16  C    0.076903
    17  C   -0.156658
    18  C   -0.140258
    19  C   -0.116378
    20  C   -0.140238
    21  C   -0.157038
    22  N   -0.544392
    23  C    0.452243
    24  C    0.082070
    25  C   -0.176525
    26  C   -0.202965
    27  C    0.096177
    28  C    0.098522
    29  C   -0.245998
    30  C   -0.061476
    31  C   -0.437617
    32  C   -0.437654
    33  C    0.103715
    34  C   -0.203056
    35  C   -0.129981
    36  C   -0.136771
    37  C   -0.189846
    38  C    0.077868
    39  N   -0.546599
    40  C   -0.232260
    41  C    0.077797
    42  C   -0.206480
    43  C   -0.137753
    44  C   -0.150518
    45  C   -0.164515
    46  C    0.301515
    47  N   -0.684229
    48  C    0.241449
    49  C   -0.133565
    50  C   -0.146737
    51  C   -0.161545
    52  C    0.062804
    53  C    0.015337
    54  C   -0.187588
    55  C   -0.143709
    56  C   -0.174058
    57  C    0.311771
    58  C    0.003512
    59  C    0.056214
    60  C   -0.204332
    61  C   -0.146765
    62  C   -0.140525
    63  C   -0.178864
    64  C    0.310549
    65  N   -0.727624
    66  C    0.255231
    67  C   -0.145352
    68  C   -0.143069
    69  C   -0.120350
    70  C   -0.142749
    71  C   -0.146263
    72  C   -0.191718
    73  H    0.141417
    74  H    0.158581
    75  H    0.148217
    76  H    0.134634
    77  H    0.127542
    78  H    0.165363
    79  H    0.155002
    80  H    0.139128
    81  H    0.131337
    82  H    0.157679
    83  H    0.159044
    84  H    0.131900
    85  H    0.132344
    86  H    0.132322
    87  H    0.161960
    88  H    0.160832
    89  H    0.131760
    90  H    0.156602
    91  H    0.148002
    92  H    0.158050
    93  H    0.143586
    94  H    0.147981
    95  H    0.143566
    96  H    0.157976
    97  H    0.125996
    98  H    0.128744
    99  H    0.129440
   100  H    0.131276
   101  H    0.154031
   102  H    0.126248
   103  H    0.121036
   104  H    0.123176
   105  H    0.136322
   106  H    0.152701
   107  H    0.140941
   108  H    0.148856
   109  H    0.129246
   110  H    0.130905
   111  H    0.142046
   112  H    0.145398
   113  H    0.123864
   114  H    0.127457
   115  H    0.140088
   116  H    0.154489
   117  H    0.140393
   118  H    0.136834
   119  H    0.139675
   120  H    0.151706
   121  H    0.156777
 Sum of Mulliken charges =  -0.00000

 Dipole moment (field-independent basis, Debye):
    X=             -2.1330    Y=              3.6016    Z=              0.5908  Tot=              4.2274
 Quadrupole moment (field-independent basis, Debye-Ang):
   XX=           -350.1004   YY=           -389.3310   ZZ=           -377.7800
   XY=            -11.7105   XZ=              6.0298   YZ=             -4.9211

 Normal termination of Gaussian 16 at Sat Nov  5 03:11:04 2022.
