 Gaussian 16, Revision B.01,
 Gaussian 16:  ES64L-G16RevB.01 20-Dec-2017

 -----------------------------
 #p b3lyp/6-31g(d) opt SCF=XQC
 -----------------------------

 ------------------------------
 Gaussian input prepared by ASE
 ------------------------------
 Symbolic Z-matrix:
 Charge =  0 Multiplicity = 1

 SCF Done:  E(RB3LYP) =  -3101.16384882     A.U. after   16 cycles
 SCF Done:  E(RB3LYP) =  -3101.18577301     A.U. after   15 cycles
 SCF Done:  E(RB3LYP) =  -3101.19406443     A.U. after   13 cycles
 SCF Done:  E(RB3LYP) =  -3101.19866958     A.U. after   15 cycles
 SCF Done:  E(RB3LYP) =  -3101.20015537     A.U. after   12 cycles
 SCF Done:  E(RB3LYP) =  -3101.20059776     A.U. after   12 cycles
 SCF Done:  E(RB3LYP) =  -3101.20087285     A.U. after   12 cycles
 SCF Done:  E(RB3LYP) =  -3101.20105437     A.U. after   11 cycles
 SCF Done:  E(RB3LYP) =  -3101.20113166     A.U. after   11 cycles
 SCF Done:  E(RB3LYP) =  -3101.20115280     A.U. after   10 cycles
 SCF Done:  E(RB3LYP) =  -3101.20119164     A.U. after   11 cycles
 SCF Done:  E(RB3LYP) =  -3101.20119659     A.U. after   10 cycles
 SCF Done:  E(RB3LYP) =  -3101.20120213     A.U. after    9 cycles
 SCF Done:  E(RB3LYP) =  -3101.20120620     A.U. after   10 cycles
 SCF Done:  E(RB3LYP) =  -3101.20120815     A.U. after    9 cycles
 SCF Done:  E(RB3LYP) =  -3101.20120842     A.U. after    9 cycles
 SCF Done:  E(RB3LYP) =  -3101.20120869     A.U. after    9 cycles
 SCF Done:  E(RB3LYP) =  -3101.20120876     A.U. after    8 cycles
 SCF Done:  E(RB3LYP) =  -3101.20120883     A.U. after    9 cycles
 SCF Done:  E(RB3LYP) =  -3101.20120885     A.U. after    9 cycles
 Optimization completed.
    -- Stationary point found.

                         Standard orientation:
 ---------------------------------------------------------------------
 Center     Atomic      Atomic             Coordinates (Angstroms)
 Number     Number       Type             X           Y           Z
 ---------------------------------------------------------------------
      1          6           0       -1.235191    7.330637    4.823934
      2          6           0       -1.112041    7.079659    3.338250
      3          6           0       -0.328330    7.919154    2.534487
      4          6           0       -0.241665    7.701120    1.160445
      5          6           0       -0.929040    6.641622    0.568728
      6          6           0       -1.720665    5.782111    1.347831
      7          6           0       -2.452962    4.648290    0.726429
      8          6           0       -2.556175    3.404474    1.393769
      9          6           0       -3.213110    2.312274    0.836781
     10          6           0       -3.776629    2.465859   -0.431254
     11          6           0       -3.711075    3.703345   -1.117856
     12          6           0       -3.048945    4.785904   -0.533579
     13          6           0       -4.412231    3.525616   -2.373476
     14          6           0       -4.679030    4.365081   -3.461026
     15          6           0       -5.380584    3.859427   -4.552220
     16          6           0       -5.811858    2.522105   -4.568850
     17          6           0       -5.559799    1.664416   -3.499289
     18          6           0       -4.866318    2.182463   -2.402247
     19          7           0       -4.470588    1.542542   -1.220131
     20          6           0       -4.729000    0.178342   -0.907120
     21          6           0       -6.060517   -0.222371   -0.745593
     22          6           0       -6.382292   -1.538693   -0.436926
     23          6           0       -5.369272   -2.494559   -0.263747
     24          6           0       -5.693635   -3.903567    0.075267
     25          6           0       -4.894113   -4.637353    0.969001
     26          6           0       -5.199287   -5.959529    1.289950
     27          6           0       -6.310922   -6.583228    0.730166
     28          6           0       -7.120763   -5.864203   -0.163732
     29          6           0       -8.267007   -6.491191   -0.757311
     30          7           0       -9.197223   -6.998831   -1.236969
     31          6           0       -6.810726   -4.535090   -0.487478
     32          6           0       -4.039636   -2.083140   -0.425626
     33          6           0       -3.687158   -0.766059   -0.756754
     34          6           0       -2.248601   -0.422637   -0.927045
     35          6           0       -1.786903    0.353951   -2.001455
     36          6           0       -0.437409    0.669404   -2.109963
     37          6           0        0.486961    0.243364   -1.149835
     38          7           0        1.849582    0.608602   -1.321400
     39          6           0        2.368370    1.891127   -1.130951
     40          6           0        1.711667    3.057023   -0.729732
     41          6           0        2.477430    4.213421   -0.591574
     42          6           0        3.860600    4.210103   -0.847130
     43          6           0        4.508333    3.041132   -1.239884
     44          6           0        3.764243    1.863816   -1.381283
     45          6           0        4.098691    0.498238   -1.734343
     46          6           0        5.288527   -0.144821   -2.083972
     47          6           0        5.289141   -1.515645   -2.373562
     48          6           0        6.546167   -2.215768   -2.743676
     49          6           0        6.811412   -3.517432   -2.289982
     50          6           0        7.997185   -4.161676   -2.641514
     51          6           0        8.937569   -3.521183   -3.446323
     52          6           0        8.700895   -2.221755   -3.916680
     53          6           0        9.704584   -1.532796   -4.813310
     54          6           0        7.507074   -1.590355   -3.557397
     55          6           0        4.066945   -2.225278   -2.307842
     56          6           0        2.866837   -1.611024   -1.965384
     57          6           0        2.893237   -0.245502   -1.675493
     58          6           0        0.047718   -0.549596   -0.071076
     59          6           0        0.939170   -1.019670    1.028107
     60          7           0        1.883287   -0.190283    1.479776
     61          6           0        2.619684   -0.653110    2.506564
     62          6           0        3.666675    0.233308    3.061505
     63          6           0        3.853429    1.522226    2.535790
     64          6           0        4.839379    2.354798    3.059343
     65          6           0        5.647400    1.913233    4.109775
     66          6           0        5.466094    0.631754    4.637456
     67          6           0        4.482103   -0.204678    4.117905
     68          7           0        2.453463   -1.865359    3.060368
     69          6           0        1.480416   -2.624037    2.538364
     70          6           0        1.263369   -3.974378    3.111416
     71          6           0        0.321340   -4.843903    2.539217
     72          6           0        0.122011   -6.114042    3.074361
     73          6           0        0.856525   -6.530024    4.187749
     74          6           0        1.794960   -5.669334    4.762493
     75          6           0        2.000099   -4.399880    4.227726
     76          7           0        0.687022   -2.239962    1.522711
     77          6           0       -1.310825   -0.883337    0.004963
     78          6           0       -1.796006    6.022874    2.730258
     79          1           0       -0.256920    7.523368    5.279533
     80          1           0       -1.683932    6.475490    5.339233
     81          1           0       -1.864123    8.206742    5.029758
     82          1           0        0.215026    8.745100    2.988301
     83          1           0        0.373760    8.353875    0.546349
     84          1           0       -0.832343    6.463143   -0.498640
     85          1           0       -2.080932    3.288927    2.363300
     86          1           0       -3.266440    1.368052    1.368236
     87          1           0       -3.013344    5.742928   -1.046556
     88          1           0       -4.340084    5.397693   -3.454102
     89          1           0       -5.594741    4.502289   -5.401110
     90          1           0       -6.352468    2.144904   -5.432579
     91          1           0       -5.893812    0.632008   -3.519068
     92          1           0       -6.842571    0.524409   -0.841741
     93          1           0       -7.422254   -1.814888   -0.290387
     94          1           0       -4.038825   -4.157590    1.435664
     95          1           0       -4.571406   -6.503220    1.989663
     96          1           0       -6.557993   -7.610839    0.975222
     97          1           0       -7.434619   -4.005943   -1.200188
     98          1           0       -3.245909   -2.819967   -0.348053
     99          1           0       -2.477935    0.699466   -2.762887
    100          1           0       -0.076800    1.249897   -2.953305
    101          1           0        0.646812    3.062333   -0.519350
    102          1           0        1.991150    5.131183   -0.271766
    103          1           0        4.428731    5.129232   -0.733519
    104          1           0        5.579052    3.040366   -1.427278
    105          1           0        6.221442    0.411685   -2.105637
    106          1           0        6.100121   -4.013795   -1.635864
    107          1           0        8.193549   -5.165877   -2.274014
    108          1           0        9.861330   -4.030458   -3.712728
    109          1           0        9.738811   -1.998213   -5.807049
    110          1           0       10.717836   -1.589546   -4.397842
    111          1           0        9.457571   -0.475601   -4.953123
    112          1           0        7.303748   -0.592783   -3.939559
    113          1           0        4.060663   -3.281578   -2.560323
    114          1           0        1.941099   -2.177420   -1.934982
    115          1           0        3.223953    1.858644    1.720515
    116          1           0        4.976974    3.347798    2.641028
    117          1           0        6.417254    2.564376    4.515915
    118          1           0        6.093831    0.284629    5.453741
    119          1           0        4.333982   -1.201461    4.517482
    120          1           0       -0.238487   -4.510206    1.672642
    121          1           0       -0.604034   -6.783499    2.620635
    122          1           0        0.700002   -7.521583    4.604343
    123          1           0        2.368749   -5.989113    5.628029
    124          1           0        2.727534   -3.724410    4.663229
    125          1           0       -1.636530   -1.484331    0.847152
    126          1           0       -2.424434    5.381851    3.343945
 ---------------------------------------------------------------------

 The electronic state is 1-A.
 Alpha  occ. eigenvalues --  -14.38968 -14.37782 -14.34251 -14.34066 -14.34017
 Alpha  occ. eigenvalues --  -14.33951 -10.28216 -10.27972 -10.27760 -10.25380
 Alpha  occ. eigenvalues --  -10.24871 -10.24775 -10.23301 -10.23138 -10.23033
 Alpha  occ. eigenvalues --  -10.22972 -10.22743 -10.22573 -10.22550 -10.22535
 Alpha  occ. eigenvalues --  -10.22153 -10.22066 -10.22044 -10.22034 -10.21999
 Alpha  occ. eigenvalues --  -10.21973 -10.21519 -10.21460 -10.21455 -10.21020
 Alpha  occ. eigenvalues --  -10.20958 -10.20740 -10.20615 -10.20320 -10.20002
 Alpha  occ. eigenvalues --  -10.19910 -10.19894 -10.19814 -10.19798 -10.19601
 Alpha  occ. eigenvalues --  -10.19565 -10.19547 -10.19543 -10.19491 -10.19479
 Alpha  occ. eigenvalues --  -10.19433 -10.19408 -10.19394 -10.19380 -10.19215
 Alpha  occ. eigenvalues --  -10.19180 -10.19133 -10.19065 -10.18939 -10.18884
 Alpha  occ. eigenvalues --  -10.18850 -10.18778 -10.18777 -10.18737 -10.18662
 Alpha  occ. eigenvalues --  -10.18581 -10.18547 -10.18467 -10.18455 -10.18408
 Alpha  occ. eigenvalues --  -10.18374 -10.18364 -10.18364 -10.18360 -10.18316
 Alpha  occ. eigenvalues --  -10.18311 -10.18307 -10.18118 -10.17877 -10.17874
 Alpha  occ. eigenvalues --  -10.17751 -10.17740 -10.17665  -1.02452  -0.99811
 Alpha  occ. eigenvalues --   -0.98882  -0.91257  -0.91101  -0.90918  -0.89725
 Alpha  occ. eigenvalues --   -0.88442  -0.87357  -0.86288  -0.85961  -0.85557
 Alpha  occ. eigenvalues --   -0.85127  -0.85041  -0.84443  -0.84127  -0.83642
 Alpha  occ. eigenvalues --   -0.81291  -0.80032  -0.79000  -0.78349  -0.77989
 Alpha  occ. eigenvalues --   -0.77573  -0.77486  -0.76881  -0.76583  -0.75943
 Alpha  occ. eigenvalues --   -0.75828  -0.75499  -0.75352  -0.75253  -0.74763
 Alpha  occ. eigenvalues --   -0.74378  -0.73962  -0.73101  -0.72133  -0.71398
 Alpha  occ. eigenvalues --   -0.71086  -0.70462  -0.68405  -0.68231  -0.67940
 Alpha  occ. eigenvalues --   -0.67710  -0.66618  -0.66387  -0.65006  -0.63836
 Alpha  occ. eigenvalues --   -0.63657  -0.62767  -0.62215  -0.62082  -0.61577
 Alpha  occ. eigenvalues --   -0.61334  -0.60900  -0.60556  -0.59871  -0.59542
 Alpha  occ. eigenvalues --   -0.58802  -0.58597  -0.58351  -0.58007  -0.57589
 Alpha  occ. eigenvalues --   -0.57212  -0.56838  -0.56386  -0.55776  -0.54649
 Alpha  occ. eigenvalues --   -0.54478  -0.53985  -0.53129  -0.52203  -0.51721
 Alpha  occ. eigenvalues --   -0.51532  -0.51356  -0.51234  -0.50793  -0.50365
 Alpha  occ. eigenvalues --   -0.49914  -0.49302  -0.48783  -0.48516  -0.48345
 Alpha  occ. eigenvalues --   -0.47611  -0.47161  -0.46765  -0.46512  -0.46205
 Alpha  occ. eigenvalues --   -0.45903  -0.45834  -0.45785  -0.45446  -0.45318
 Alpha  occ. eigenvalues --   -0.45150  -0.45110  -0.44798  -0.44690  -0.44361
 Alpha  occ. eigenvalues --   -0.44055  -0.43949  -0.43862  -0.43177  -0.43079
 Alpha  occ. eigenvalues --   -0.43053  -0.42978  -0.42818  -0.42455  -0.42392
 Alpha  occ. eigenvalues --   -0.42280  -0.42145  -0.41950  -0.41822  -0.41727
 Alpha  occ. eigenvalues --   -0.41687  -0.41467  -0.41368  -0.41235  -0.41164
 Alpha  occ. eigenvalues --   -0.40872  -0.40398  -0.39904  -0.39843  -0.39563
 Alpha  occ. eigenvalues --   -0.39136  -0.38527  -0.38408  -0.38322  -0.38027
 Alpha  occ. eigenvalues --   -0.37863  -0.37644  -0.37366  -0.37141  -0.36976
 Alpha  occ. eigenvalues --   -0.36772  -0.36628  -0.36520  -0.36300  -0.36010
 Alpha  occ. eigenvalues --   -0.35961  -0.35918  -0.35528  -0.35191  -0.35169
 Alpha  occ. eigenvalues --   -0.35006  -0.34944  -0.34838  -0.34437  -0.34299
 Alpha  occ. eigenvalues --   -0.34150  -0.33939  -0.33594  -0.33473  -0.33338
 Alpha  occ. eigenvalues --   -0.33175  -0.33116  -0.32939  -0.32661  -0.32598
 Alpha  occ. eigenvalues --   -0.32397  -0.31733  -0.30047  -0.28961  -0.28422
 Alpha  occ. eigenvalues --   -0.27524  -0.27447  -0.27128  -0.26587  -0.26350
 Alpha  occ. eigenvalues --   -0.26224  -0.25942  -0.25725  -0.25647  -0.25338
 Alpha  occ. eigenvalues --   -0.24934  -0.24790  -0.24490  -0.24200  -0.23628
 Alpha  occ. eigenvalues --   -0.23541  -0.22927  -0.21694  -0.20739  -0.19992
 Alpha  occ. eigenvalues --   -0.19060
 Alpha virt. eigenvalues --   -0.07153  -0.06997  -0.06313  -0.05310  -0.04401
 Alpha virt. eigenvalues --   -0.03311  -0.02394  -0.02302  -0.02002  -0.01479
 Alpha virt. eigenvalues --   -0.01187  -0.00744  -0.00014   0.00261   0.00319

 Mulliken charges:
               1
     1  C   -0.530327
     2  C    0.178219
     3  C   -0.176559
     4  C   -0.134330
     5  C   -0.182650
     6  C    0.097179
     7  C    0.080809
     8  C   -0.194542
     9  C   -0.170803
    10  C    0.320165
    11  C    0.067286
    12  C   -0.260532
    13  C    0.063157
    14  C   -0.197455
    15  C   -0.144292
    16  C   -0.141129
    17  C   -0.184360
    18  C    0.299211
    19  N   -0.739897
    20  C    0.208108
    21  C   -0.150216
    22  C   -0.188985
    23  C    0.106994
    24  C    0.086689
    25  C   -0.162043
    26  C   -0.137043
    27  C   -0.134929
    28  C    0.133163
    29  C    0.238527
    30  N   -0.475951
    31  C   -0.190165
    32  C   -0.262186
    33  C    0.094441
    34  C    0.084696
    35  C   -0.165645
    36  C   -0.147619
    37  C    0.208992
    38  N   -0.731886
    39  C    0.325908
    40  C   -0.186626
    41  C   -0.149874
    42  C   -0.150449
    43  C   -0.198446
    44  C    0.058493
    45  C    0.070351
    46  C   -0.257828
    47  C    0.082901
    48  C    0.096344
    49  C   -0.182013
    50  C   -0.132170
    51  C   -0.177815
    52  C    0.177927
    53  C   -0.530297
    54  C   -0.235504
    55  C   -0.194158
    56  C   -0.180184
    57  C    0.321963
    58  C    0.133214
    59  C    0.384918
    60  N   -0.497868
    61  C    0.447239
    62  C    0.070768
    63  C   -0.157157
    64  C   -0.144618
    65  C   -0.115334
    66  C   -0.140213
    67  C   -0.155256
    68  N   -0.537110
    69  C    0.445849
    70  C    0.078601
    71  C   -0.159385
    72  C   -0.139289
    73  C   -0.115999
    74  C   -0.139498
    75  C   -0.156329
    76  N   -0.521861
    77  C   -0.232254
    78  C   -0.236106
    79  H    0.159706
    80  H    0.155489
    81  H    0.164986
    82  H    0.120687
    83  H    0.128073
    84  H    0.129981
    85  H    0.135573
    86  H    0.138040
    87  H    0.136093
    88  H    0.133929
    89  H    0.128058
    90  H    0.130883
    91  H    0.139454
    92  H    0.161031
    93  H    0.147736
    94  H    0.150751
    95  H    0.149508
    96  H    0.162192
    97  H    0.161887
    98  H    0.153658
    99  H    0.160356
   100  H    0.160688
   101  H    0.151046
   102  H    0.134770
   103  H    0.121316
   104  H    0.129274
   105  H    0.133093
   106  H    0.127982
   107  H    0.125322
   108  H    0.117855
   109  H    0.163095
   110  H    0.158237
   111  H    0.154079
   112  H    0.121852
   113  H    0.130528
   114  H    0.137850
   115  H    0.187431
   116  H    0.139492
   117  H    0.132677
   118  H    0.132132
   119  H    0.157494
   120  H    0.154483
   121  H    0.129932
   122  H    0.135392
   123  H    0.136635
   124  H    0.164080
   125  H    0.156946
   126  H    0.123319
 Sum of Mulliken charges =  -0.00000

 Dipole moment (field-independent basis, Debye):
    X=              1.9389    Y=              1.2465    Z=              2.9455  Tot=              3.7401
 Quadrupole moment (field-independent basis, Debye-Ang):
   XX=           -470.1236   YY=           -428.2492   ZZ=           -423.9671
   XY=            -22.6269   XZ=             -3.8606   YZ=            -20.6404

 1\1\GINC-NODE68\FOpt\RB3LYP\6-31G(d)\C72H48N6\WYKGROUP\05-Nov-2022\0\\
 #p b3lyp/6-31g(d) opt SCF=XQC\\Gaussian input prepared by ASE\\0,1\C,5
 .2780094777,0.6676775862,-6.9610449348\C,5.1301990085,1.4703540601,-5.
 68853699\C,5.0960730035,2.8711793297,-5.7274340248\C,4.9893739635,3.60
 75264288,-4.5486851105\C,4.9095322118,2.9598171729,-3.31610764\C,4.939
 1363364,1.5575066949,-3.2448267786\C,4.8502910967,0.8590464799,-1.9363
 126353\C,4.1116586127,-0.3414531066,-1.8086599036\C,3.9853098747,-1.01
 33816478,-0.5973597353\C,4.6095302925,-0.4627092547,0.5234278779\C,5.3

 Normal termination of Gaussian 16 at Sat Nov  5 05:50:34 2022.
