 Gaussian 16, Revision B.01,
 Gaussian 16:  ES64L-G16RevB.01 20-Dec-2017

 -----------------------------
 #p b3lyp/6-31g(d) opt SCF=XQC
 -----------------------------

 ------------------------------
 Gaussian input prepared by ASE
 ------------------------------
 Symbolic Z-matrix:
 Charge =  0 Multiplicity = 1

 SCF Done:  E(RB3LYP) =  -1919.83843778     A.U. after   14 cycles
 SCF Done:  E(RB3LYP) =  -1919.84878884     A.U. after   13 cycles
 SCF Done:  E(RB3LYP) =  -1919.84936186     A.U. after   12 cycles
 SCF Done:  E(RB3LYP) =  -1919.84945262     A.U. after   12 cycles
 SCF Done:  E(RB3LYP) =  -1919.84972011     A.U. after   12 cycles
 SCF Done:  E(RB3LYP) =  -1919.84971468     A.U. after   10 cycles
 SCF Done:  E(RB3LYP) =  -1919.84974395     A.U. after   10 cycles
 SCF Done:  E(RB3LYP) =  -1919.84974887     A.U. after    9 cycles
 SCF Done:  E(RB3LYP) =  -1919.84975027     A.U. after    9 cycles
 SCF Done:  E(RB3LYP) =  -1919.84975070     A.U. after    8 cycles
 SCF Done:  E(RB3LYP) =  -1919.84975103     A.U. after    8 cycles
 SCF Done:  E(RB3LYP) =  -1919.84975129     A.U. after    8 cycles
 SCF Done:  E(RB3LYP) =  -1919.84975138     A.U. after    7 cycles
 SCF Done:  E(RB3LYP) =  -1919.84975141     A.U. after    7 cycles
 SCF Done:  E(RB3LYP) =  -1919.84975142     A.U. after    6 cycles
 Optimization completed.
    -- Stationary point found.

                         Standard orientation:
 ---------------------------------------------------------------------
 Center     Atomic      Atomic             Coordinates (Angstroms)
 Number     Number       Type             X           Y           Z
 ---------------------------------------------------------------------
      1          6           0       -3.078641   -2.886841    1.483589
      2          6           0       -3.768974   -2.521731    0.148239
      3          6           0       -2.837018   -2.863150   -1.038155
      4          6           0       -5.074831   -3.314761    0.023408
      5          6           0       -5.257282   -4.695388    0.005178
      6          6           0       -6.553932   -5.205431   -0.119309
      7          6           0       -7.657415   -4.347740   -0.224721
      8          6           0       -7.480483   -2.964752   -0.207914
      9          6           0       -6.183191   -2.465406   -0.082055
     10          6           0       -5.705558   -1.083739   -0.044403
     11          7           0       -6.469096   -0.019520   -0.172412
     12          6           0       -5.849181    1.186518   -0.132038
     13          6           0       -6.721443    2.307385   -0.326681
     14          6           0       -6.242574    3.574301   -0.334480
     15          6           0       -4.855223    3.831837   -0.095527
     16          6           0       -4.408427    5.173040   -0.057710
     17          6           0       -3.096050    5.487508    0.225161
     18          6           0       -2.196767    4.443758    0.494325
     19          6           0       -2.606646    3.122253    0.449841
     20          6           0       -3.939924    2.749982    0.132873
     21          6           0       -4.437505    1.366206    0.057499
     22          6           0       -3.639093    0.163186    0.142227
     23          6           0       -2.140594    0.184614    0.196979
     24          6           0       -1.396715    0.333309   -0.982932
     25          6           0       -0.004153    0.360849   -0.954000
     26          6           0        0.698828    0.244734    0.257539
     27          6           0        2.187778    0.226856    0.303617
     28          6           0        2.821278   -0.855035    0.889570
     29          6           0        4.224176   -0.949913    0.946205
     30          6           0        5.035770    0.036135    0.419088
     31          6           0        6.516701   -0.084768    0.559253
     32          6           0        7.223707    0.829561    1.324082
     33          6           0        8.620183    0.724672    1.517066
     34          6           0        9.325375   -0.305829    0.940419
     35          6           0        8.652385   -1.267672    0.145317
     36          6           0        9.327527   -2.348868   -0.478076
     37          6           0        8.617310   -3.242932   -1.241443
     38          6           0        7.220606   -3.047621   -1.381080
     39          7           0        6.549948   -2.062344   -0.820985
     40          6           0        7.235635   -1.165403   -0.054099
     41          6           0        4.426444    1.175890   -0.204096
     42          6           0        5.198262    2.210832   -0.804371
     43          6           0        4.604681    3.315384   -1.370662
     44          6           0        3.198478    3.449180   -1.355960
     45          6           0        2.416831    2.457218   -0.809404
     46          6           0        2.990854    1.282796   -0.245152
     47          6           0       -0.049559    0.087089    1.435124
     48          6           0       -1.443705    0.055627    1.406112
     49          6           0       -4.291459   -1.066425    0.102761
     50          1           0       -2.114210   -2.384352    1.584202
     51          1           0       -3.706724   -2.616429    2.339153
     52          1           0       -2.900578   -3.967477    1.525750
     53          1           0       -2.614498   -3.936441   -1.040672
     54          1           0       -1.890114   -2.322180   -0.970219
     55          1           0       -3.311085   -2.615650   -1.993832
     56          1           0       -4.412497   -5.375522    0.084483
     57          1           0       -6.707259   -6.281408   -0.135067
     58          1           0       -8.655990   -4.765669   -0.320770
     59          1           0       -8.320701   -2.281850   -0.290406
     60          1           0       -7.771133    2.080072   -0.480628
     61          1           0       -6.905013    4.420435   -0.500233
     62          1           0       -5.134815    5.959948   -0.247087
     63          1           0       -2.767839    6.522873    0.254546
     64          1           0       -1.163952    4.667275    0.748591
     65          1           0       -1.874060    2.370171    0.685691
     66          1           0       -1.916998    0.429865   -1.931861
     67          1           0        0.548500    0.459759   -1.883818
     68          1           0        2.220716   -1.664162    1.296172
     69          1           0        4.677762   -1.820429    1.409031
     70          1           0        6.684614    1.644858    1.798363
     71          1           0        9.129800    1.462200    2.130922
     72          1           0       10.399314   -0.397608    1.084906
     73          1           0       10.401748   -2.452623   -0.342112
     74          1           0        9.101490   -4.081091   -1.733600
     75          1           0        6.638760   -3.741499   -1.987802
     76          1           0        6.278342    2.116311   -0.815037
     77          1           0        5.218832    4.088477   -1.824773
     78          1           0        2.732723    4.335116   -1.779299
     79          1           0        1.338464    2.570143   -0.799358
     80          1           0        0.470021    0.005264    2.385933
     81          1           0       -1.998392   -0.039216    2.335382
 ---------------------------------------------------------------------

 The electronic state is 1-A.
 Alpha  occ. eigenvalues --  -14.32965 -14.31719 -10.23018 -10.22764 -10.21946
 Alpha  occ. eigenvalues --  -10.21648 -10.21552 -10.21261 -10.21088 -10.20912
 Alpha  occ. eigenvalues --  -10.20798 -10.20523 -10.20474 -10.20461 -10.20293
 Alpha  occ. eigenvalues --  -10.20274 -10.20135 -10.20054 -10.19939 -10.19903
 Alpha  occ. eigenvalues --  -10.19897 -10.19872 -10.19826 -10.19630 -10.19569
 Alpha  occ. eigenvalues --  -10.19562 -10.19544 -10.19504 -10.19487 -10.18924
 Alpha  occ. eigenvalues --  -10.18816 -10.18772 -10.18765 -10.18750 -10.18718
 Alpha  occ. eigenvalues --  -10.18692 -10.18644 -10.18628 -10.18612 -10.18575
 Alpha  occ. eigenvalues --  -10.18567 -10.18534 -10.18531 -10.18479 -10.18368
 Alpha  occ. eigenvalues --  -10.18099 -10.18014 -10.17615 -10.17511  -0.94494
 Alpha  occ. eigenvalues --   -0.94148  -0.87910  -0.87249  -0.86717  -0.85870
 Alpha  occ. eigenvalues --   -0.85233  -0.82724  -0.82217  -0.81372  -0.80862
 Alpha  occ. eigenvalues --   -0.79777  -0.78246  -0.76506  -0.75493  -0.75472
 Alpha  occ. eigenvalues --   -0.75161  -0.74333  -0.73777  -0.73648  -0.73152
 Alpha  occ. eigenvalues --   -0.72587  -0.70816  -0.70527  -0.68450  -0.65824
 Alpha  occ. eigenvalues --   -0.64721  -0.63970  -0.63516  -0.63058  -0.61811
 Alpha  occ. eigenvalues --   -0.61425  -0.60874  -0.60365  -0.60067  -0.59571
 Alpha  occ. eigenvalues --   -0.59257  -0.56943  -0.56430  -0.55307  -0.53651
 Alpha  occ. eigenvalues --   -0.53317  -0.52304  -0.51926  -0.51175  -0.51001
 Alpha  occ. eigenvalues --   -0.50825  -0.49938  -0.49425  -0.49081  -0.47654
 Alpha  occ. eigenvalues --   -0.46611  -0.46276  -0.46091  -0.45854  -0.45491
 Alpha  occ. eigenvalues --   -0.45009  -0.44236  -0.43854  -0.43516  -0.43304
 Alpha  occ. eigenvalues --   -0.43106  -0.43010  -0.42661  -0.42465  -0.42341
 Alpha  occ. eigenvalues --   -0.42271  -0.41730  -0.41410  -0.41235  -0.41076
 Alpha  occ. eigenvalues --   -0.40890  -0.40594  -0.40053  -0.39907  -0.39781
 Alpha  occ. eigenvalues --   -0.38800  -0.38754  -0.38224  -0.37768  -0.37280
 Alpha  occ. eigenvalues --   -0.36951  -0.36320  -0.36290  -0.35834  -0.35538
 Alpha  occ. eigenvalues --   -0.35461  -0.35173  -0.34913  -0.34593  -0.34099
 Alpha  occ. eigenvalues --   -0.34003  -0.33510  -0.33287  -0.32677  -0.32219
 Alpha  occ. eigenvalues --   -0.32058  -0.31407  -0.30946  -0.30662  -0.29476
 Alpha  occ. eigenvalues --   -0.28095  -0.26650  -0.25800  -0.25531  -0.25415
 Alpha  occ. eigenvalues --   -0.25004  -0.24746  -0.24276  -0.24204  -0.23976
 Alpha  occ. eigenvalues --   -0.23570  -0.21653  -0.20622  -0.20235
 Alpha virt. eigenvalues --   -0.05746  -0.05024  -0.04104  -0.03725  -0.02012
 Alpha virt. eigenvalues --   -0.01404  -0.00988  -0.00418   0.00164   0.00794
 Alpha virt. eigenvalues --    0.01285   0.01359   0.04216   0.04739   0.08657

 Mulliken charges:
               1
     1  C   -0.450197
     2  C   -0.061088
     3  C   -0.448551
     4  C    0.097685
     5  C   -0.205158
     6  C   -0.128166
     7  C   -0.139621
     8  C   -0.180431
     9  C    0.122895
    10  C    0.207380
    11  N   -0.610581
    12  C    0.240984
    13  C   -0.160756
    14  C   -0.189263
    15  C    0.135649
    16  C   -0.203764
    17  C   -0.129572
    18  C   -0.145573
    19  C   -0.193594
    20  C    0.048014
    21  C    0.045001
    22  C   -0.008553
    23  C    0.006096
    24  C   -0.144290
    25  C   -0.171549
    26  C    0.063751
    27  C    0.031425
    28  C   -0.189735
    29  C   -0.151120
    30  C    0.060063
    31  C    0.023187
    32  C   -0.185216
    33  C   -0.130949
    34  C   -0.196022
    35  C    0.163849
    36  C   -0.151221
    37  C   -0.151449
    38  C    0.039949
    39  N   -0.494156
    40  C    0.198150
    41  C    0.092155
    42  C   -0.202361
    43  C   -0.131851
    44  C   -0.133862
    45  C   -0.209292
    46  C    0.084284
    47  C   -0.169372
    48  C   -0.165704
    49  C    0.076008
    50  H    0.160093
    51  H    0.151545
    52  H    0.143641
    53  H    0.142908
    54  H    0.164651
    55  H    0.152058
    56  H    0.125763
    57  H    0.128081
    58  H    0.129632
    59  H    0.149171
    60  H    0.142099
    61  H    0.131423
    62  H    0.128529
    63  H    0.128943
    64  H    0.129229
    65  H    0.159291
    66  H    0.143931
    67  H    0.149127
    68  H    0.132773
    69  H    0.135577
    70  H    0.145686
    71  H    0.136987
    72  H    0.133804
    73  H    0.142786
    74  H    0.139588
    75  H    0.142194
    76  H    0.141026
    77  H    0.128191
    78  H    0.129092
    79  H    0.144712
    80  H    0.139967
    81  H    0.143996
 Sum of Mulliken charges =  -0.00000

 Dipole moment (field-independent basis, Debye):
    X=              5.0693    Y=             -0.7236    Z=              0.5031  Tot=              5.1454
 Quadrupole moment (field-independent basis, Debye-Ang):
   XX=           -244.8015   YY=           -252.1407   ZZ=           -278.5245
   XY=             -4.5070   XZ=              3.5613   YZ=             -0.2188

 1\1\GINC-NODE99\FOpt\RB3LYP\6-31G(d)\C47H32N2\WYKGROUP\05-Nov-2022\0\\
 #p b3lyp/6-31g(d) opt SCF=XQC\\Gaussian input prepared by ASE\\0,1\C,-
 3.4418566104,1.1785691184,-2.5841146594\C,-3.9011706092,1.8919110041,-
 1.2905932088\C,-2.8232533299,2.9032163116,-0.8345271711\C,-5.217721062
 1,2.628511221,-1.5623560805\C,-5.4760562911,3.6393067443,-2.4850189577
 \C,-6.7669677403,4.1728791477,-2.5611066603\C,-7.7898523344,3.70359963
 16,-1.7257007634\C,-7.5366123541,2.6924590354,-0.799574646\C,-6.245900
 4354,2.1655326327,-0.7320024403\C,-5.6991026129,1.1217044681,0.1340162

 Normal termination of Gaussian 16 at Sat Nov  5 01:57:33 2022.
