 Gaussian 16, Revision B.01,
 Gaussian 16:  ES64L-G16RevB.01 20-Dec-2017

 -------------------------------------------------------------------
 #p b3lyp/6-31g(d) 6D 10F nosymm GFInput td=(50-50,nstate=2) SCF=XQC
 -------------------------------------------------------------------

 ------------------------------
 Gaussian input prepared by ASE
 ------------------------------
 Symbolic Z-matrix:
 Charge =  0 Multiplicity = 1

                          Input orientation:
 ---------------------------------------------------------------------
 Center     Atomic      Atomic             Coordinates (Angstroms)
 Number     Number       Type             X           Y           Z
 ---------------------------------------------------------------------
      1          6           0       -3.441857    1.178569   -2.584115
      2          6           0       -3.901171    1.891911   -1.290593
      3          6           0       -2.823253    2.903216   -0.834527
      4          6           0       -5.217721    2.628511   -1.562356
      5          6           0       -5.476056    3.639307   -2.485019
      6          6           0       -6.766968    4.172879   -2.561107
      7          6           0       -7.789852    3.703600   -1.725701
      8          6           0       -7.536612    2.692459   -0.799575
      9          6           0       -6.245900    2.165533   -0.732002
     10          6           0       -5.699103    1.121704    0.134016
     11          7           0       -6.370979    0.498995    1.078873
     12          6           0       -5.694475   -0.430280    1.799459
     13          6           0       -6.460319   -1.040132    2.846660
     14          6           0       -5.912208   -1.970380    3.664380
     15          6           0       -4.563791   -2.409043    3.470701
     16          6           0       -4.049826   -3.422114    4.312965
     17          6           0       -2.778656   -3.927290    4.139280
     18          6           0       -1.992812   -3.426176    3.089563
     19          6           0       -2.468186   -2.424881    2.260236
     20          6           0       -3.758253   -1.853319    2.420639
     21          6           0       -4.319196   -0.780434    1.582567
     22          6           0       -3.614546   -0.030609    0.566138
     23          6           0       -2.142623   -0.179293    0.320595
     24          6           0       -1.222538    0.489246    1.141664
     25          6           0        0.149071    0.360915    0.934193
     26          6           0        0.654074   -0.444884   -0.100772
     27          6           0        2.115569   -0.558833   -0.366218
     28          6           0        2.589291   -0.234287   -1.625348
     29          6           0        3.959756   -0.295104   -1.939126
     30          6           0        4.897758   -0.683992   -1.002242
     31          6           0        6.331162   -0.789368   -1.404320
     32          6           0        6.967692   -2.020479   -1.408172
     33          6           0        8.310754   -2.168731   -1.823619
     34          6           0        9.032861   -1.075463   -2.242041
     35          6           0        8.431661    0.208528   -2.255119
     36          6           0        9.128158    1.372497   -2.671639
     37          6           0        8.489429    2.588313   -2.654208
     38          6           0        7.143436    2.634802   -2.213111
     39          7           0        6.455242    1.583186   -1.819724
     40          6           0        7.069403    0.364421   -1.833982
     41          6           0        4.456880   -1.025480    0.319760
     42          6           0        5.369482   -1.395806    1.347940
     43          6           0        4.933533   -1.752780    2.603160
     44          6           0        3.551375   -1.769263    2.894519
     45          6           0        2.639663   -1.391595    1.935441
     46          6           0        3.052516   -0.982034    0.635839
     47          6           0       -0.270637   -1.105121   -0.925781
     48          6           0       -1.644027   -0.973832   -0.720754
     49          6           0       -4.324597    0.916938   -0.166709
     50          1           0       -2.475674    0.688139   -2.447312
     51          1           0       -4.174355    0.429183   -2.902655
     52          1           0       -3.335863    1.910027   -3.393431
     53          1           0       -2.666244    3.657728   -1.613971
     54          1           0       -1.867203    2.409171   -0.645378
     55          1           0       -3.133057    3.422328    0.078632
     56          1           0       -4.694145    4.016346   -3.139992
     57          1           0       -6.979055    4.962420   -3.277436
     58          1           0       -8.785456    4.132598   -1.801694
     59          1           0       -8.313375    2.315372   -0.141114
     60          1           0       -7.486489   -0.703748    2.951740
     61          1           0       -6.491436   -2.417389    4.468693
     62          1           0       -4.692092   -3.806281    5.102038
     63          1           0       -2.398403   -4.708419    4.791821
     64          1           0       -0.998587   -3.828670    2.913968
     65          1           0       -1.824739   -2.098370    1.461925
     66          1           0       -1.587823    1.114447    1.951710
     67          1           0        0.839949    0.902936    1.573466
     68          1           0        1.888042    0.098738   -2.385631
     69          1           0        4.286815   -0.024375   -2.937866
     70          1           0        6.412258   -2.899213   -1.092589
     71          1           0        8.764779   -3.155783   -1.815575
     72          1           0       10.065661   -1.178797   -2.566532
     73          1           0       10.161813    1.283639   -2.998541
     74          1           0        8.992012    3.499326   -2.965052
     75          1           0        6.619616    3.590285   -2.185026
     76          1           0        6.431483   -1.389474    1.129461
     77          1           0        5.653214   -2.027822    3.369634
     78          1           0        3.207281   -2.077747    3.878116
     79          1           0        1.580525   -1.410754    2.166931
     80          1           0        0.094536   -1.742114   -1.726772
     81          1           0       -2.336592   -1.518248   -1.356505
 ---------------------------------------------------------------------

 SCF Done:  E(RB3LYP) =  -1919.84974201     A.U. after   15 cycles

 Excitation energies and oscillator strengths:

 Excited state symmetry could not be determined.
 Excited State   1:      Triplet-?Sym    2.5036 eV  495.22 nm  f=0.0000  <S**2>=2.000
     160 ->172        -0.11185
     161 ->165         0.14081
     161 ->167         0.11776
     164 ->165        -0.39303
     164 ->167         0.50163
     164 ->171        -0.10907
 This state for optimization and/or second-order correction.
 Total Energy, E(TD-HF/TD-DFT) =  -1919.75773651
 Copying the excited state density for this state as the 1-particle RhoCI density.

 Excited state symmetry could not be determined.
 Excited State   2:      Triplet-?Sym    2.6766 eV  463.21 nm  f=0.0000  <S**2>=2.000
     162 ->166         0.41075
     162 ->168         0.18345
     163 ->166         0.12593
     163 ->168        -0.46750

 Excited state symmetry could not be determined.
 Excited State   3:      Singlet-?Sym    3.3899 eV  365.75 nm  f=0.1319  <S**2>=0.000
     164 ->165         0.69774

 Excited state symmetry could not be determined.
 Excited State   4:      Singlet-?Sym    3.6581 eV  338.93 nm  f=0.1595  <S**2>=0.000
     162 ->166        -0.15920
     162 ->168         0.27282
     163 ->166         0.60693
     163 ->168         0.10760

 Alpha  occ. eigenvalues --  -14.32965 -14.31719 -10.23018 -10.22764 -10.21946
 Alpha  occ. eigenvalues --  -10.21648 -10.21552 -10.21261 -10.21088 -10.20912
 Alpha  occ. eigenvalues --  -10.20797 -10.20523 -10.20474 -10.20461 -10.20293
 Alpha  occ. eigenvalues --  -10.20274 -10.20135 -10.20054 -10.19939 -10.19903
 Alpha  occ. eigenvalues --  -10.19897 -10.19872 -10.19826 -10.19630 -10.19569
 Alpha  occ. eigenvalues --  -10.19562 -10.19544 -10.19503 -10.19487 -10.18924
 Alpha  occ. eigenvalues --  -10.18816 -10.18772 -10.18765 -10.18750 -10.18718
 Alpha  occ. eigenvalues --  -10.18692 -10.18644 -10.18628 -10.18612 -10.18575
 Alpha  occ. eigenvalues --  -10.18567 -10.18534 -10.18531 -10.18479 -10.18368
 Alpha  occ. eigenvalues --  -10.18099 -10.18014 -10.17616 -10.17512  -0.94494
 Alpha  occ. eigenvalues --   -0.94148  -0.87910  -0.87249  -0.86717  -0.85870
 Alpha  occ. eigenvalues --   -0.85233  -0.82724  -0.82217  -0.81372  -0.80862
 Alpha  occ. eigenvalues --   -0.79777  -0.78246  -0.76506  -0.75493  -0.75472
 Alpha  occ. eigenvalues --   -0.75161  -0.74333  -0.73777  -0.73648  -0.73152
 Alpha  occ. eigenvalues --   -0.72587  -0.70816  -0.70527  -0.68450  -0.65824
 Alpha  occ. eigenvalues --   -0.64721  -0.63970  -0.63516  -0.63058  -0.61811
 Alpha  occ. eigenvalues --   -0.61425  -0.60874  -0.60365  -0.60067  -0.59571
 Alpha  occ. eigenvalues --   -0.59257  -0.56943  -0.56430  -0.55307  -0.53651
 Alpha  occ. eigenvalues --   -0.53317  -0.52304  -0.51926  -0.51175  -0.51001
 Alpha  occ. eigenvalues --   -0.50825  -0.49938  -0.49424  -0.49081  -0.47654
 Alpha  occ. eigenvalues --   -0.46611  -0.46276  -0.46091  -0.45854  -0.45491
 Alpha  occ. eigenvalues --   -0.45008  -0.44236  -0.43854  -0.43516  -0.43304
 Alpha  occ. eigenvalues --   -0.43106  -0.43010  -0.42661  -0.42465  -0.42341
 Alpha  occ. eigenvalues --   -0.42271  -0.41730  -0.41410  -0.41235  -0.41076
 Alpha  occ. eigenvalues --   -0.40890  -0.40594  -0.40053  -0.39907  -0.39781
 Alpha  occ. eigenvalues --   -0.38800  -0.38754  -0.38224  -0.37768  -0.37280
 Alpha  occ. eigenvalues --   -0.36951  -0.36320  -0.36290  -0.35834  -0.35538
 Alpha  occ. eigenvalues --   -0.35461  -0.35173  -0.34913  -0.34593  -0.34099
 Alpha  occ. eigenvalues --   -0.34003  -0.33510  -0.33287  -0.32677  -0.32219
 Alpha  occ. eigenvalues --   -0.32058  -0.31407  -0.30946  -0.30662  -0.29476
 Alpha  occ. eigenvalues --   -0.28095  -0.26650  -0.25800  -0.25531  -0.25414
 Alpha  occ. eigenvalues --   -0.25004  -0.24746  -0.24276  -0.24204  -0.23976
 Alpha  occ. eigenvalues --   -0.23570  -0.21653  -0.20622  -0.20235
 Alpha virt. eigenvalues --   -0.05746  -0.05024  -0.04104  -0.03725  -0.02012
 Alpha virt. eigenvalues --   -0.01404  -0.00988  -0.00418   0.00164   0.00794
 Alpha virt. eigenvalues --    0.01285   0.01359   0.04216   0.04739   0.08657

 Mulliken charges:
               1
     1  C   -0.450185
     2  C   -0.061113
     3  C   -0.448547
     4  C    0.097667
     5  C   -0.205156
     6  C   -0.128166
     7  C   -0.139625
     8  C   -0.180434
     9  C    0.122920
    10  C    0.207336
    11  N   -0.610564
    12  C    0.240987
    13  C   -0.160758
    14  C   -0.189263
    15  C    0.135628
    16  C   -0.203753
    17  C   -0.129569
    18  C   -0.145586
    19  C   -0.193602
    20  C    0.048039
    21  C    0.045047
    22  C   -0.008641
    23  C    0.006165
    24  C   -0.144305
    25  C   -0.171570
    26  C    0.063799
    27  C    0.031416
    28  C   -0.189732
    29  C   -0.151122
    30  C    0.060061
    31  C    0.023184
    32  C   -0.185213
    33  C   -0.130948
    34  C   -0.196034
    35  C    0.163867
    36  C   -0.151233
    37  C   -0.151437
    38  C    0.039938
    39  N   -0.494151
    40  C    0.198146
    41  C    0.092151
    42  C   -0.202359
    43  C   -0.131850
    44  C   -0.133859
    45  C   -0.209295
    46  C    0.084289
    47  C   -0.169395
    48  C   -0.165722
    49  C    0.076057
    50  H    0.160091
    51  H    0.151544
    52  H    0.143640
    53  H    0.142910
    54  H    0.164649
    55  H    0.152060
    56  H    0.125761
    57  H    0.128082
    58  H    0.129633
    59  H    0.149171
    60  H    0.142099
    61  H    0.131423
    62  H    0.128529
    63  H    0.128943
    64  H    0.129234
    65  H    0.159289
    66  H    0.143927
    67  H    0.149125
    68  H    0.132774
    69  H    0.135576
    70  H    0.145686
    71  H    0.136988
    72  H    0.133803
    73  H    0.142788
    74  H    0.139588
    75  H    0.142194
    76  H    0.141027
    77  H    0.128191
    78  H    0.129091
    79  H    0.144712
    80  H    0.139966
    81  H    0.143995
 Sum of Mulliken charges =  -0.00000

 Dipole moment (field-independent basis, Debye):
    X=              4.8849    Y=             -0.1556    Z=             -1.6087  Tot=              5.1453
 Quadrupole moment (field-independent basis, Debye-Ang):
   XX=           -247.2715   YY=           -265.2153   ZZ=           -263.1169
   XY=             -2.6795   XZ=             -9.1879   YZ=            -12.5073

 Normal termination of Gaussian 16 at Sat Nov  5 11:33:58 2022.
