 Gaussian 16, Revision B.01,
 Gaussian 16:  ES64L-G16RevB.01 20-Dec-2017

 -------------------------------------------------------------------
 #p b3lyp/6-31g(d) 6D 10F nosymm GFInput td=(50-50,nstate=2) SCF=XQC
 -------------------------------------------------------------------

 ------------------------------
 Gaussian input prepared by ASE
 ------------------------------
 Symbolic Z-matrix:
 Charge =  0 Multiplicity = 1

                          Input orientation:
 ---------------------------------------------------------------------
 Center     Atomic      Atomic             Coordinates (Angstroms)
 Number     Number       Type             X           Y           Z
 ---------------------------------------------------------------------
      1          6           0       -8.532942    0.753927    0.297519
      2          7           0       -7.215361    1.334213    0.160370
      3          6           0       -6.228158    1.000613    1.180338
      4          7           0       -4.939802    1.267916    0.524534
      5          6           0       -3.751005    0.865639    1.157719
      6          6           0       -3.597623    1.096625    2.538332
      7          6           0       -2.433174    0.693654    3.185656
      8          6           0       -1.395075    0.065193    2.497362
      9          6           0       -1.560795   -0.174755    1.131086
     10          8           0       -0.590455   -0.754400    0.340601
     11          6           0        0.319018   -1.639853    0.876954
     12          6           0       -0.063375   -2.754576    1.625242
     13          6           0        0.885450   -3.681781    2.083730
     14          6           0        2.244419   -3.538073    1.802497
     15          6           0        2.608601   -2.426700    1.047394
     16          6           0        1.675989   -1.457376    0.575265
     17          7           0        2.290827   -0.437580   -0.150794
     18          6           0        3.550193   -0.782510   -0.109230
     19          7           0        4.738528   -0.261874   -0.592383
     20          6           0        4.854942    0.960559   -1.310906
     21          6           0        3.880649    1.302555   -2.256557
     22          6           0        3.993297    2.504144   -2.953415
     23          6           0        5.072133    3.360919   -2.725804
     24          6           0        6.034221    3.018259   -1.774972
     25          6           0        5.924904    1.827361   -1.057490
     26          6           0        5.769201   -1.150708   -0.219978
     27          6           0        7.131717   -1.148244   -0.504874
     28          6           0        7.907839   -2.200860   -0.007327
     29          6           0        7.342375   -3.233601    0.748081
     30          6           0        5.970918   -3.256194    1.020498
     31          6           0        5.199305   -2.212754    0.526192
     32          7           0        3.832100   -1.952477    0.579091
     33          6           0       -2.725816    0.205546    0.464068
     34          6           0       -5.166240    1.423202   -0.856346
     35          6           0       -4.291435    1.646492   -1.912988
     36          6           0       -4.825740    1.794883   -3.205809
     37          6           0       -6.197551    1.731441   -3.425270
     38          6           0       -7.086438    1.545016   -2.352047
     39          6           0       -6.560625    1.413862   -1.074850
     40          1           0       -9.210117    1.198987   -0.436249
     41          1           0       -8.538047   -0.342000    0.160776
     42          1           0       -8.929432    0.979659    1.293287
     43          1           0       -6.374917    1.620460    2.075297
     44          1           0       -6.289474   -0.063410    1.491824
     45          1           0       -4.372807    1.613629    3.093692
     46          1           0       -2.321583    0.891434    4.248536
     47          1           0       -0.481021   -0.224569    3.002235
     48          1           0       -1.115534   -2.898734    1.848251
     49          1           0        0.548793   -4.535742    2.664070
     50          1           0        2.973502   -4.259430    2.156381
     51          1           0        3.037463    0.642001   -2.421142
     52          1           0        3.232249    2.767472   -3.682544
     53          1           0        5.156716    4.292640   -3.277716
     54          1           0        6.867745    3.685888   -1.574870
     55          1           0        6.650020    1.584276   -0.288362
     56          1           0        7.578881   -0.364391   -1.104657
     57          1           0        8.972878   -2.212838   -0.219044
     58          1           0        7.972176   -4.034706    1.122760
     59          1           0        5.522941   -4.063638    1.589884
     60          1           0       -2.823351   -0.044874   -0.583889
     61          1           0       -3.221812    1.713582   -1.754234
     62          1           0       -4.148053    1.956138   -4.039216
     63          1           0       -6.593663    1.833392   -4.431668
     64          1           0       -8.158569    1.517077   -2.521922
 ---------------------------------------------------------------------

 SCF Done:  E(RB3LYP) =  -1621.54578079     A.U. after   15 cycles

 Excitation energies and oscillator strengths:

 Excited state symmetry could not be determined.
 Excited State   1:      Triplet-?Sym    3.0793 eV  402.64 nm  f=0.0000  <S**2>=2.000
     127 ->143        -0.10844
     131 ->138        -0.13752
     133 ->136         0.13776
     133 ->138         0.56275
     133 ->139        -0.12738
     133 ->141         0.11499
     133 ->142         0.13613
     133 ->143        -0.16238
 This state for optimization and/or second-order correction.
 Total Energy, E(TD-HF/TD-DFT) =  -1621.43261862
 Copying the excited state density for this state as the 1-particle RhoCI density.

 Excited state symmetry could not be determined.
 Excited State   2:      Triplet-?Sym    3.3217 eV  373.26 nm  f=0.0000  <S**2>=2.000
     128 ->136        -0.10879
     128 ->140        -0.12650
     130 ->134         0.18795
     130 ->136        -0.14126
     131 ->134        -0.11738
     132 ->134         0.24215
     132 ->136         0.47573
     132 ->137        -0.10037
     132 ->140         0.12005

 Excited state symmetry could not be determined.
 Excited State   3:      Singlet-?Sym    3.6206 eV  342.44 nm  f=0.0260  <S**2>=0.000
     133 ->134         0.68231
     133 ->135        -0.12820
     133 ->138        -0.11851

 Excited state symmetry could not be determined.
 Excited State   4:      Singlet-?Sym    3.7093 eV  334.25 nm  f=0.0002  <S**2>=0.000
     133 ->134         0.13737
     133 ->135         0.68681

 Alpha  occ. eigenvalues --  -19.17812 -14.40472 -14.40313 -14.35981 -14.34854
 Alpha  occ. eigenvalues --  -14.31412 -10.28788 -10.25444 -10.24743 -10.24691
 Alpha  occ. eigenvalues --  -10.24430 -10.24386 -10.24359 -10.23005 -10.22806
 Alpha  occ. eigenvalues --  -10.21905 -10.21412 -10.21344 -10.21143 -10.20788
 Alpha  occ. eigenvalues --  -10.20572 -10.20046 -10.20039 -10.19962 -10.19905
 Alpha  occ. eigenvalues --  -10.19661 -10.19491 -10.19482 -10.19349 -10.18899
 Alpha  occ. eigenvalues --  -10.18769 -10.18375 -10.17872 -10.17708 -10.17652
 Alpha  occ. eigenvalues --  -10.17463 -10.17392 -10.17075 -10.16907  -1.06899
 Alpha  occ. eigenvalues --   -1.06343  -0.99423  -0.97114  -0.91649  -0.91177
 Alpha  occ. eigenvalues --   -0.86020  -0.85336  -0.84540  -0.83708  -0.82845
 Alpha  occ. eigenvalues --   -0.77926  -0.76843  -0.75933  -0.75424  -0.75213
 Alpha  occ. eigenvalues --   -0.74029  -0.73379  -0.73154  -0.72730  -0.71596
 Alpha  occ. eigenvalues --   -0.69927  -0.66375  -0.64965  -0.63870  -0.63274
 Alpha  occ. eigenvalues --   -0.62502  -0.61856  -0.60803  -0.59794  -0.59016
 Alpha  occ. eigenvalues --   -0.58554  -0.57640  -0.56753  -0.54590  -0.54155
 Alpha  occ. eigenvalues --   -0.52463  -0.51376  -0.50079  -0.49899  -0.49587
 Alpha  occ. eigenvalues --   -0.49250  -0.49079  -0.48891  -0.48120  -0.47287
 Alpha  occ. eigenvalues --   -0.47122  -0.46235  -0.46057  -0.45486  -0.45206
 Alpha  occ. eigenvalues --   -0.44698  -0.44600  -0.43921  -0.43363  -0.43214
 Alpha  occ. eigenvalues --   -0.42913  -0.42780  -0.41881  -0.41281  -0.40688
 Alpha  occ. eigenvalues --   -0.40211  -0.39695  -0.38736  -0.38660  -0.38285
 Alpha  occ. eigenvalues --   -0.38054  -0.37708  -0.37250  -0.36955  -0.36878
 Alpha  occ. eigenvalues --   -0.36098  -0.35909  -0.35748  -0.35329  -0.35001
 Alpha  occ. eigenvalues --   -0.34711  -0.33516  -0.33053  -0.32184  -0.31059
 Alpha  occ. eigenvalues --   -0.29859  -0.27886  -0.27836  -0.26614  -0.25923
 Alpha  occ. eigenvalues --   -0.25706  -0.24444  -0.24106  -0.22471  -0.21389
 Alpha  occ. eigenvalues --   -0.20559  -0.19249  -0.16418
 Alpha virt. eigenvalues --   -0.02103  -0.01816  -0.01002  -0.00808  -0.00081
 Alpha virt. eigenvalues --    0.01087   0.02050   0.02348   0.02976   0.03963
 Alpha virt. eigenvalues --    0.07149   0.07910   0.08597   0.08911   0.10102

 Mulliken charges:
               1
     1  C   -0.315386
     2  N   -0.517116
     3  C    0.056381
     4  N   -0.667397
     5  C    0.327536
     6  C   -0.181364
     7  C   -0.144339
     8  C   -0.176253
     9  C    0.353118
    10  O   -0.569741
    11  C    0.269547
    12  C   -0.167076
    13  C   -0.164877
    14  C   -0.150722
    15  C    0.323546
    16  C    0.192856
    17  N   -0.597982
    18  C    0.795857
    19  N   -0.757766
    20  C    0.288637
    21  C   -0.140374
    22  C   -0.143790
    23  C   -0.120762
    24  C   -0.143682
    25  C   -0.164626
    26  C    0.316216
    27  C   -0.183377
    28  C   -0.140724
    29  C   -0.148863
    30  C   -0.161345
    31  C    0.320398
    32  N   -0.742823
    33  C   -0.240161
    34  C    0.345247
    35  C   -0.191628
    36  C   -0.148577
    37  C   -0.142702
    38  C   -0.203104
    39  C    0.300765
    40  H    0.169468
    41  H    0.144479
    42  H    0.158379
    43  H    0.152647
    44  H    0.131726
    45  H    0.126448
    46  H    0.130833
    47  H    0.144972
    48  H    0.141384
    49  H    0.130350
    50  H    0.134482
    51  H    0.175227
    52  H    0.141511
    53  H    0.134599
    54  H    0.136351
    55  H    0.148759
    56  H    0.153145
    57  H    0.135422
    58  H    0.135605
    59  H    0.149501
    60  H    0.156446
    61  H    0.146042
    62  H    0.120414
    63  H    0.118448
    64  H    0.119818
 Sum of Mulliken charges =  -0.00000

 Dipole moment (field-independent basis, Debye):
    X=              2.1054    Y=             -1.4800    Z=              1.6624  Tot=              3.0638
 Quadrupole moment (field-independent basis, Debye-Ang):
   XX=           -166.5710   YY=           -215.1040   ZZ=           -212.4419
   XY=              2.1904   XZ=             -9.5623   YZ=             -9.0530

 Normal termination of Gaussian 16 at Sat Nov  5 10:53:49 2022.
