 Gaussian 16, Revision B.01,
 Gaussian 16:  ES64L-G16RevB.01 20-Dec-2017

 -----------------------------
 #p b3lyp/6-31g(d) opt SCF=XQC
 -----------------------------

 ------------------------------
 Gaussian input prepared by ASE
 ------------------------------
 Symbolic Z-matrix:
 Charge =  0 Multiplicity = 1

 SCF Done:  E(RB3LYP) =  -1911.42209854     A.U. after   16 cycles
 SCF Done:  E(RB3LYP) =  -1911.43102380     A.U. after   12 cycles
 SCF Done:  E(RB3LYP) =  -1911.43129141     A.U. after   12 cycles
 SCF Done:  E(RB3LYP) =  -1911.43135093     A.U. after   11 cycles
 SCF Done:  E(RB3LYP) =  -1911.43139998     A.U. after   10 cycles
 SCF Done:  E(RB3LYP) =  -1911.43140303     A.U. after   10 cycles
 SCF Done:  E(RB3LYP) =  -1911.43140680     A.U. after    8 cycles
 SCF Done:  E(RB3LYP) =  -1911.43140724     A.U. after    7 cycles
 SCF Done:  E(RB3LYP) =  -1911.43140734     A.U. after    6 cycles
 Optimization completed.
    -- Stationary point found.

                         Standard orientation:
 ---------------------------------------------------------------------
 Center     Atomic      Atomic             Coordinates (Angstroms)
 Number     Number       Type             X           Y           Z
 ---------------------------------------------------------------------
      1          6           0        8.745820    2.935987    2.763180
      2          6           0        7.694847    3.345893    1.938690
      3          6           0        7.039632    2.422055    1.128418
      4          6           0        7.439331    1.076165    1.112353
      5          6           0        6.696005    0.108988    0.258767
      6          7           0        5.379141    0.230334    0.261595
      7          6           0        4.635021   -0.662903   -0.452701
      8          6           0        3.163463   -0.475027   -0.415749
      9          6           0        2.587185    0.545063    0.356597
     10          6           0        1.206706    0.715015    0.394030
     11          6           0        0.373511   -0.125488   -0.355395
     12          7           0       -1.034487    0.053616   -0.325527
     13          6           0       -1.713199    1.241543   -0.620464
     14          6           0       -1.206386    2.477332   -1.027136
     15          6           0       -2.136601    3.470211   -1.321898
     16          6           0       -3.517128    3.228750   -1.276835
     17          6           0       -4.039118    1.976231   -0.918443
     18          6           0       -5.490310    1.671449   -1.014911
     19          6           0       -6.311509    2.515885   -1.784771
     20          6           0       -7.704748    2.412659   -1.828523
     21          6           0       -8.352804    1.452009   -1.066223
     22          6           0       -7.574728    0.557020   -0.328110
     23          6           0       -7.958882   -0.481828    0.599574
     24          6           0       -9.202442   -0.894866    1.089186
     25          6           0       -9.248604   -1.866382    2.083268
     26          6           0       -8.058375   -2.399662    2.602621
     27          6           0       -6.811248   -2.006664    2.120514
     28          6           0       -6.767501   -1.061433    1.086936
     29          7           0       -5.661883   -0.458983    0.448907
     30          6           0       -4.396302   -1.090902    0.311313
     31          6           0       -4.210738   -2.453458    0.573290
     32          6           0       -2.925553   -3.019133    0.585532
     33          6           0       -1.782487   -2.271121    0.329907
     34          6           0       -1.978740   -0.932051   -0.019741
     35          6           0       -3.268295   -0.351841   -0.076732
     36          6           0       -3.105355    1.007446   -0.514983
     37          6           0       -6.156614    0.608771   -0.353036
     38          6           0        0.941522   -1.142280   -1.136156
     39          6           0        2.320194   -1.317744   -1.157566
     40          7           0        5.115669   -1.679473   -1.148243
     41          6           0        6.468164   -1.802355   -1.213116
     42          6           0        7.020011   -2.849623   -1.996799
     43          6           0        8.384581   -2.968303   -2.131876
     44          6           0        9.252535   -2.043768   -1.502064
     45          6           0        8.744415   -1.028210   -0.720645
     46          6           0        7.343507   -0.897946   -0.534660
     47          6           0        8.490270    0.671892    1.951069
     48          6           0        9.135172    1.596010    2.773578
     49          1           0        9.252969    3.656172    3.399515
     50          1           0        7.382825    4.386742    1.930840
     51          1           0        6.212590    2.729477    0.496730
     52          1           0        3.234944    1.189311    0.939844
     53          1           0        0.765744    1.487708    1.016039
     54          1           0       -0.140571    2.656339   -1.114879
     55          1           0       -1.785477    4.455541   -1.615864
     56          1           0       -4.186772    4.043878   -1.525438
     57          1           0       -5.839967    3.292066   -2.376030
     58          1           0       -8.273124    3.107815   -2.439683
     59          1           0       -9.437159    1.390933   -1.039029
     60          1           0      -10.117437   -0.447067    0.710349
     61          1           0      -10.205584   -2.196350    2.477265
     62          1           0       -8.103424   -3.127683    3.408071
     63          1           0       -5.907833   -2.403263    2.566219
     64          1           0       -5.061144   -3.090857    0.769708
     65          1           0       -2.828198   -4.075746    0.819164
     66          1           0       -0.792467   -2.707765    0.391821
     67          1           0        0.297688   -1.779609   -1.734057
     68          1           0        2.765553   -2.100988   -1.760646
     69          1           0        6.331113   -3.528406   -2.489211
     70          1           0        8.802655   -3.766302   -2.739594
     71          1           0       10.325930   -2.132177   -1.643509
     72          1           0        9.414235   -0.310581   -0.260750
     73          1           0        8.781176   -0.373529    1.986435
     74          1           0        9.937310    1.265564    3.427847
 ---------------------------------------------------------------------

 The electronic state is 1-A.
 Alpha  occ. eigenvalues --  -14.38379 -14.38338 -14.33675 -14.33260 -10.26284
 Alpha  occ. eigenvalues --  -10.25578 -10.23964 -10.23899 -10.23643 -10.22869
 Alpha  occ. eigenvalues --  -10.22671 -10.22457 -10.22156 -10.21504 -10.20995
 Alpha  occ. eigenvalues --  -10.20945 -10.20843 -10.20624 -10.20362 -10.20207
 Alpha  occ. eigenvalues --  -10.20202 -10.20108 -10.20041 -10.20032 -10.20000
 Alpha  occ. eigenvalues --  -10.19973 -10.19943 -10.19702 -10.19697 -10.19469
 Alpha  occ. eigenvalues --  -10.19449 -10.18955 -10.18832 -10.18791 -10.18759
 Alpha  occ. eigenvalues --  -10.18744 -10.18689 -10.18679 -10.18668 -10.18558
 Alpha  occ. eigenvalues --  -10.18554 -10.18517 -10.18501 -10.18307 -10.18114
 Alpha  occ. eigenvalues --  -10.18094 -10.18088 -10.18034  -0.99227  -0.98746
 Alpha  occ. eigenvalues --   -0.98144  -0.89975  -0.87530  -0.86768  -0.86102
 Alpha  occ. eigenvalues --   -0.85622  -0.84979  -0.83651  -0.83367  -0.79742
 Alpha  occ. eigenvalues --   -0.78573  -0.78248  -0.76987  -0.76397  -0.75765
 Alpha  occ. eigenvalues --   -0.75398  -0.75224  -0.74737  -0.73562  -0.72819
 Alpha  occ. eigenvalues --   -0.72229  -0.70803  -0.69983  -0.67488  -0.66223
 Alpha  occ. eigenvalues --   -0.65093  -0.63051  -0.62521  -0.62121  -0.61927
 Alpha  occ. eigenvalues --   -0.61390  -0.60875  -0.59582  -0.58995  -0.58918
 Alpha  occ. eigenvalues --   -0.58595  -0.57012  -0.55769  -0.54650  -0.54069
 Alpha  occ. eigenvalues --   -0.53101  -0.52480  -0.52278  -0.51072  -0.50597
 Alpha  occ. eigenvalues --   -0.49660  -0.49207  -0.48463  -0.48247  -0.46845
 Alpha  occ. eigenvalues --   -0.46525  -0.46158  -0.46021  -0.45917  -0.45411
 Alpha  occ. eigenvalues --   -0.45255  -0.44751  -0.44539  -0.44403  -0.43776
 Alpha  occ. eigenvalues --   -0.43540  -0.43316  -0.42895  -0.42744  -0.42638
 Alpha  occ. eigenvalues --   -0.42455  -0.42085  -0.41481  -0.41151  -0.41075
 Alpha  occ. eigenvalues --   -0.40537  -0.38928  -0.38326  -0.38075  -0.37730
 Alpha  occ. eigenvalues --   -0.37478  -0.37205  -0.36690  -0.36539  -0.36393
 Alpha  occ. eigenvalues --   -0.36187  -0.36009  -0.35524  -0.35448  -0.35019
 Alpha  occ. eigenvalues --   -0.34938  -0.34849  -0.34546  -0.33486  -0.33272
 Alpha  occ. eigenvalues --   -0.32796  -0.32723  -0.31307  -0.30419  -0.28720
 Alpha  occ. eigenvalues --   -0.28467  -0.26920  -0.26433  -0.26398  -0.26053
 Alpha  occ. eigenvalues --   -0.25799  -0.25460  -0.24703  -0.24159  -0.22976
 Alpha  occ. eigenvalues --   -0.22132  -0.21147  -0.19434  -0.18090
 Alpha virt. eigenvalues --   -0.07494  -0.04952  -0.04386  -0.02555  -0.01754
 Alpha virt. eigenvalues --   -0.01054  -0.00736  -0.00271   0.00155   0.01610
 Alpha virt. eigenvalues --    0.02212   0.03142   0.03909   0.04647   0.06202

 Mulliken charges:
               1
     1  C   -0.120213
     2  C   -0.137474
     3  C   -0.143236
     4  C    0.100971
     5  C    0.188407
     6  N   -0.536060
     7  C    0.424211
     8  C    0.090691
     9  C   -0.183582
    10  C   -0.162972
    11  C    0.284169
    12  N   -0.749767
    13  C    0.321586
    14  C   -0.175198
    15  C   -0.139767
    16  C   -0.222101
    17  C    0.107025
    18  C    0.120939
    19  C   -0.214690
    20  C   -0.141978
    21  C   -0.193481
    22  C    0.070082
    23  C    0.046279
    24  C   -0.193052
    25  C   -0.143735
    26  C   -0.142538
    27  C   -0.177263
    28  C    0.325536
    29  N   -0.776018
    30  C    0.283801
    31  C   -0.206870
    32  C   -0.150990
    33  C   -0.175166
    34  C    0.311181
    35  C    0.000859
    36  C   -0.021006
    37  C    0.210622
    38  C   -0.162477
    39  C   -0.178289
    40  N   -0.559603
    41  C    0.266877
    42  C   -0.153180
    43  C   -0.128912
    44  C   -0.136487
    45  C   -0.199331
    46  C    0.113106
    47  C   -0.172683
    48  C   -0.138202
    49  H    0.136514
    50  H    0.137555
    51  H    0.150013
    52  H    0.164698
    53  H    0.151857
    54  H    0.142219
    55  H    0.127836
    56  H    0.129658
    57  H    0.131895
    58  H    0.126350
    59  H    0.130379
    60  H    0.130097
    61  H    0.125509
    62  H    0.127670
    63  H    0.151059
    64  H    0.149713
    65  H    0.130549
    66  H    0.142828
    67  H    0.152782
    68  H    0.162928
    69  H    0.148457
    70  H    0.141932
    71  H    0.139583
    72  H    0.155235
    73  H    0.145992
    74  H    0.136671
 Sum of Mulliken charges =  -0.00000

 Dipole moment (field-independent basis, Debye):
    X=              5.3300    Y=              0.0263    Z=              0.1949  Tot=              5.3336
 Quadrupole moment (field-independent basis, Debye-Ang):
   XX=           -215.0879   YY=           -250.1187   ZZ=           -267.6697
   XY=             -0.4268   XZ=              3.1337   YZ=             -0.5568

 1\1\GINC-NODE60\FOpt\RB3LYP\6-31G(d)\C44H26N4\WYKGROUP\05-Nov-2022\0\\
 #p b3lyp/6-31g(d) opt SCF=XQC\\Gaussian input prepared by ASE\\0,1\C,8
 .8634234094,0.9203365469,-3.3436360631\C,7.7770982105,0.0465796425,-3.
 4374316468\C,7.0471058324,-0.2872831135,-2.299464511\C,7.4051812078,0.
 2297766504,-1.0441281053\C,6.5833792786,-0.1221071712,0.1464149999\N,5
 .2732534873,-0.1121590892,-0.0334024907\C,4.461262727,-0.3671332869,1.
 0331165415\C,3.00082106,-0.3465212839,0.7707622079\C,2.5026597604,-0.0
 333296394,-0.5031868668\C,1.132590927,-0.0089008605,-0.7446812339\C,0.

 Normal termination of Gaussian 16 at Sat Nov  5 01:32:55 2022.
