 Gaussian 16, Revision B.01,
 Gaussian 16:  ES64L-G16RevB.01 20-Dec-2017

 -------------------------------------------------------------------
 #p b3lyp/6-31g(d) 6D 10F nosymm GFInput td=(50-50,nstate=2) SCF=XQC
 -------------------------------------------------------------------

 ------------------------------
 Gaussian input prepared by ASE
 ------------------------------
 Symbolic Z-matrix:
 Charge =  0 Multiplicity = 1

                          Input orientation:
 ---------------------------------------------------------------------
 Center     Atomic      Atomic             Coordinates (Angstroms)
 Number     Number       Type             X           Y           Z
 ---------------------------------------------------------------------
      1          6           0        4.831035    2.718177   -2.344132
      2          6           0        5.150573    2.667147   -0.985832
      3          6           0        4.446189    1.829458   -0.122860
      4          6           0        3.415814    1.012134   -0.613400
      5          7           0        2.711088    0.138367    0.261292
      6          6           0        3.440538   -0.618288    1.223100
      7          6           0        4.629780   -1.268729    0.859381
      8          6           0        5.350911   -1.994485    1.805792
      9          6           0        4.891679   -2.098982    3.120372
     10          6           0        3.704030   -1.459762    3.482488
     11          6           0        2.986338   -0.716070    2.547592
     12          6           0        1.300417    0.027813    0.185099
     13          6           0        0.529139    1.163465   -0.095820
     14          6           0       -0.867672    1.058022   -0.164358
     15          6           0       -1.512838   -0.182394    0.090662
     16          6           0       -0.700901   -1.315734    0.353861
     17          6           0        0.689481   -1.217508    0.398574
     18          7           0       -1.322908   -2.566899    0.568718
     19          6           0       -0.729987   -3.758538    0.042559
     20          6           0       -0.021676   -3.745738   -1.168520
     21          6           0        0.551349   -4.912699   -1.667850
     22          6           0        0.392982   -6.123417   -0.990341
     23          6           0       -0.361502   -6.159611    0.179849
     24          6           0       -0.914705   -4.985247    0.698567
     25         16           0       -1.873839   -5.018963    2.195366
     26          6           0       -3.071984   -3.777547    1.739138
     27          6           0       -4.380689   -3.891092    2.200812
     28          6           0       -5.283998   -2.842988    2.006803
     29          6           0       -4.873978   -1.703052    1.328081
     30          6           0       -3.574873   -1.570377    0.792969
     31          6           0       -2.665576   -2.634812    1.021055
     32          5           0       -3.021519   -0.285296    0.118504
     33          6           0       -3.778647    0.937026   -0.433217
     34          6           0       -5.155828    0.948842   -0.749985
     35          6           0       -5.807144    2.076451   -1.224884
     36          6           0       -5.072821    3.256843   -1.393356
     37          6           0       -3.712654    3.291579   -1.125903
     38          6           0       -3.042367    2.134254   -0.669376
     39          7           0       -1.649464    2.184551   -0.460950
     40          6           0       -0.979326    3.452964   -0.608156
     41          6           0       -0.459643    3.834184   -1.848276
     42          6           0        0.188956    5.062755   -1.980790
     43          6           0        0.317717    5.909908   -0.878074
     44          6           0       -0.202283    5.526333    0.359843
     45          6           0       -0.850191    4.297820    0.497012
     46          6           0        3.102622    1.058989   -1.981384
     47          6           0        3.800464    1.912485   -2.833588
     48          1           0        5.378785    3.376023   -3.012960
     49          1           0        5.945838    3.292711   -0.588820
     50          1           0        4.690311    1.801123    0.934294
     51          1           0        4.982445   -1.200783   -0.164923
     52          1           0        6.269736   -2.492767    1.507761
     53          1           0        5.451763   -2.672431    3.853491
     54          1           0        3.337038   -1.527955    4.503158
     55          1           0        2.070270   -0.210455    2.835755
     56          1           0        1.027003    2.109805   -0.250584
     57          1           0        1.299316   -2.086343    0.609308
     58          1           0        0.092045   -2.811837   -1.707094
     59          1           0        1.110164   -4.875039   -2.598701
     60          1           0        0.835271   -7.035752   -1.379831
     61          1           0       -0.530194   -7.097887    0.700430
     62          1           0       -4.677369   -4.785113    2.742131
     63          1           0       -6.293768   -2.918502    2.400480
     64          1           0       -5.566027   -0.873763    1.228689
     65          1           0       -5.716754    0.026692   -0.635712
     66          1           0       -6.866738    2.046631   -1.462488
     67          1           0       -5.562194    4.158511   -1.753262
     68          1           0       -3.166806    4.212295   -1.287698
     69          1           0       -0.567097    3.165933   -2.697390
     70          1           0        0.594299    5.356493   -2.944955
     71          1           0        0.823398    6.865771   -0.983008
     72          1           0       -0.103161    6.182027    1.220435
     73          1           0       -1.258853    3.985997    1.453545
     74          1           0        2.312575    0.423193   -2.368136
     75          1           0        3.546617    1.934080   -3.890351
 ---------------------------------------------------------------------

 SCF Done:  E(RB3LYP) =  -2204.69573424     A.U. after   16 cycles

 Excitation energies and oscillator strengths:

 Excited state symmetry could not be determined.
 Excited State   1:      Triplet-?Sym    2.5330 eV  489.47 nm  f=0.0000  <S**2>=2.000
     161 ->162         0.68757
 This state for optimization and/or second-order correction.
 Total Energy, E(TD-HF/TD-DFT) =  -2204.60264638
 Copying the excited state density for this state as the 1-particle RhoCI density.

 Excited state symmetry could not be determined.
 Excited State   2:      Triplet-?Sym    2.7950 eV  443.60 nm  f=0.0000  <S**2>=2.000
     159 ->162        -0.18988
     160 ->162         0.60818
     160 ->169         0.11416

 Excited state symmetry could not be determined.
 Excited State   3:      Singlet-?Sym    2.9466 eV  420.77 nm  f=0.1826  <S**2>=0.000
     161 ->162         0.69946

 Excited state symmetry could not be determined.
 Excited State   4:      Singlet-?Sym    3.1887 eV  388.82 nm  f=0.2573  <S**2>=0.000
     160 ->162         0.69775

 Alpha  occ. eigenvalues --  -88.88498 -14.38024 -14.37679 -14.36461 -10.23623
 Alpha  occ. eigenvalues --  -10.23519 -10.23504 -10.23294 -10.23222 -10.23190
 Alpha  occ. eigenvalues --  -10.23132 -10.22966 -10.22768 -10.21990 -10.21568
 Alpha  occ. eigenvalues --  -10.20319 -10.20294 -10.20231 -10.20209 -10.20192
 Alpha  occ. eigenvalues --  -10.19465 -10.19232 -10.19202 -10.19148 -10.19146
 Alpha  occ. eigenvalues --  -10.19136 -10.19030 -10.18927 -10.18902 -10.18880
 Alpha  occ. eigenvalues --  -10.18833 -10.18794 -10.18786 -10.18674 -10.18627
 Alpha  occ. eigenvalues --  -10.18534 -10.18234 -10.18174 -10.18170 -10.18152
 Alpha  occ. eigenvalues --  -10.17723 -10.17592 -10.17587 -10.16575 -10.16172
 Alpha  occ. eigenvalues --  -10.15728  -7.94553  -6.70130  -5.91054  -5.90704
 Alpha  occ. eigenvalues --   -5.90049  -0.97642  -0.97218  -0.96326  -0.86455
 Alpha  occ. eigenvalues --   -0.86040  -0.85461  -0.85306  -0.84533  -0.83820
 Alpha  occ. eigenvalues --   -0.82296  -0.79596  -0.76837  -0.75902  -0.75769
 Alpha  occ. eigenvalues --   -0.75738  -0.75169  -0.75063  -0.74502  -0.74283
 Alpha  occ. eigenvalues --   -0.74041  -0.73364  -0.72243  -0.70663  -0.70315
 Alpha  occ. eigenvalues --   -0.67780  -0.64355  -0.63583  -0.62249  -0.62029
 Alpha  occ. eigenvalues --   -0.61977  -0.61561  -0.61020  -0.60234  -0.60097
 Alpha  occ. eigenvalues --   -0.59424  -0.58802  -0.57424  -0.56279  -0.55705
 Alpha  occ. eigenvalues --   -0.54237  -0.53788  -0.53289  -0.52744  -0.50933
 Alpha  occ. eigenvalues --   -0.50070  -0.49836  -0.48713  -0.48086  -0.47441
 Alpha  occ. eigenvalues --   -0.47374  -0.47212  -0.46806  -0.46383  -0.46005
 Alpha  occ. eigenvalues --   -0.45689  -0.45384  -0.45085  -0.44418  -0.44154
 Alpha  occ. eigenvalues --   -0.43601  -0.43409  -0.43315  -0.42957  -0.42700
 Alpha  occ. eigenvalues --   -0.42354  -0.42140  -0.41890  -0.41541  -0.40902
 Alpha  occ. eigenvalues --   -0.40498  -0.39860  -0.38900  -0.38548  -0.38060
 Alpha  occ. eigenvalues --   -0.37597  -0.37153  -0.37053  -0.36704  -0.36599
 Alpha  occ. eigenvalues --   -0.36514  -0.36361  -0.36259  -0.35796  -0.35725
 Alpha  occ. eigenvalues --   -0.35454  -0.34782  -0.34500  -0.34217  -0.34092
 Alpha  occ. eigenvalues --   -0.33041  -0.33014  -0.32215  -0.30067  -0.29516
 Alpha  occ. eigenvalues --   -0.29063  -0.28717  -0.26602  -0.26528  -0.26031
 Alpha  occ. eigenvalues --   -0.25786  -0.25522  -0.25054  -0.24946  -0.24688
 Alpha  occ. eigenvalues --   -0.24267  -0.24083  -0.22355  -0.19914  -0.18476
 Alpha  occ. eigenvalues --   -0.17840
 Alpha virt. eigenvalues --   -0.05039  -0.01837  -0.01679  -0.01606  -0.01073
 Alpha virt. eigenvalues --   -0.00886  -0.00505  -0.00406   0.00554   0.00701
 Alpha virt. eigenvalues --    0.00765   0.01289   0.03603   0.03853   0.04317

 Mulliken charges:
               1
     1  C   -0.127765
     2  C   -0.139889
     3  C   -0.160329
     4  C    0.274847
     5  N   -0.662216
     6  C    0.270652
     7  C   -0.159556
     8  C   -0.139953
     9  C   -0.126579
    10  C   -0.139259
    11  C   -0.155854
    12  C    0.314646
    13  C   -0.257558
    14  C    0.284868
    15  C   -0.001645
    16  C    0.252259
    17  C   -0.239808
    18  N   -0.674970
    19  C    0.274128
    20  C   -0.137729
    21  C   -0.146664
    22  C   -0.113517
    23  C   -0.177233
    24  C   -0.119735
    25  S    0.164336
    26  C   -0.115850
    27  C   -0.183666
    28  C   -0.104039
    29  C   -0.232232
    30  C    0.111497
    31  C    0.212719
    32  B    0.013645
    33  C    0.093559
    34  C   -0.220928
    35  C   -0.120601
    36  C   -0.141951
    37  C   -0.172588
    38  C    0.246499
    39  N   -0.681496
    40  C    0.182815
    41  C   -0.118395
    42  C   -0.138201
    43  C   -0.117543
    44  C   -0.142820
    45  C   -0.115004
    46  C   -0.155324
    47  C   -0.141116
    48  H    0.126700
    49  H    0.131338
    50  H    0.145091
    51  H    0.142651
    52  H    0.131174
    53  H    0.128443
    54  H    0.133900
    55  H    0.146602
    56  H    0.160356
    57  H    0.161154
    58  H    0.151093
    59  H    0.133684
    60  H    0.132362
    61  H    0.144943
    62  H    0.142955
    63  H    0.127847
    64  H    0.132275
    65  H    0.131384
    66  H    0.123514
    67  H    0.128969
    68  H    0.145664
    69  H    0.147397
    70  H    0.139656
    71  H    0.136933
    72  H    0.140263
    73  H    0.149659
    74  H    0.140307
    75  H    0.129228
 Sum of Mulliken charges =  -0.00000

 Dipole moment (field-independent basis, Debye):
    X=              2.1706    Y=              2.8444    Z=             -1.4982  Tot=              3.8790
 Quadrupole moment (field-independent basis, Debye-Ang):
   XX=           -260.9995   YY=           -249.3734   ZZ=           -263.0459
   XY=             -2.2663   XZ=             -3.0171   YZ=             -1.3357

 Normal termination of Gaussian 16 at Sat Nov  5 10:37:03 2022.
