 Gaussian 16, Revision B.01,
 Gaussian 16:  ES64L-G16RevB.01 20-Dec-2017

 -------------------------------------------------------------------
 #p b3lyp/6-31g(d) 6D 10F nosymm GFInput td=(50-50,nstate=2) SCF=XQC
 -------------------------------------------------------------------

 ------------------------------
 Gaussian input prepared by ASE
 ------------------------------
 Symbolic Z-matrix:
 Charge =  0 Multiplicity = 1

                          Input orientation:
 ---------------------------------------------------------------------
 Center     Atomic      Atomic             Coordinates (Angstroms)
 Number     Number       Type             X           Y           Z
 ---------------------------------------------------------------------
      1          7           0        1.257114    1.724738   -8.738972
      2          6           0        0.426525    1.413546   -7.986480
      3          6           0       -0.600829    1.029030   -7.061212
      4          6           0       -1.950312    1.100058   -7.443096
      5          6           0       -2.934367    0.730955   -6.530290
      6          6           0       -2.584810    0.295062   -5.252617
      7          6           0       -1.238994    0.218761   -4.854480
      8          6           0       -0.871021   -0.245531   -3.490626
      9          6           0       -1.628996    0.141958   -2.376786
     10          6           0       -1.301575   -0.290161   -1.084116
     11          6           0       -2.115791    0.132151    0.085410
     12          6           0       -2.629016    1.430569    0.178384
     13          6           0       -3.412303    1.788911    1.285948
     14          6           0       -3.994806    3.151379    1.425513
     15          6           0       -4.213250    3.980377    0.313293
     16          6           0       -4.754532    5.255617    0.468939
     17          6           0       -5.088367    5.725942    1.739972
     18          6           0       -4.883219    4.907289    2.853031
     19          6           0       -4.345462    3.631986    2.697881
     20          7           0       -3.651883    0.927956    2.288383
     21          6           0       -3.150037   -0.316310    2.229171
     22          6           0       -3.460821   -1.215041    3.373764
     23          6           0       -2.661224   -2.328877    3.677087
     24          6           0       -2.974362   -3.160310    4.751423
     25          6           0       -4.092875   -2.893365    5.542549
     26          6           0       -4.891190   -1.783672    5.255181
     27          6           0       -4.576912   -0.950449    4.184377
     28          6           0       -2.395235   -0.754931    1.130743
     29          6           0       -0.196506   -1.135415   -0.914282
     30          6           0        0.578906   -1.519518   -2.012664
     31          7           0        1.702848   -2.364667   -1.826057
     32          6           0        1.931188   -3.583194   -2.480960
     33          6           0        1.135570   -4.254712   -3.412747
     34          6           0        1.595406   -5.478454   -3.895949
     35          6           0        2.813560   -6.027266   -3.460733
     36          6           0        3.594611   -5.360726   -2.521255
     37          6           0        3.155636   -4.129971   -2.019038
     38          6           0        3.689400   -3.201654   -1.045949
     39          6           0        4.853742   -3.169086   -0.270579
     40          6           0        5.084905   -2.086463    0.568595
     41          6           0        4.172661   -1.008311    0.655944
     42          6           0        4.448862    0.137902    1.558343
     43          6           0        5.780056    0.625093    1.720168
     44          6           0        6.055060    1.686512    2.548161
     45          6           0        5.023202    2.337274    3.276066
     46          6           0        5.271401    3.435926    4.140470
     47          6           0        4.241742    4.036604    4.830025
     48          6           0        2.914050    3.563117    4.685676
     49          6           0        2.641229    2.500198    3.854561
     50          6           0        3.680879    1.860056    3.125881
     51          6           0        3.432403    0.761949    2.263284
     52          6           0        3.003688   -1.031431   -0.118740
     53          6           0        2.769222   -2.128526   -0.947083
     54          6           0        0.244759   -1.071656   -3.294667
     55          6           0       -0.250960    0.591984   -5.774936
     56          1           0       -2.211655    1.439349   -8.439930
     57          1           0       -3.980628    0.774145   -6.818193
     58          1           0       -3.362972   -0.013666   -4.560754
     59          1           0       -2.487582    0.791190   -2.516370
     60          1           0       -2.384531    2.163926   -0.581640
     61          1           0       -3.984771    3.622249   -0.686298
     62          1           0       -4.922208    5.879019   -0.405294
     63          1           0       -5.508855    6.720598    1.861528
     64          1           0       -5.141185    5.264863    3.846449
     65          1           0       -4.185091    2.989218    3.556380
     66          1           0       -1.771366   -2.536936    3.090123
     67          1           0       -2.338209   -4.012565    4.974776
     68          1           0       -4.337642   -3.542182    6.379252
     69          1           0       -5.763360   -1.567717    5.866723
     70          1           0       -5.189859   -0.085525    3.955920
     71          1           0       -2.064480   -1.785492    1.069009
     72          1           0        0.075800   -1.487093    0.075063
     73          1           0        0.188435   -3.844699   -3.747341
     74          1           0        0.995015   -6.017912   -4.623343
     75          1           0        3.144629   -6.981940   -3.859147
     76          1           0        4.531534   -5.791115   -2.177575
     77          1           0        5.571239   -3.983873   -0.320392
     78          1           0        5.973888   -2.076501    1.191596
     79          1           0        6.582649    0.162242    1.153526
     80          1           0        7.075495    2.049522    2.647872
     81          1           0        6.291927    3.795988    4.249392
     82          1           0        4.443894    4.876546    5.489160
     83          1           0        2.109591    4.044404    5.235262
     84          1           0        1.622579    2.136031    3.742586
     85          1           0        2.413316    0.391754    2.182272
     86          1           0        2.317737   -0.191748   -0.094721
     87          1           0        0.851588   -1.383330   -4.138327
     88          1           0        0.796115    0.568050   -5.491475
 ---------------------------------------------------------------------

 SCF Done:  E(RB3LYP) =  -2165.73579323     A.U. after   16 cycles

 Excitation energies and oscillator strengths:

 Excited state symmetry could not be determined.
 Excited State   1:      Triplet-?Sym    2.5764 eV  481.23 nm  f=0.0000  <S**2>=2.000
     179 ->192         0.10914
     181 ->187         0.10225
     181 ->188        -0.16232
     181 ->189        -0.28314
     183 ->187        -0.31422
     183 ->188         0.46735
     183 ->189         0.14568
 This state for optimization and/or second-order correction.
 Total Energy, E(TD-HF/TD-DFT) =  -2165.64111210
 Copying the excited state density for this state as the 1-particle RhoCI density.

 Excited state symmetry could not be determined.
 Excited State   2:      Triplet-?Sym    2.9547 eV  419.62 nm  f=0.0000  <S**2>=2.000
     172 ->185        -0.10621
     176 ->184         0.11700
     178 ->184        -0.20319
     178 ->185        -0.17040
     178 ->190         0.11364
     180 ->186        -0.46660
     180 ->187         0.20564
     180 ->188         0.12201

 Excited state symmetry could not be determined.
 Excited State   3:      Singlet-?Sym    3.3025 eV  375.43 nm  f=0.0045  <S**2>=0.000
     182 ->184         0.61648
     183 ->184         0.31281

 Excited state symmetry could not be determined.
 Excited State   4:      Singlet-?Sym    3.3663 eV  368.31 nm  f=0.0003  <S**2>=0.000
     182 ->184        -0.31403
     183 ->184         0.61678
     183 ->185         0.11477

 Alpha  occ. eigenvalues --  -14.39041 -14.33953 -14.33146 -10.25470 -10.24768
 Alpha  occ. eigenvalues --  -10.23913 -10.23893 -10.23229 -10.23084 -10.23084
 Alpha  occ. eigenvalues --  -10.23081 -10.22786 -10.22629 -10.22598 -10.22570
 Alpha  occ. eigenvalues --  -10.22550 -10.22185 -10.22044 -10.21515 -10.21453
 Alpha  occ. eigenvalues --  -10.21422 -10.20393 -10.20376 -10.20163 -10.20133
 Alpha  occ. eigenvalues --  -10.20060 -10.19938 -10.19612 -10.19607 -10.19542
 Alpha  occ. eigenvalues --  -10.19505 -10.19455 -10.19401 -10.19398 -10.19393
 Alpha  occ. eigenvalues --  -10.19370 -10.19368 -10.19313 -10.19301 -10.19291
 Alpha  occ. eigenvalues --  -10.19254 -10.19246 -10.19210 -10.19141 -10.19004
 Alpha  occ. eigenvalues --  -10.18978 -10.18937 -10.18919 -10.18902 -10.18894
 Alpha  occ. eigenvalues --  -10.18867 -10.18856 -10.18849 -10.18634 -10.18621
 Alpha  occ. eigenvalues --   -0.99763  -0.95202  -0.91208  -0.89699  -0.88137
 Alpha  occ. eigenvalues --   -0.87323  -0.86118  -0.85574  -0.85288  -0.85045
 Alpha  occ. eigenvalues --   -0.83147  -0.82190  -0.80546  -0.79735  -0.78833
 Alpha  occ. eigenvalues --   -0.78484  -0.77094  -0.76251  -0.75730  -0.75456
 Alpha  occ. eigenvalues --   -0.74938  -0.74713  -0.74552  -0.74481  -0.72727
 Alpha  occ. eigenvalues --   -0.72344  -0.72066  -0.70436  -0.66922  -0.66440
 Alpha  occ. eigenvalues --   -0.65617  -0.65179  -0.64523  -0.63230  -0.62162
 Alpha  occ. eigenvalues --   -0.61862  -0.60810  -0.60762  -0.60468  -0.60289
 Alpha  occ. eigenvalues --   -0.59407  -0.59060  -0.57982  -0.57678  -0.56967
 Alpha  occ. eigenvalues --   -0.55860  -0.53790  -0.52638  -0.52572  -0.52260
 Alpha  occ. eigenvalues --   -0.51504  -0.51446  -0.51067  -0.50754  -0.50389
 Alpha  occ. eigenvalues --   -0.49554  -0.49363  -0.49128  -0.48112  -0.47796
 Alpha  occ. eigenvalues --   -0.47522  -0.46446  -0.46005  -0.45720  -0.45401
 Alpha  occ. eigenvalues --   -0.44941  -0.44810  -0.44592  -0.44139  -0.43951
 Alpha  occ. eigenvalues --   -0.43844  -0.43536  -0.43395  -0.43084  -0.42573
 Alpha  occ. eigenvalues --   -0.42503  -0.42359  -0.42142  -0.41989  -0.41476
 Alpha  occ. eigenvalues --   -0.41233  -0.41159  -0.41079  -0.40366  -0.39962
 Alpha  occ. eigenvalues --   -0.39637  -0.39221  -0.38668  -0.38301  -0.38002
 Alpha  occ. eigenvalues --   -0.37852  -0.37373  -0.37166  -0.36783  -0.36168
 Alpha  occ. eigenvalues --   -0.36013  -0.35996  -0.35711  -0.35497  -0.35219
 Alpha  occ. eigenvalues --   -0.34766  -0.34659  -0.34632  -0.34225  -0.34082
 Alpha  occ. eigenvalues --   -0.33631  -0.33344  -0.33298  -0.32731  -0.32236
 Alpha  occ. eigenvalues --   -0.31380  -0.29702  -0.29361  -0.28687  -0.27802
 Alpha  occ. eigenvalues --   -0.27434  -0.26460  -0.26184  -0.25687  -0.25328
 Alpha  occ. eigenvalues --   -0.25242  -0.25127  -0.24479  -0.24371  -0.22654
 Alpha  occ. eigenvalues --   -0.22043  -0.20525  -0.20245
 Alpha virt. eigenvalues --   -0.06448  -0.05866  -0.04903  -0.04740  -0.04714
 Alpha virt. eigenvalues --   -0.02790  -0.02566  -0.00872  -0.00533  -0.00249
 Alpha virt. eigenvalues --   -0.00170   0.00192   0.02138   0.02896   0.03194

 Mulliken charges:
               1
     1  N   -0.474937
     2  C    0.239696
     3  C    0.132031
     4  C   -0.134628
     5  C   -0.137274
     6  C   -0.161764
     7  C    0.082666
     8  C    0.083220
     9  C   -0.220858
    10  C    0.085120
    11  C    0.117447
    12  C   -0.233102
    13  C    0.259587
    14  C    0.096765
    15  C   -0.175336
    16  C   -0.137759
    17  C   -0.122084
    18  C   -0.135261
    19  C   -0.159543
    20  N   -0.563517
    21  C    0.258596
    22  C    0.096311
    23  C   -0.176264
    24  C   -0.137891
    25  C   -0.122130
    26  C   -0.135449
    27  C   -0.159199
    28  C   -0.232280
    29  C   -0.205064
    30  C    0.285837
    31  N   -0.752317
    32  C    0.314549
    33  C   -0.177660
    34  C   -0.140717
    35  C   -0.144086
    36  C   -0.196271
    37  C    0.058075
    38  C    0.065920
    39  C   -0.201296
    40  C   -0.197061
    41  C    0.089851
    42  C    0.087445
    43  C   -0.176007
    44  C   -0.199442
    45  C    0.140366
    46  C   -0.192656
    47  C   -0.134724
    48  C   -0.137200
    49  C   -0.189995
    50  C    0.138849
    51  C   -0.257754
    52  C   -0.237484
    53  C    0.318591
    54  C   -0.206892
    55  C   -0.188140
    56  H    0.162732
    57  H    0.150552
    58  H    0.149928
    59  H    0.141362
    60  H    0.147965
    61  H    0.125217
    62  H    0.131366
    63  H    0.132073
    64  H    0.132905
    65  H    0.156520
    66  H    0.128863
    67  H    0.132977
    68  H    0.132039
    69  H    0.132589
    70  H    0.155682
    71  H    0.148845
    72  H    0.158284
    73  H    0.138402
    74  H    0.129774
    75  H    0.127432
    76  H    0.132543
    77  H    0.133757
    78  H    0.130946
    79  H    0.133645
    80  H    0.130801
    81  H    0.129565
    82  H    0.129940
    83  H    0.131372
    84  H    0.132725
    85  H    0.128702
    86  H    0.145836
    87  H    0.161270
    88  H    0.166509
 Sum of Mulliken charges =  -0.00000

 Dipole moment (field-independent basis, Debye):
    X=             -3.4431    Y=             -0.8646    Z=              1.9852  Tot=              4.0674
 Quadrupole moment (field-independent basis, Debye-Ang):
   XX=           -296.1361   YY=           -296.2580   ZZ=           -334.4081
   XY=            -10.9563   XZ=             28.2910   YZ=             13.2384

 Normal termination of Gaussian 16 at Sat Nov  5 11:37:49 2022.
