 Gaussian 16, Revision B.01,
 Gaussian 16:  ES64L-G16RevB.01 20-Dec-2017

 -----------------------------
 #p b3lyp/6-31g(d) opt SCF=XQC
 -----------------------------

 ------------------------------
 Gaussian input prepared by ASE
 ------------------------------
 Symbolic Z-matrix:
 Charge =  0 Multiplicity = 1

 SCF Done:  E(RB3LYP) =  -2204.68285544     A.U. after   16 cycles
 SCF Done:  E(RB3LYP) =  -2204.69452815     A.U. after   13 cycles
 SCF Done:  E(RB3LYP) =  -2204.69546481     A.U. after   12 cycles
 SCF Done:  E(RB3LYP) =  -2204.69566283     A.U. after   12 cycles
 SCF Done:  E(RB3LYP) =  -2204.69571186     A.U. after   10 cycles
 SCF Done:  E(RB3LYP) =  -2204.69572497     A.U. after   10 cycles
 SCF Done:  E(RB3LYP) =  -2204.69572961     A.U. after   10 cycles
 SCF Done:  E(RB3LYP) =  -2204.69573115     A.U. after    8 cycles
 SCF Done:  E(RB3LYP) =  -2204.69573176     A.U. after    7 cycles
 SCF Done:  E(RB3LYP) =  -2204.69573220     A.U. after    8 cycles
 SCF Done:  E(RB3LYP) =  -2204.69573231     A.U. after    7 cycles
 SCF Done:  E(RB3LYP) =  -2204.69573235     A.U. after    6 cycles
 Optimization completed.
    -- Stationary point found.

                         Standard orientation:
 ---------------------------------------------------------------------
 Center     Atomic      Atomic             Coordinates (Angstroms)
 Number     Number       Type             X           Y           Z
 ---------------------------------------------------------------------
      1          6           0       -5.650637   -2.387074    1.666083
      2          6           0       -5.482414   -2.889608    0.374244
      3          6           0       -4.235931   -2.843399   -0.247643
      4          6           0       -3.128021   -2.305355    0.425682
      5          7           0       -1.849150   -2.278818   -0.198000
      6          6           0       -1.402289   -3.425811   -0.915231
      7          6           0       -1.571968   -4.710029   -0.375180
      8          6           0       -1.149475   -5.832043   -1.085833
      9          6           0       -0.537014   -5.692776   -2.333002
     10          6           0       -0.359292   -4.415328   -2.868523
     11          6           0       -0.795847   -3.288933   -2.173655
     12          6           0       -1.032533   -1.123615   -0.116364
     13          6           0       -1.621472    0.147226   -0.156414
     14          6           0       -0.814691    1.292065   -0.083302
     15          6           0        0.600041    1.176659   -0.011739
     16          6           0        1.161845   -0.124911    0.045397
     17          6           0        0.359217   -1.264326   -0.002927
     18          7           0        2.564526   -0.259364    0.158878
     19          6           0        3.118428   -1.284911    0.989448
     20          6           0        2.472748   -1.697828    2.164684
     21          6           0        3.022640   -2.698067    2.962575
     22          6           0        4.248388   -3.276204    2.626073
     23          6           0        4.928736   -2.829649    1.495755
     24          6           0        4.366531   -1.845460    0.677509
     25         16           0        5.223303   -1.272970   -0.771518
     26          6           0        4.733993    0.440623   -0.676735
     27          6           0        5.615993    1.426398   -1.111555
     28          6           0        5.187350    2.752232   -1.214304
     29          6           0        3.887136    3.080891   -0.854218
     30          6           0        2.978541    2.124014   -0.353756
     31          6           0        3.424848    0.779708   -0.279478
     32          5           0        1.484481    2.403345   -0.033920
     33          6           0        0.758136    3.746749    0.164567
     34          6           0        1.404366    4.971507    0.446459
     35          6           0        0.716883    6.165586    0.597408
     36          6           0       -0.676643    6.161850    0.459527
     37          6           0       -1.362890    4.982478    0.212669
     38          6           0       -0.664933    3.760059    0.087559
     39          7           0       -1.393992    2.569612   -0.105987
     40          6           0       -2.821519    2.661622   -0.288547
     41          6           0       -3.677202    2.599244    0.814727
     42          6           0       -5.057449    2.687259    0.628182
     43          6           0       -5.582828    2.838422   -0.656869
     44          6           0       -4.725519    2.900215   -1.757401
     45          6           0       -3.344674    2.810939   -1.575351
     46          6           0       -3.298249   -1.808860    1.728057
     47          6           0       -4.551955   -1.843161    2.335292
     48          1           0       -6.624745   -2.420102    2.145819
     49          1           0       -6.329205   -3.310314   -0.161803
     50          1           0       -4.111957   -3.224892   -1.256141
     51          1           0       -2.035393   -4.820950    0.600075
     52          1           0       -1.287762   -6.819531   -0.653294
     53          1           0       -0.201256   -6.568851   -2.880506
     54          1           0        0.111086   -4.291802   -3.840423
     55          1           0       -0.667181   -2.298601   -2.598570
     56          1           0       -2.695151    0.224456   -0.249310
     57          1           0        0.798481   -2.252763    0.032042
     58          1           0        1.528231   -1.242290    2.439526
     59          1           0        2.495908   -3.013653    3.858753
     60          1           0        4.681489   -4.053478    3.248924
     61          1           0        5.901875   -3.237936    1.238603
     62          1           0        6.624575    1.146118   -1.402286
     63          1           0        5.866055    3.513278   -1.589121
     64          1           0        3.547780    4.102478   -0.987370
     65          1           0        2.482558    4.966209    0.571090
     66          1           0        1.247411    7.087363    0.818657
     67          1           0       -1.238616    7.086943    0.561566
     68          1           0       -2.442268    5.007049    0.134026
     69          1           0       -3.255184    2.481876    1.808319
     70          1           0       -5.721227    2.636317    1.486671
     71          1           0       -6.657651    2.906283   -0.800221
     72          1           0       -5.130341    3.016602   -2.758876
     73          1           0       -2.665933    2.856736   -2.421759
     74          1           0       -2.443566   -1.399299    2.256985
     75          1           0       -4.665185   -1.456858    3.345045
 ---------------------------------------------------------------------

 The electronic state is 1-A.
 Alpha  occ. eigenvalues --  -88.88498 -14.38024 -14.37679 -14.36461 -10.23623
 Alpha  occ. eigenvalues --  -10.23519 -10.23504 -10.23294 -10.23222 -10.23190
 Alpha  occ. eigenvalues --  -10.23132 -10.22966 -10.22768 -10.21990 -10.21568
 Alpha  occ. eigenvalues --  -10.20319 -10.20294 -10.20231 -10.20209 -10.20192
 Alpha  occ. eigenvalues --  -10.19465 -10.19232 -10.19201 -10.19148 -10.19146
 Alpha  occ. eigenvalues --  -10.19136 -10.19030 -10.18927 -10.18902 -10.18880
 Alpha  occ. eigenvalues --  -10.18833 -10.18795 -10.18786 -10.18673 -10.18627
 Alpha  occ. eigenvalues --  -10.18534 -10.18234 -10.18174 -10.18171 -10.18152
 Alpha  occ. eigenvalues --  -10.17723 -10.17592 -10.17587 -10.16575 -10.16172
 Alpha  occ. eigenvalues --  -10.15728  -7.94553  -6.70131  -5.91055  -5.90704
 Alpha  occ. eigenvalues --   -5.90049  -0.97642  -0.97218  -0.96326  -0.86455
 Alpha  occ. eigenvalues --   -0.86040  -0.85461  -0.85305  -0.84533  -0.83820
 Alpha  occ. eigenvalues --   -0.82296  -0.79596  -0.76837  -0.75902  -0.75769
 Alpha  occ. eigenvalues --   -0.75738  -0.75169  -0.75063  -0.74502  -0.74283
 Alpha  occ. eigenvalues --   -0.74041  -0.73364  -0.72244  -0.70663  -0.70315
 Alpha  occ. eigenvalues --   -0.67780  -0.64355  -0.63583  -0.62249  -0.62029
 Alpha  occ. eigenvalues --   -0.61977  -0.61561  -0.61021  -0.60234  -0.60097
 Alpha  occ. eigenvalues --   -0.59424  -0.58802  -0.57424  -0.56279  -0.55705
 Alpha  occ. eigenvalues --   -0.54237  -0.53788  -0.53289  -0.52744  -0.50933
 Alpha  occ. eigenvalues --   -0.50070  -0.49836  -0.48713  -0.48086  -0.47441
 Alpha  occ. eigenvalues --   -0.47374  -0.47212  -0.46806  -0.46383  -0.46005
 Alpha  occ. eigenvalues --   -0.45689  -0.45384  -0.45086  -0.44418  -0.44154
 Alpha  occ. eigenvalues --   -0.43601  -0.43409  -0.43315  -0.42957  -0.42700
 Alpha  occ. eigenvalues --   -0.42354  -0.42140  -0.41890  -0.41541  -0.40902
 Alpha  occ. eigenvalues --   -0.40498  -0.39860  -0.38900  -0.38548  -0.38060
 Alpha  occ. eigenvalues --   -0.37597  -0.37153  -0.37053  -0.36704  -0.36599
 Alpha  occ. eigenvalues --   -0.36514  -0.36361  -0.36259  -0.35796  -0.35725
 Alpha  occ. eigenvalues --   -0.35454  -0.34782  -0.34500  -0.34217  -0.34092
 Alpha  occ. eigenvalues --   -0.33041  -0.33014  -0.32215  -0.30067  -0.29516
 Alpha  occ. eigenvalues --   -0.29063  -0.28717  -0.26602  -0.26528  -0.26031
 Alpha  occ. eigenvalues --   -0.25786  -0.25522  -0.25054  -0.24946  -0.24688
 Alpha  occ. eigenvalues --   -0.24267  -0.24083  -0.22355  -0.19914  -0.18476
 Alpha  occ. eigenvalues --   -0.17840
 Alpha virt. eigenvalues --   -0.05039  -0.01837  -0.01679  -0.01606  -0.01073
 Alpha virt. eigenvalues --   -0.00886  -0.00505  -0.00406   0.00554   0.00701
 Alpha virt. eigenvalues --    0.00765   0.01289   0.03603   0.03853   0.04317

 Mulliken charges:
               1
     1  C   -0.127780
     2  C   -0.139869
     3  C   -0.160347
     4  C    0.274837
     5  N   -0.662220
     6  C    0.270665
     7  C   -0.159556
     8  C   -0.139944
     9  C   -0.126588
    10  C   -0.139251
    11  C   -0.155859
    12  C    0.314625
    13  C   -0.257510
    14  C    0.284884
    15  C   -0.001655
    16  C    0.252226
    17  C   -0.239803
    18  N   -0.674955
    19  C    0.274124
    20  C   -0.137719
    21  C   -0.146672
    22  C   -0.113510
    23  C   -0.177252
    24  C   -0.119709
    25  S    0.164322
    26  C   -0.115856
    27  C   -0.183664
    28  C   -0.104036
    29  C   -0.232239
    30  C    0.111534
    31  C    0.212710
    32  B    0.013637
    33  C    0.093546
    34  C   -0.220920
    35  C   -0.120604
    36  C   -0.141952
    37  C   -0.172580
    38  C    0.246489
    39  N   -0.681483
    40  C    0.182809
    41  C   -0.118415
    42  C   -0.138177
    43  C   -0.117549
    44  C   -0.142822
    45  C   -0.115003
    46  C   -0.155305
    47  C   -0.141103
    48  H    0.126699
    49  H    0.131336
    50  H    0.145088
    51  H    0.142646
    52  H    0.131173
    53  H    0.128443
    54  H    0.133899
    55  H    0.146602
    56  H    0.160330
    57  H    0.161155
    58  H    0.151094
    59  H    0.133684
    60  H    0.132363
    61  H    0.144945
    62  H    0.142954
    63  H    0.127846
    64  H    0.132275
    65  H    0.131385
    66  H    0.123515
    67  H    0.128969
    68  H    0.145663
    69  H    0.147396
    70  H    0.139656
    71  H    0.136933
    72  H    0.140263
    73  H    0.149661
    74  H    0.140302
    75  H    0.129226
 Sum of Mulliken charges =  -0.00000

 Dipole moment (field-independent basis, Debye):
    X=             -3.8057    Y=             -0.1849    Z=              0.7272  Tot=              3.8790
 Quadrupole moment (field-independent basis, Debye-Ang):
   XX=           -251.2479   YY=           -256.7166   ZZ=           -262.5967
   XY=             -5.6500   XZ=             -0.3179   YZ=             -4.2527

 Normal termination of Gaussian 16 at Sat Nov  5 01:27:02 2022.
