 Gaussian 16, Revision B.01,
 Gaussian 16:  ES64L-G16RevB.01 20-Dec-2017

 -----------------------------
 #p b3lyp/6-31g(d) opt SCF=XQC
 -----------------------------

 ------------------------------
 Gaussian input prepared by ASE
 ------------------------------
 Symbolic Z-matrix:
 Charge =  0 Multiplicity = 1

 SCF Done:  E(RB3LYP) =  -1757.68897867     A.U. after   16 cycles
 SCF Done:  E(RB3LYP) =  -1757.69958057     A.U. after   15 cycles
 SCF Done:  E(RB3LYP) =  -1757.70148729     A.U. after   13 cycles
 SCF Done:  E(RB3LYP) =  -1757.70219282     A.U. after   13 cycles
 SCF Done:  E(RB3LYP) =  -1757.70227240     A.U. after   11 cycles
 SCF Done:  E(RB3LYP) =  -1757.70229073     A.U. after   10 cycles
 SCF Done:  E(RB3LYP) =  -1757.70229788     A.U. after   10 cycles
 SCF Done:  E(RB3LYP) =  -1757.70229982     A.U. after   10 cycles
 SCF Done:  E(RB3LYP) =  -1757.70230027     A.U. after    9 cycles
 SCF Done:  E(RB3LYP) =  -1757.70230035     A.U. after    7 cycles
 SCF Done:  E(RB3LYP) =  -1757.70230036     A.U. after    6 cycles
 Optimization completed.
    -- Stationary point found.

                         Standard orientation:
 ---------------------------------------------------------------------
 Center     Atomic      Atomic             Coordinates (Angstroms)
 Number     Number       Type             X           Y           Z
 ---------------------------------------------------------------------
      1          6           0       11.195678   -0.205340    0.895458
      2          7           0       10.032495   -0.145817    0.697683
      3          6           0        8.668238   -0.069942    0.466632
      4          6           0        8.011476    1.167842    0.629449
      5          6           0        6.645944    1.283488    0.403023
      6          6           0        5.944520    0.140984    0.004821
      7          6           0        6.594300   -1.112497   -0.146569
      8          6           0        7.966769   -1.215546    0.083123
      9          6           0        5.577011   -2.070108   -0.526125
     10          6           0        5.601536   -3.437427   -0.825030
     11          6           0        4.416344   -4.071736   -1.183619
     12          6           0        3.211480   -3.350656   -1.252540
     13          6           0        3.160153   -1.989789   -0.959475
     14          6           0        4.351385   -1.361194   -0.587496
     15          7           0        4.584358   -0.017155   -0.264084
     16          6           0        3.602107    1.008303   -0.217907
     17          6           0        2.470880    0.865963    0.597617
     18          6           0        1.504161    1.864617    0.636543
     19          6           0        1.640291    3.040571   -0.124673
     20          6           0        0.675784    4.153437   -0.069110
     21          6           0       -0.662587    4.153813    0.105930
     22          6           0       -1.628289    3.041471    0.154629
     23          6           0       -2.786922    3.177938    0.940361
     24          6           0       -3.748579    2.173200    0.998915
     25          6           0       -3.592104    1.012150    0.233777
     26          7           0       -4.576706   -0.013298    0.272866
     27          6           0       -4.346989   -1.356220    0.608474
     28          6           0       -3.159932   -1.980156    0.999414
     29          6           0       -3.213920   -3.339482    1.299825
     30          6           0       -4.417142   -4.061809    1.219149
     31          6           0       -5.598347   -3.431289    0.840618
     32          6           0       -5.570730   -2.065903    0.533982
     33          6           0       -6.582554   -1.110150    0.133641
     34          6           0       -7.950169   -1.210079   -0.114147
     35          6           0       -8.653695   -0.065441   -0.515265
     36          6           0      -10.060427   -0.145419   -0.772206
     37          7           0      -11.203906   -0.208228   -0.981150
     38          6           0       -7.983826    1.171010   -0.673987
     39          6           0       -6.622536    1.286622   -0.429954
     40          6           0       -5.929296    0.143357   -0.016495
     41          6           0       -2.461287    0.872705   -0.582214
     42          6           0       -1.493326    1.870493   -0.614518
     43          6           0        2.799232    3.180657   -0.909307
     44          6           0        3.759318    2.175003   -0.974960
     45          1           0        8.591833    2.030588    0.938299
     46          1           0        6.144379    2.235316    0.539055
     47          1           0        8.492996   -2.158282   -0.024796
     48          1           0        6.534097   -3.993662   -0.781796
     49          1           0        4.420688   -5.132292   -1.417275
     50          1           0        2.298665   -3.862893   -1.543971
     51          1           0        2.228266   -1.438196   -1.024346
     52          1           0        2.367323   -0.020418    1.215802
     53          1           0        0.645556    1.746695    1.288860
     54          1           0        1.136395    5.136100   -0.169226
     55          1           0       -1.122347    5.136214    0.212039
     56          1           0       -2.924459    4.079572    1.531874
     57          1           0       -4.618165    2.281363    1.639734
     58          1           0       -2.229713   -1.426774    1.072483
     59          1           0       -2.304680   -3.849261    1.606193
     60          1           0       -4.423656   -5.120924    1.459113
     61          1           0       -6.529429   -3.989072    0.787812
     62          1           0       -8.472328   -2.155425   -0.005400
     63          1           0       -8.550781    2.038638   -0.994959
     64          1           0       -6.115528    2.236068   -0.562512
     65          1           0       -2.358459   -0.010439   -1.205217
     66          1           0       -0.634331    1.755641   -1.266789
     67          1           0        2.937933    4.085941   -1.495011
     68          1           0        4.628354    2.286344   -1.615891
 ---------------------------------------------------------------------

 The electronic state is 1-A.
 Alpha  occ. eigenvalues --  -14.40443 -14.40168 -14.36878 -14.32586 -10.25756
 Alpha  occ. eigenvalues --  -10.25656 -10.25475 -10.24980 -10.24580 -10.24273
 Alpha  occ. eigenvalues --  -10.24093 -10.23137 -10.22545 -10.22452 -10.22026
 Alpha  occ. eigenvalues --  -10.21850 -10.21824 -10.21812 -10.21739 -10.21732
 Alpha  occ. eigenvalues --  -10.21697 -10.21688 -10.21659 -10.21624 -10.21621
 Alpha  occ. eigenvalues --  -10.21610 -10.21553 -10.21371 -10.21337 -10.21239
 Alpha  occ. eigenvalues --  -10.21218 -10.21187 -10.21118 -10.21040 -10.20660
 Alpha  occ. eigenvalues --  -10.20531 -10.20481 -10.20465 -10.20390 -10.20368
 Alpha  occ. eigenvalues --  -10.20323 -10.20239 -10.19753 -10.19591  -1.01138
 Alpha  occ. eigenvalues --   -1.00873  -0.95712  -0.89890  -0.89230  -0.88889
 Alpha  occ. eigenvalues --   -0.86792  -0.86403  -0.86128  -0.85834  -0.82441
 Alpha  occ. eigenvalues --   -0.80890  -0.79571  -0.78198  -0.77981  -0.77504
 Alpha  occ. eigenvalues --   -0.77295  -0.77094  -0.75883  -0.74397  -0.73889
 Alpha  occ. eigenvalues --   -0.73714  -0.72608  -0.68585  -0.67215  -0.65221
 Alpha  occ. eigenvalues --   -0.64815  -0.64517  -0.63834  -0.63353  -0.62984
 Alpha  occ. eigenvalues --   -0.60482  -0.59926  -0.59691  -0.59545  -0.57862
 Alpha  occ. eigenvalues --   -0.57076  -0.55736  -0.55593  -0.55170  -0.53528
 Alpha  occ. eigenvalues --   -0.53381  -0.52021  -0.50609  -0.49336  -0.49145
 Alpha  occ. eigenvalues --   -0.48864  -0.48607  -0.48370  -0.47351  -0.46730
 Alpha  occ. eigenvalues --   -0.46210  -0.45938  -0.45789  -0.45353  -0.44927
 Alpha  occ. eigenvalues --   -0.44838  -0.44712  -0.44465  -0.44344  -0.44180
 Alpha  occ. eigenvalues --   -0.43689  -0.43527  -0.43218  -0.42789  -0.41862
 Alpha  occ. eigenvalues --   -0.41317  -0.40988  -0.39850  -0.39668  -0.39186
 Alpha  occ. eigenvalues --   -0.38809  -0.38317  -0.38059  -0.37557  -0.37089
 Alpha  occ. eigenvalues --   -0.36680  -0.36458  -0.36316  -0.35888  -0.35705
 Alpha  occ. eigenvalues --   -0.35567  -0.35307  -0.34911  -0.33608  -0.33563
 Alpha  occ. eigenvalues --   -0.32803  -0.32202  -0.31514  -0.29789  -0.29628
 Alpha  occ. eigenvalues --   -0.29620  -0.28448  -0.28050  -0.27598  -0.26679
 Alpha  occ. eigenvalues --   -0.26376  -0.24237  -0.23302  -0.23063  -0.21757
 Alpha  occ. eigenvalues --   -0.21081
 Alpha virt. eigenvalues --   -0.07240  -0.04692  -0.04542  -0.03740  -0.03477
 Alpha virt. eigenvalues --   -0.03022  -0.02276  -0.02178   0.00263   0.00720
 Alpha virt. eigenvalues --    0.02193   0.02414   0.03598   0.03872   0.04418

 Mulliken charges:
               1
     1  C   -0.091622
     2  N   -0.321623
     3  C    0.286325
     4  C   -0.141519
     5  C   -0.182970
     6  C    0.329709
     7  C    0.056786
     8  C   -0.206607
     9  C    0.058278
    10  C   -0.192405
    11  C   -0.144330
    12  C   -0.139960
    13  C   -0.174040
    14  C    0.313571
    15  N   -0.738994
    16  C    0.264136
    17  C   -0.151363
    18  C   -0.193661
    19  C    0.156664
    20  C   -0.188647
    21  C   -0.189565
    22  C    0.157451
    23  C   -0.199851
    24  C   -0.151142
    25  C    0.259823
    26  N   -0.735603
    27  C    0.312153
    28  C   -0.173707
    29  C   -0.139694
    30  C   -0.143957
    31  C   -0.192570
    32  C    0.061994
    33  C    0.062819
    34  C   -0.219414
    35  C    0.126677
    36  C    0.228312
    37  N   -0.488197
    38  C   -0.158630
    39  C   -0.174001
    40  C    0.329815
    41  C   -0.149902
    42  C   -0.193466
    43  C   -0.199769
    44  C   -0.152573
    45  H    0.155296
    46  H    0.151742
    47  H    0.157046
    48  H    0.137701
    49  H    0.132023
    50  H    0.132658
    51  H    0.139554
    52  H    0.156326
    53  H    0.152869
    54  H    0.142584
    55  H    0.142560
    56  H    0.143265
    57  H    0.157062
    58  H    0.140763
    59  H    0.133831
    60  H    0.133181
    61  H    0.139160
    62  H    0.158879
    63  H    0.156119
    64  H    0.152544
    65  H    0.156651
    66  H    0.153958
    67  H    0.142661
    68  H    0.156834
 Sum of Mulliken charges =  -0.00000

 Dipole moment (field-independent basis, Debye):
    X=              1.0156    Y=              2.2082    Z=              0.2494  Tot=              2.4433
 Quadrupole moment (field-independent basis, Debye-Ang):
   XX=           -426.6279   YY=           -215.1885   ZZ=           -253.7606
   XY=              0.0737   XZ=            -23.1013   YZ=             -0.2117

 1\1\GINC-NODE72\FOpt\RB3LYP\6-31G(d)\C40H24N4\WYKGROUP\05-Nov-2022\0\\
 #p b3lyp/6-31g(d) opt SCF=XQC\\Gaussian input prepared by ASE\\0,1\C,1
 1.0301437369,0.6172617236,2.1011543028\N,9.8952880938,0.5354106093,1.7
 832621486\C,8.5642514521,0.4451913072,1.4083711541\C,7.913144677,1.590
 5759791,0.9042793856\C,6.5809669778,1.5375849694,0.5146444369\C,5.9078
 297694,0.3172995063,0.6315403812\C,6.5505511035,-0.8368400839,1.152328
 2076\C,7.8894760828,-0.7709512885,1.539607615\C,5.5642261396,-1.896510
 9955,1.1671467542\C,5.5990085657,-3.2426884523,1.5493824111\C,4.448505

 Normal termination of Gaussian 16 at Sat Nov  5 01:31:03 2022.
