 Gaussian 16, Revision B.01,
 Gaussian 16:  ES64L-G16RevB.01 20-Dec-2017

 -----------------------------
 #p b3lyp/6-31g(d) opt SCF=XQC
 -----------------------------

 ------------------------------
 Gaussian input prepared by ASE
 ------------------------------
 Symbolic Z-matrix:
 Charge =  0 Multiplicity = 1

 SCF Done:  E(RB3LYP) =  -2391.98256528     A.U. after   15 cycles
 SCF Done:  E(RB3LYP) =  -2391.99438153     A.U. after   13 cycles
 SCF Done:  E(RB3LYP) =  -2391.99486502     A.U. after   12 cycles
 SCF Done:  E(RB3LYP) =  -2391.99499469     A.U. after   12 cycles
 SCF Done:  E(RB3LYP) =  -2391.99502583     A.U. after   11 cycles
 SCF Done:  E(RB3LYP) =  -2391.99503489     A.U. after   10 cycles
 SCF Done:  E(RB3LYP) =  -2391.99503709     A.U. after    9 cycles
 SCF Done:  E(RB3LYP) =  -2391.99503795     A.U. after    9 cycles
 SCF Done:  E(RB3LYP) =  -2391.99503847     A.U. after    9 cycles
 SCF Done:  E(RB3LYP) =  -2391.99503860     A.U. after    7 cycles
 SCF Done:  E(RB3LYP) =  -2391.99503865     A.U. after    7 cycles
 SCF Done:  E(RB3LYP) =  -2391.99503866     A.U. after    6 cycles
 Optimization completed.
    -- Stationary point found.

                         Standard orientation:
 ---------------------------------------------------------------------
 Center     Atomic      Atomic             Coordinates (Angstroms)
 Number     Number       Type             X           Y           Z
 ---------------------------------------------------------------------
      1          6           0       -5.363518   -0.929100   -3.257992
      2          6           0       -6.052745   -1.171021   -1.896128
      3          6           0       -6.820530    0.097928   -1.462475
      4          6           0       -6.974952   -2.389036   -1.948037
      5          6           0       -8.099075   -2.595767   -2.739441
      6          6           0       -8.804137   -3.800053   -2.624629
      7          6           0       -8.383028   -4.784309   -1.724641
      8          6           0       -7.254326   -4.582518   -0.926981
      9          6           0       -6.551158   -3.381156   -1.041523
     10          6           0       -5.351300   -2.901005   -0.345507
     11          6           0       -4.561527   -3.511804    0.624371
     12          6           0       -3.457490   -2.807416    1.118668
     13          6           0       -2.430473   -3.128256    2.088208
     14          6           0       -2.185540   -4.242617    2.898952
     15          6           0       -1.092656   -4.227541    3.760879
     16          6           0       -0.247602   -3.106589    3.823733
     17          6           0       -0.468506   -1.984464    3.027156
     18          6           0       -1.559884   -2.011394    2.155186
     19          7           0       -2.018988   -1.025992    1.269969
     20          6           0       -1.422454    0.245830    1.068428
     21          6           0       -2.188159    1.407904    1.216511
     22          6           0       -1.619033    2.672737    1.006231
     23          6           0       -2.436543    3.904814    1.162609
     24          6           0       -3.409427    4.008708    2.171727
     25          6           0       -4.175911    5.164523    2.317828
     26          6           0       -3.989032    6.247596    1.463560
     27          6           0       -3.019614    6.160877    0.451245
     28          6           0       -2.814837    7.264858   -0.442469
     29          7           0       -2.647201    8.161160   -1.164761
     30          6           0       -2.252257    4.996013    0.303362
     31          6           0       -0.262553    2.752933    0.665041
     32          6           0        0.513436    1.596134    0.526565
     33          6           0        1.954000    1.698394    0.170180
     34          7           0        2.451589    2.919143   -0.067675
     35          6           0        3.757549    2.963412   -0.383719
     36          6           0        4.361581    4.288282   -0.658364
     37          6           0        3.577029    5.451635   -0.609014
     38          6           0        4.146362    6.695364   -0.869594
     39          6           0        5.504762    6.793198   -1.181125
     40          6           0        6.292085    5.640030   -1.231547
     41          6           0        5.725916    4.394585   -0.972783
     42          7           0        4.545918    1.881287   -0.466938
     43          6           0        3.958648    0.701426   -0.212852
     44          6           0        4.787728   -0.520504   -0.293241
     45          6           0        4.231925   -1.782733   -0.030700
     46          6           0        5.013358   -2.928910   -0.108287
     47          6           0        6.376340   -2.859668   -0.449213
     48          6           0        7.208590   -4.085040   -0.531495
     49          6           0        7.019772   -5.147943    0.368711
     50          6           0        7.802267   -6.298771    0.292011
     51          6           0        8.790077   -6.413454   -0.687932
     52          6           0        8.988762   -5.366485   -1.589916
     53          6           0        8.207450   -4.214939   -1.511918
     54          6           0        6.924653   -1.590603   -0.709721
     55          6           0        6.147315   -0.441671   -0.634267
     56          7           0        2.661134    0.562820    0.111563
     57          6           0       -0.073338    0.339498    0.719124
     58          6           0       -3.172729   -1.502458    0.634351
     59          6           0       -3.954561   -0.889261   -0.353649
     60          6           0       -5.044135   -1.603608   -0.830699
     61          1           0       -6.104052   -0.683918   -4.028190
     62          1           0       -4.657192   -0.093122   -3.193085
     63          1           0       -4.812991   -1.817350   -3.583647
     64          1           0       -7.316329   -0.052191   -0.498043
     65          1           0       -7.585369    0.359737   -2.202836
     66          1           0       -6.138634    0.951425   -1.368957
     67          1           0       -8.433517   -1.835931   -3.442319
     68          1           0       -9.684145   -3.970796   -3.239008
     69          1           0       -8.938919   -5.714903   -1.644965
     70          1           0       -6.932613   -5.351859   -0.229336
     71          1           0       -4.787441   -4.511224    0.987601
     72          1           0       -2.843816   -5.106551    2.858154
     73          1           0       -0.891911   -5.087187    4.393870
     74          1           0        0.596172   -3.109774    4.508378
     75          1           0        0.185441   -1.120936    3.088266
     76          1           0       -3.236091    1.316824    1.483005
     77          1           0       -3.549807    3.183991    2.864273
     78          1           0       -4.916842    5.223638    3.109612
     79          1           0       -4.578523    7.152133    1.570469
     80          1           0       -1.525006    4.939875   -0.499804
     81          1           0        0.215753    3.715446    0.528429
     82          1           0        2.524058    5.365027   -0.367166
     83          1           0        3.530133    7.589339   -0.830738
     84          1           0        5.947925    7.764497   -1.384384
     85          1           0        7.348919    5.712260   -1.473509
     86          1           0        6.326938    3.493308   -1.009867
     87          1           0        3.180867   -1.852439    0.225164
     88          1           0        4.555930   -3.897475    0.071154
     89          1           0        6.271761   -5.058806    1.151466
     90          1           0        7.644867   -7.104285    1.004395
     91          1           0        9.399531   -7.310990   -0.748328
     92          1           0        9.748834   -5.449110   -2.362309
     93          1           0        8.352731   -3.417881   -2.235646
     94          1           0        7.980730   -1.504047   -0.948182
     95          1           0        6.583964    0.531119   -0.829425
     96          1           0        0.522823   -0.554534    0.585051
     97          1           0       -3.710798    0.098262   -0.733328
 ---------------------------------------------------------------------

 The electronic state is 1-A.
 Alpha  occ. eigenvalues --  -14.38769 -14.34349 -14.34347 -14.34215 -14.33822
 Alpha  occ. eigenvalues --  -10.28375 -10.28145 -10.28139 -10.25070 -10.24534
 Alpha  occ. eigenvalues --  -10.23116 -10.22916 -10.22792 -10.22737 -10.22390
 Alpha  occ. eigenvalues --  -10.22313 -10.22297 -10.21911 -10.21841 -10.21785
 Alpha  occ. eigenvalues --  -10.21469 -10.21047 -10.20904 -10.20864 -10.20577
 Alpha  occ. eigenvalues --  -10.20498 -10.20452 -10.20436 -10.20046 -10.19767
 Alpha  occ. eigenvalues --  -10.19756 -10.19682 -10.19677 -10.19631 -10.19623
 Alpha  occ. eigenvalues --  -10.19606 -10.19593 -10.19570 -10.19552 -10.19517
 Alpha  occ. eigenvalues --  -10.19494 -10.19475 -10.19181 -10.19172 -10.19115
 Alpha  occ. eigenvalues --  -10.19099 -10.19073 -10.19034 -10.19020 -10.18964
 Alpha  occ. eigenvalues --  -10.18780 -10.18695 -10.18572 -10.18558 -10.18510
 Alpha  occ. eigenvalues --  -10.18471 -10.18438 -10.18401 -10.17954 -10.17839
 Alpha  occ. eigenvalues --   -1.02643  -0.99463  -0.91367  -0.91186  -0.91016
 Alpha  occ. eigenvalues --   -0.89133  -0.88392  -0.87386  -0.87196  -0.85754
 Alpha  occ. eigenvalues --   -0.85012  -0.84648  -0.83922  -0.81421  -0.80547
 Alpha  occ. eigenvalues --   -0.78775  -0.78748  -0.78353  -0.76962  -0.76718
 Alpha  occ. eigenvalues --   -0.76264  -0.75484  -0.75120  -0.74911  -0.74659
 Alpha  occ. eigenvalues --   -0.73902  -0.73612  -0.73124  -0.71576  -0.70503
 Alpha  occ. eigenvalues --   -0.68877  -0.68585  -0.68105  -0.66234  -0.65666
 Alpha  occ. eigenvalues --   -0.65058  -0.63695  -0.62892  -0.62480  -0.61779
 Alpha  occ. eigenvalues --   -0.61351  -0.60810  -0.60318  -0.59885  -0.59255
 Alpha  occ. eigenvalues --   -0.58421  -0.57759  -0.57315  -0.57021  -0.56146
 Alpha  occ. eigenvalues --   -0.55188  -0.54827  -0.53950  -0.52953  -0.52427
 Alpha  occ. eigenvalues --   -0.52086  -0.51436  -0.50976  -0.50455  -0.49965
 Alpha  occ. eigenvalues --   -0.49146  -0.48378  -0.47675  -0.47397  -0.46927
 Alpha  occ. eigenvalues --   -0.46597  -0.46546  -0.46257  -0.45921  -0.45779
 Alpha  occ. eigenvalues --   -0.45642  -0.44901  -0.44637  -0.44532  -0.44443
 Alpha  occ. eigenvalues --   -0.43834  -0.43765  -0.43570  -0.43366  -0.43121
 Alpha  occ. eigenvalues --   -0.42996  -0.42817  -0.42751  -0.42582  -0.42444
 Alpha  occ. eigenvalues --   -0.42165  -0.42034  -0.41869  -0.40993  -0.40873
 Alpha  occ. eigenvalues --   -0.39639  -0.39456  -0.39244  -0.39090  -0.38981
 Alpha  occ. eigenvalues --   -0.38749  -0.38414  -0.37911  -0.37662  -0.37568
 Alpha  occ. eigenvalues --   -0.37224  -0.36899  -0.36706  -0.36523  -0.36316
 Alpha  occ. eigenvalues --   -0.35858  -0.35747  -0.35557  -0.35219  -0.34920
 Alpha  occ. eigenvalues --   -0.34852  -0.34796  -0.34614  -0.34409  -0.34110
 Alpha  occ. eigenvalues --   -0.34005  -0.33833  -0.33430  -0.33274  -0.33249
 Alpha  occ. eigenvalues --   -0.32604  -0.31784  -0.31606  -0.29499  -0.28135
 Alpha  occ. eigenvalues --   -0.27562  -0.27211  -0.27008  -0.26949  -0.26757
 Alpha  occ. eigenvalues --   -0.26317  -0.25850  -0.25642  -0.25519  -0.25215
 Alpha  occ. eigenvalues --   -0.24887  -0.24184  -0.23430  -0.22891  -0.21034
 Alpha  occ. eigenvalues --   -0.19195
 Alpha virt. eigenvalues --   -0.07850  -0.07550  -0.05783  -0.04568  -0.03485
 Alpha virt. eigenvalues --   -0.03170  -0.02101  -0.00947  -0.00824  -0.00430
 Alpha virt. eigenvalues --   -0.00365   0.00015   0.00411   0.01777   0.02860

 Mulliken charges:
               1
     1  C   -0.436631
     2  C   -0.064628
     3  C   -0.437052
     4  C    0.101207
     5  C   -0.203904
     6  C   -0.133236
     7  C   -0.136342
     8  C   -0.193150
     9  C    0.078101
    10  C    0.075725
    11  C   -0.274013
    12  C    0.064792
    13  C    0.052309
    14  C   -0.196714
    15  C   -0.144797
    16  C   -0.142772
    17  C   -0.177801
    18  C    0.313692
    19  N   -0.754865
    20  C    0.284282
    21  C   -0.201727
    22  C    0.079011
    23  C    0.087509
    24  C   -0.161618
    25  C   -0.137336
    26  C   -0.135008
    27  C    0.131201
    28  C    0.238691
    29  N   -0.477366
    30  C   -0.189429
    31  C   -0.212805
    32  C    0.069140
    33  C    0.459674
    34  N   -0.545665
    35  C    0.451321
    36  C    0.076422
    37  C   -0.155572
    38  C   -0.140042
    39  C   -0.115184
    40  C   -0.139693
    41  C   -0.155657
    42  N   -0.538984
    43  C    0.452382
    44  C    0.082170
    45  C   -0.165683
    46  C   -0.187461
    47  C    0.105149
    48  C    0.087576
    49  C   -0.171808
    50  C   -0.133720
    51  C   -0.124927
    52  C   -0.133770
    53  C   -0.171921
    54  C   -0.186961
    55  C   -0.163808
    56  N   -0.545112
    57  C   -0.196442
    58  C    0.323325
    59  C   -0.261635
    60  C    0.093287
    61  H    0.144420
    62  H    0.143549
    63  H    0.158492
    64  H    0.155779
    65  H    0.145116
    66  H    0.141449
    67  H    0.122898
    68  H    0.125310
    69  H    0.126044
    70  H    0.125813
    71  H    0.132350
    72  H    0.130464
    73  H    0.125065
    74  H    0.128476
    75  H    0.142478
    76  H    0.157464
    77  H    0.150551
    78  H    0.150378
    79  H    0.161626
    80  H    0.165740
    81  H    0.172258
    82  H    0.159403
    83  H    0.140438
    84  H    0.137205
    85  H    0.135736
    86  H    0.161644
    87  H    0.164351
    88  H    0.139950
    89  H    0.135585
    90  H    0.133607
    91  H    0.132870
    92  H    0.133559
    93  H    0.135366
    94  H    0.137544
    95  H    0.162292
    96  H    0.185427
    97  H    0.137573
 Sum of Mulliken charges =  -0.00000

 Dipole moment (field-independent basis, Debye):
    X=              1.4399    Y=             -2.3941    Z=              2.1075  Tot=              3.4995
 Quadrupole moment (field-independent basis, Debye-Ang):
   XX=           -302.9096   YY=           -348.7190   ZZ=           -337.5426
   XY=             -2.6752   XZ=            -12.2170   YZ=             11.0680

 Normal termination of Gaussian 16 at Sat Nov  5 01:58:51 2022.
