 Gaussian 16, Revision B.01,
 Gaussian 16:  ES64L-G16RevB.01 20-Dec-2017

 -----------------------------
 #p b3lyp/6-31g(d) opt SCF=XQC
 -----------------------------

 ------------------------------
 Gaussian input prepared by ASE
 ------------------------------
 Symbolic Z-matrix:
 Charge =  0 Multiplicity = 1

 SCF Done:  E(RB3LYP) =  -2357.70008157     A.U. after   16 cycles
 SCF Done:  E(RB3LYP) =  -2357.71161841     A.U. after   12 cycles
 SCF Done:  E(RB3LYP) =  -2357.71190595     A.U. after   11 cycles
 SCF Done:  E(RB3LYP) =  -2357.71193672     A.U. after   10 cycles
 SCF Done:  E(RB3LYP) =  -2357.71194477     A.U. after    9 cycles
 SCF Done:  E(RB3LYP) =  -2357.71194720     A.U. after    9 cycles
 SCF Done:  E(RB3LYP) =  -2357.71194843     A.U. after    9 cycles
 SCF Done:  E(RB3LYP) =  -2357.71194927     A.U. after    9 cycles
 SCF Done:  E(RB3LYP) =  -2357.71194957     A.U. after    9 cycles
 SCF Done:  E(RB3LYP) =  -2357.71194960     A.U. after    6 cycles
 SCF Done:  E(RB3LYP) =  -2357.71194961     A.U. after    6 cycles
 SCF Done:  E(RB3LYP) =  -2357.71194963     A.U. after    6 cycles
 SCF Done:  E(RB3LYP) =  -2357.71194964     A.U. after    6 cycles
 SCF Done:  E(RB3LYP) =  -2357.71194965     A.U. after    6 cycles
 SCF Done:  E(RB3LYP) =  -2357.71194965     A.U. after    6 cycles
 SCF Done:  E(RB3LYP) =  -2357.71194965     A.U. after    6 cycles
 Optimization completed.
    -- Stationary point found.

                         Standard orientation:
 ---------------------------------------------------------------------
 Center     Atomic      Atomic             Coordinates (Angstroms)
 Number     Number       Type             X           Y           Z
 ---------------------------------------------------------------------
      1          6           0       -9.602768   -0.810014   -0.964285
      2          6           0       -8.847716   -1.550780    0.162369
      3          6           0       -9.308938   -1.024472    1.540214
      4          6           0       -9.030206   -3.064392    0.054100
      5          6           0      -10.201816   -3.809714    0.127840
      6          6           0      -10.133915   -5.202117    0.000566
      7          6           0       -8.904605   -5.840342   -0.198513
      8          6           0       -7.724379   -5.098574   -0.273567
      9          6           0       -7.792483   -3.708997   -0.146491
     10          6           0       -6.739224   -2.689994   -0.182689
     11          6           0       -5.356824   -2.803188   -0.354417
     12          6           0       -4.577149   -1.650198   -0.346650
     13          6           0       -5.161234   -0.382570   -0.169355
     14          6           0       -4.316016    0.832846   -0.163401
     15          7           0       -4.921747    2.019786    0.007882
     16          6           0       -4.116539    3.092713    0.006526
     17          6           0       -4.738219    4.427456    0.192418
     18          6           0       -3.944777    5.585324    0.202000
     19          6           0       -4.529359    6.837257    0.376749
     20          6           0       -5.911822    6.949400    0.543880
     21          6           0       -6.707909    5.801366    0.535381
     22          6           0       -6.126482    4.547955    0.360952
     23          7           0       -2.785481    3.038069   -0.151968
     24          6           0       -2.266946    1.810104   -0.316132
     25          6           0       -0.801263    1.695123   -0.494546
     26          6           0        0.012745    2.837381   -0.484974
     27          6           0        1.388306    2.724521   -0.651907
     28          6           0        2.000770    1.471740   -0.832028
     29          6           0        3.468344    1.393666   -1.059333
     30          6           0        4.079406    2.275263   -1.957325
     31          6           0        5.454056    2.234634   -2.192564
     32          6           0        6.238225    1.305845   -1.521300
     33          6           0        5.675833    0.406034   -0.604830
     34          6           0        4.295558    0.462271   -0.387526
     35          8           0        3.658184   -0.360354    0.507490
     36          6           0        4.377303   -1.276525    1.235904
     37          6           0        3.625467   -2.044992    2.132697
     38          6           0        4.257913   -3.003540    2.913035
     39          6           0        5.640020   -3.194409    2.798646
     40          6           0        6.370394   -2.420272    1.904288
     41          6           0        5.756366   -1.444525    1.103711
     42          6           0        6.573698   -0.600594    0.124741
     43          6           0        7.339546   -1.487217   -0.873289
     44          6           0        6.824378   -2.372591   -1.811930
     45          6           0        7.710503   -3.086672   -2.625631
     46          6           0        9.093023   -2.912247   -2.496062
     47          6           0        9.613016   -2.023016   -1.553100
     48          6           0        8.729297   -1.309372   -0.740252
     49          6           0        8.977924   -0.322245    0.320573
     50          6           0       10.171531    0.194291    0.830218
     51          6           0       10.113044    1.138231    1.857718
     52          6           0        8.880681    1.560445    2.369372
     53          6           0        7.684559    1.043793    1.859922
     54          6           0        7.740550    0.104908    0.837228
     55          6           0        1.178123    0.331093   -0.838391
     56          6           0       -0.197255    0.440672   -0.675350
     57          7           0       -2.992097    0.681265   -0.328735
     58          6           0       -6.555074   -0.277185    0.002851
     59          6           0       -7.333441   -1.423265   -0.004342
     60          1           0       -9.290840   -1.168556   -1.950395
     61          1           0       -9.409261    0.267668   -0.915155
     62          1           0      -10.684268   -0.962671   -0.870664
     63          1           0       -8.786094   -1.537327    2.353777
     64          1           0      -10.385852   -1.180224    1.673254
     65          1           0       -9.110442    0.049722    1.629511
     66          1           0      -11.162966   -3.324819    0.282285
     67          1           0      -11.044329   -5.792927    0.056881
     68          1           0       -8.868705   -6.922135   -0.295433
     69          1           0       -6.771219   -5.597824   -0.428272
     70          1           0       -4.889490   -3.774723   -0.492643
     71          1           0       -3.503024   -1.711212   -0.477614
     72          1           0       -2.873303    5.486013    0.071444
     73          1           0       -3.906061    7.727415    0.382749
     74          1           0       -6.366788    7.927062    0.680157
     75          1           0       -7.783731    5.883751    0.664987
     76          1           0       -6.734002    3.650278    0.352649
     77          1           0       -0.446034    3.808568   -0.338696
     78          1           0        2.005560    3.618063   -0.623142
     79          1           0        3.456986    2.985078   -2.494173
     80          1           0        5.906830    2.920548   -2.902380
     81          1           0        7.308493    1.267031   -1.701410
     82          1           0        2.556623   -1.867177    2.196445
     83          1           0        3.676045   -3.600459    3.609718
     84          1           0        6.143167   -3.941929    3.404907
     85          1           0        7.443244   -2.566109    1.815668
     86          1           0        5.750938   -2.509719   -1.914094
     87          1           0        7.321772   -3.782410   -3.364260
     88          1           0        9.768633   -3.474179   -3.135436
     89          1           0       10.687813   -1.891636   -1.456819
     90          1           0       11.131608   -0.130195    0.436937
     91          1           0       11.033580    1.548763    2.264054
     92          1           0        8.852314    2.295449    3.169179
     93          1           0        6.728324    1.372216    2.258914
     94          1           0        1.622464   -0.647278   -0.982996
     95          1           0       -0.823253   -0.444236   -0.690843
     96          1           0       -6.990236    0.707229    0.138431
 ---------------------------------------------------------------------

 The electronic state is 1-A.
 Alpha  occ. eigenvalues --  -19.19729 -14.33070 -14.33049 -14.33045 -10.27008
 Alpha  occ. eigenvalues --  -10.26978 -10.26967 -10.25590 -10.25160 -10.22386
 Alpha  occ. eigenvalues --  -10.20780 -10.20378 -10.20336 -10.20204 -10.20145
 Alpha  occ. eigenvalues --  -10.19740 -10.19658 -10.19651 -10.19638 -10.19620
 Alpha  occ. eigenvalues --  -10.19530 -10.19493 -10.19477 -10.19456 -10.19329
 Alpha  occ. eigenvalues --  -10.19326 -10.19294 -10.19251 -10.19246 -10.19244
 Alpha  occ. eigenvalues --  -10.19228 -10.19184 -10.19173 -10.19173 -10.19171
 Alpha  occ. eigenvalues --  -10.19153 -10.19133 -10.19117 -10.19114 -10.19095
 Alpha  occ. eigenvalues --  -10.19078 -10.19073 -10.19061 -10.19036 -10.19016
 Alpha  occ. eigenvalues --  -10.19009 -10.18984 -10.18959 -10.18934 -10.18911
 Alpha  occ. eigenvalues --  -10.18898 -10.18882 -10.18825 -10.18780 -10.18740
 Alpha  occ. eigenvalues --  -10.18697 -10.18638 -10.18008 -10.18007  -1.09081
 Alpha  occ. eigenvalues --   -1.01373  -0.90046  -0.89988  -0.89645  -0.88743
 Alpha  occ. eigenvalues --   -0.86986  -0.85453  -0.85111  -0.84760  -0.84472
 Alpha  occ. eigenvalues --   -0.84274  -0.81212  -0.81167  -0.78340  -0.77781
 Alpha  occ. eigenvalues --   -0.77525  -0.76165  -0.75927  -0.74699  -0.74565
 Alpha  occ. eigenvalues --   -0.74371  -0.74302  -0.74238  -0.74008  -0.73185
 Alpha  occ. eigenvalues --   -0.72763  -0.72167  -0.71530  -0.68696  -0.67648
 Alpha  occ. eigenvalues --   -0.67282  -0.67026  -0.64422  -0.64182  -0.63806
 Alpha  occ. eigenvalues --   -0.62918  -0.62016  -0.60968  -0.60645  -0.59607
 Alpha  occ. eigenvalues --   -0.59427  -0.58763  -0.58525  -0.58038  -0.57660
 Alpha  occ. eigenvalues --   -0.57362  -0.56909  -0.55630  -0.55495  -0.55062
 Alpha  occ. eigenvalues --   -0.53592  -0.52962  -0.52080  -0.50879  -0.50798
 Alpha  occ. eigenvalues --   -0.50196  -0.49506  -0.48978  -0.47878  -0.47598
 Alpha  occ. eigenvalues --   -0.47223  -0.46907  -0.46266  -0.46147  -0.45658
 Alpha  occ. eigenvalues --   -0.45332  -0.45196  -0.45043  -0.45002  -0.44718
 Alpha  occ. eigenvalues --   -0.44267  -0.44033  -0.43761  -0.43691  -0.43613
 Alpha  occ. eigenvalues --   -0.43253  -0.43034  -0.42811  -0.42719  -0.42222
 Alpha  occ. eigenvalues --   -0.42103  -0.41941  -0.41818  -0.41573  -0.41365
 Alpha  occ. eigenvalues --   -0.41079  -0.40958  -0.40292  -0.39174  -0.39019
 Alpha  occ. eigenvalues --   -0.38507  -0.38344  -0.38097  -0.38071  -0.37825
 Alpha  occ. eigenvalues --   -0.37760  -0.37389  -0.36978  -0.36692  -0.36187
 Alpha  occ. eigenvalues --   -0.35995  -0.35951  -0.35476  -0.35407  -0.35148
 Alpha  occ. eigenvalues --   -0.34874  -0.34757  -0.34432  -0.34356  -0.34325
 Alpha  occ. eigenvalues --   -0.34210  -0.34155  -0.33827  -0.33657  -0.32979
 Alpha  occ. eigenvalues --   -0.32368  -0.32217  -0.31951  -0.31794  -0.31602
 Alpha  occ. eigenvalues --   -0.28360  -0.27505  -0.27139  -0.26031  -0.25651
 Alpha  occ. eigenvalues --   -0.25605  -0.25211  -0.25060  -0.24967  -0.24846
 Alpha  occ. eigenvalues --   -0.24825  -0.24519  -0.24284  -0.23911  -0.22815
 Alpha  occ. eigenvalues --   -0.21425  -0.21390  -0.20775
 Alpha virt. eigenvalues --   -0.06765  -0.06432  -0.03314  -0.03077  -0.01536
 Alpha virt. eigenvalues --   -0.01416  -0.01336  -0.00857  -0.00239   0.00220
 Alpha virt. eigenvalues --    0.00429   0.00845   0.01436   0.01618   0.02574

 Mulliken charges:
               1
     1  C   -0.437657
     2  C   -0.061580
     3  C   -0.437664
     4  C    0.103796
     5  C   -0.203020
     6  C   -0.129919
     7  C   -0.136751
     8  C   -0.189791
     9  C    0.077853
    10  C    0.096198
    11  C   -0.202854
    12  C   -0.176566
    13  C    0.081944
    14  C    0.452259
    15  N   -0.544533
    16  C    0.449607
    17  C    0.076797
    18  C   -0.156860
    19  C   -0.140107
    20  C   -0.116294
    21  C   -0.140204
    22  C   -0.156573
    23  N   -0.542936
    24  C    0.449466
    25  C    0.084435
    26  C   -0.166658
    27  C   -0.182994
    28  C    0.112065
    29  C    0.022013
    30  C   -0.187362
    31  C   -0.133856
    32  C   -0.192894
    33  C    0.154371
    34  C    0.233675
    35  O   -0.575051
    36  C    0.286973
    37  C   -0.186594
    38  C   -0.134677
    39  C   -0.133982
    40  C   -0.194399
    41  C    0.149306
    42  C   -0.232740
    43  C    0.117396
    44  C   -0.183576
    45  C   -0.135137
    46  C   -0.134439
    47  C   -0.191085
    48  C    0.070924
    49  C    0.070551
    50  C   -0.191566
    51  C   -0.134329
    52  C   -0.135582
    53  C   -0.183606
    54  C    0.111607
    55  C   -0.160286
    56  C   -0.170989
    57  N   -0.546457
    58  C   -0.245861
    59  C    0.098511
    60  H    0.158067
    61  H    0.148035
    62  H    0.143811
    63  H    0.157996
    64  H    0.143810
    65  H    0.148063
    66  H    0.126238
    67  H    0.129021
    68  H    0.129615
    69  H    0.131241
    70  H    0.131786
    71  H    0.160306
    72  H    0.161230
    73  H    0.133074
    74  H    0.132869
    75  H    0.132241
    76  H    0.159122
    77  H    0.159747
    78  H    0.135003
    79  H    0.137917
    80  H    0.132226
    81  H    0.145307
    82  H    0.147571
    83  H    0.133671
    84  H    0.130499
    85  H    0.144253
    86  H    0.135991
    87  H    0.131250
    88  H    0.130393
    89  H    0.130411
    90  H    0.130424
    91  H    0.130387
    92  H    0.131518
    93  H    0.138442
    94  H    0.139807
    95  H    0.159517
    96  H    0.156819
 Sum of Mulliken charges =  -0.00000

 Dipole moment (field-independent basis, Debye):
    X=              0.6750    Y=             -0.5038    Z=              0.1022  Tot=              0.8484
 Quadrupole moment (field-independent basis, Debye-Ang):
   XX=           -275.0860   YY=           -304.5058   ZZ=           -333.9777
   XY=              0.3635   XZ=             -5.1478   YZ=              2.3315

 Normal termination of Gaussian 16 at Sat Nov  5 02:09:28 2022.
