 Gaussian 16, Revision B.01,
 Gaussian 16:  ES64L-G16RevB.01 20-Dec-2017

 -------------------------------------------------------------------
 #p b3lyp/6-31g(d) 6D 10F nosymm GFInput td=(50-50,nstate=2) SCF=XQC
 -------------------------------------------------------------------

 ------------------------------
 Gaussian input prepared by ASE
 ------------------------------
 Symbolic Z-matrix:
 Charge =  0 Multiplicity = 1

                          Input orientation:
 ---------------------------------------------------------------------
 Center     Atomic      Atomic             Coordinates (Angstroms)
 Number     Number       Type             X           Y           Z
 ---------------------------------------------------------------------
      1          6           0        9.370116    0.368718   -1.188613
      2          6           0        8.643268    1.272454   -0.167271
      3          6           0        9.101605    0.921890    1.266330
      4          6           0        8.863809    2.752859   -0.476801
      5          6           0       10.054763    3.469984   -0.508020
      6          6           0       10.021734    4.834423   -0.819162
      7          6           0        8.807736    5.472951   -1.096031
      8          6           0        7.608250    4.759403   -1.066549
      9          6           0        7.641553    3.397731   -0.755981
     10          6           0        6.562157    2.411297   -0.651650
     11          6           0        5.181821    2.537342   -0.830875
     12          6           0        4.372806    1.416735   -0.666335
     13          6           0        4.925438    0.168856   -0.324477
     14          6           0        4.049281   -1.012100   -0.153140
     15          7           0        4.625581   -2.181410    0.171927
     16          6           0        3.793031   -3.223227    0.316882
     17          6           0        4.381584   -4.537457    0.676027
     18          6           0        3.558695   -5.662290    0.843075
     19          6           0        4.112208   -6.894970    1.180319
     20          6           0        5.492597   -7.020586    1.354847
     21          6           0        6.317884   -5.905422    1.190169
     22          6           0        5.767567   -4.671319    0.853032
     23          7           0        2.462617   -3.154798    0.158342
     24          6           0        1.974593   -1.946212   -0.165510
     25          6           0        0.510998   -1.817073   -0.351235
     26          6           0       -0.332047   -2.925895   -0.186184
     27          6           0       -1.705517   -2.799727   -0.360642
     28          6           0       -2.286922   -1.566180   -0.703200
     29          6           0       -3.753741   -1.480057   -0.932461
     30          6           0       -4.394338   -2.456644   -1.702468
     31          6           0       -5.769295   -2.411143   -1.935015
     32          6           0       -6.523989   -1.380874   -1.389903
     33          6           0       -5.931429   -0.382491   -0.603794
     34          6           0       -4.551394   -0.445990   -0.386970
     35          8           0       -3.886035    0.471076    0.387820
     36          6           0       -4.575579    1.494711    0.990968
     37          6           0       -3.797180    2.355314    1.774226
     38          6           0       -4.398583    3.425535    2.422818
     39          6           0       -5.776175    3.636150    2.290084
     40          6           0       -6.533246    2.769683    1.509900
     41          6           0       -5.950856    1.680222    0.843619
     42          6           0       -6.797316    0.735668   -0.010757
     43          6           0       -7.547907    1.501797   -1.114544
     44          6           0       -7.017512    2.240555   -2.164901
     45          6           0       -7.891329    2.863429   -3.062515
     46          6           0       -9.276820    2.744559   -2.904848
     47          6           0       -9.812104    2.002682   -1.849674
     48          6           0       -8.940688    1.380191   -0.952954
     49          6           0       -9.206297    0.549779    0.230875
     50          6           0      -10.408764    0.137456    0.809935
     51          6           0      -10.366521   -0.662755    1.953647
     52          6           0       -9.141452   -1.045800    2.511550
     53          6           0       -7.936467   -0.633402    1.932657
     54          6           0       -7.976307    0.162373    0.794370
     55          6           0       -1.435256   -0.458757   -0.864894
     56          6           0       -0.061915   -0.582188   -0.694730
     57          7           0        2.728444   -0.848728   -0.331391
     58          6           0        6.317413    0.050309   -0.145868
     59          6           0        7.124948    1.164180   -0.308914
     60          1           0        9.059779    0.601166   -2.212294
     61          1           0        9.149321   -0.687348   -0.995659
     62          1           0       10.455891    0.503682   -1.120864
     63          1           0        8.598551    1.552037    2.006685
     64          1           0       10.183186    1.065283    1.372755
     65          1           0        8.876229   -0.125248    1.498650
     66          1           0       11.004295    2.984562   -0.294620
     67          1           0       10.947472    5.403083   -0.845948
     68          1           0        8.798938    6.532831   -1.335893
     69          1           0        6.667073    5.258800   -1.282152
     70          1           0        4.738583    3.493952   -1.095118
     71          1           0        3.299611    1.488311   -0.799560
     72          1           0        2.489139   -5.552788    0.705145
     73          1           0        3.466265   -7.759560    1.307447
     74          1           0        5.923298   -7.983197    1.618028
     75          1           0        7.392215   -5.998396    1.324885
     76          1           0        6.397912   -3.799167    0.722689
     77          1           0        0.102712   -3.880863    0.086030
     78          1           0       -2.345325   -3.664803   -0.210527
     79          1           0       -3.794640   -3.247797   -2.142794
     80          1           0       -6.245145   -3.173046   -2.545254
     81          1           0       -7.594286   -1.337929   -1.568900
     82          1           0       -2.732800    2.159222    1.856402
     83          1           0       -3.796080    4.094090    3.031320
     84          1           0       -6.255127    4.470719    2.793667
     85          1           0       -7.602650    2.930893    1.407348
     86          1           0       -5.941734    2.334325   -2.289093
     87          1           0       -7.490634    3.444245   -3.888851
     88          1           0       -9.942745    3.234268   -3.610359
     89          1           0      -10.889137    1.913861   -1.732073
     90          1           0      -11.363231    0.432176    0.381167
     91          1           0      -11.294099   -0.991037    2.415019
     92          1           0       -9.125730   -1.668466    3.401924
     93          1           0       -6.985897   -0.931161    2.367625
     94          1           0       -1.855384    0.503167   -1.136469
     95          1           0        0.586516    0.275867   -0.830580
     96          1           0        6.728139   -0.918558    0.117607
 ---------------------------------------------------------------------

 SCF Done:  E(RB3LYP) =  -2357.71192593     A.U. after   16 cycles

 Excitation energies and oscillator strengths:

 Excited state symmetry could not be determined.
 Excited State   1:      Triplet-?Sym    2.6413 eV  469.41 nm  f=0.0000  <S**2>=2.000
     197 ->199         0.56292
     197 ->200        -0.20918
     197 ->202         0.20387
 This state for optimization and/or second-order correction.
 Total Energy, E(TD-HF/TD-DFT) =  -2357.61486164
 Copying the excited state density for this state as the 1-particle RhoCI density.

 Excited state symmetry could not be determined.
 Excited State   2:      Triplet-?Sym    2.8555 eV  434.20 nm  f=0.0000  <S**2>=2.000
     195 ->199        -0.26904
     195 ->200        -0.24739
     195 ->202         0.14572
     197 ->199        -0.14186
     198 ->199         0.32851
     198 ->200         0.28024
     198 ->202        -0.15898

 Excited state symmetry could not be determined.
 Excited State   3:      Singlet-?Sym    3.4051 eV  364.11 nm  f=0.4140  <S**2>=0.000
     197 ->199        -0.15527
     198 ->199         0.61713
     198 ->200         0.28686

 Excited state symmetry could not be determined.
 Excited State   4:      Singlet-?Sym    3.5269 eV  351.54 nm  f=0.0405  <S**2>=0.000
     197 ->200         0.26908
     198 ->199        -0.25818
     198 ->200         0.57669

 Alpha  occ. eigenvalues --  -19.19729 -14.33070 -14.33049 -14.33045 -10.27008
 Alpha  occ. eigenvalues --  -10.26978 -10.26967 -10.25590 -10.25160 -10.22386
 Alpha  occ. eigenvalues --  -10.20780 -10.20378 -10.20336 -10.20204 -10.20145
 Alpha  occ. eigenvalues --  -10.19740 -10.19658 -10.19651 -10.19638 -10.19620
 Alpha  occ. eigenvalues --  -10.19530 -10.19493 -10.19477 -10.19456 -10.19329
 Alpha  occ. eigenvalues --  -10.19326 -10.19294 -10.19251 -10.19246 -10.19244
 Alpha  occ. eigenvalues --  -10.19228 -10.19183 -10.19173 -10.19173 -10.19171
 Alpha  occ. eigenvalues --  -10.19153 -10.19133 -10.19117 -10.19114 -10.19095
 Alpha  occ. eigenvalues --  -10.19078 -10.19073 -10.19061 -10.19036 -10.19016
 Alpha  occ. eigenvalues --  -10.19009 -10.18984 -10.18958 -10.18934 -10.18911
 Alpha  occ. eigenvalues --  -10.18898 -10.18882 -10.18825 -10.18780 -10.18740
 Alpha  occ. eigenvalues --  -10.18697 -10.18637 -10.18008 -10.18007  -1.09081
 Alpha  occ. eigenvalues --   -1.01373  -0.90046  -0.89988  -0.89645  -0.88743
 Alpha  occ. eigenvalues --   -0.86986  -0.85453  -0.85111  -0.84760  -0.84472
 Alpha  occ. eigenvalues --   -0.84274  -0.81212  -0.81167  -0.78340  -0.77781
 Alpha  occ. eigenvalues --   -0.77525  -0.76165  -0.75927  -0.74699  -0.74565
 Alpha  occ. eigenvalues --   -0.74371  -0.74302  -0.74238  -0.74008  -0.73185
 Alpha  occ. eigenvalues --   -0.72763  -0.72167  -0.71530  -0.68696  -0.67648
 Alpha  occ. eigenvalues --   -0.67282  -0.67026  -0.64422  -0.64182  -0.63806
 Alpha  occ. eigenvalues --   -0.62918  -0.62016  -0.60968  -0.60645  -0.59607
 Alpha  occ. eigenvalues --   -0.59427  -0.58763  -0.58525  -0.58038  -0.57660
 Alpha  occ. eigenvalues --   -0.57362  -0.56909  -0.55630  -0.55495  -0.55062
 Alpha  occ. eigenvalues --   -0.53592  -0.52962  -0.52080  -0.50879  -0.50798
 Alpha  occ. eigenvalues --   -0.50196  -0.49506  -0.48977  -0.47878  -0.47598
 Alpha  occ. eigenvalues --   -0.47223  -0.46907  -0.46266  -0.46147  -0.45658
 Alpha  occ. eigenvalues --   -0.45332  -0.45196  -0.45043  -0.45002  -0.44718
 Alpha  occ. eigenvalues --   -0.44267  -0.44033  -0.43761  -0.43691  -0.43613
 Alpha  occ. eigenvalues --   -0.43253  -0.43034  -0.42811  -0.42719  -0.42222
 Alpha  occ. eigenvalues --   -0.42103  -0.41941  -0.41818  -0.41573  -0.41365
 Alpha  occ. eigenvalues --   -0.41079  -0.40958  -0.40292  -0.39174  -0.39019
 Alpha  occ. eigenvalues --   -0.38507  -0.38344  -0.38097  -0.38071  -0.37825
 Alpha  occ. eigenvalues --   -0.37760  -0.37389  -0.36978  -0.36692  -0.36186
 Alpha  occ. eigenvalues --   -0.35995  -0.35951  -0.35476  -0.35407  -0.35148
 Alpha  occ. eigenvalues --   -0.34874  -0.34757  -0.34432  -0.34356  -0.34325
 Alpha  occ. eigenvalues --   -0.34210  -0.34155  -0.33827  -0.33657  -0.32979
 Alpha  occ. eigenvalues --   -0.32368  -0.32217  -0.31951  -0.31793  -0.31602
 Alpha  occ. eigenvalues --   -0.28360  -0.27505  -0.27139  -0.26031  -0.25651
 Alpha  occ. eigenvalues --   -0.25605  -0.25211  -0.25060  -0.24967  -0.24846
 Alpha  occ. eigenvalues --   -0.24825  -0.24519  -0.24284  -0.23911  -0.22815
 Alpha  occ. eigenvalues --   -0.21425  -0.21390  -0.20775
 Alpha virt. eigenvalues --   -0.06765  -0.06432  -0.03314  -0.03077  -0.01536
 Alpha virt. eigenvalues --   -0.01416  -0.01336  -0.00857  -0.00239   0.00220
 Alpha virt. eigenvalues --    0.00429   0.00845   0.01436   0.01618   0.02574

 Mulliken charges:
               1
     1  C   -0.437652
     2  C   -0.061594
     3  C   -0.437663
     4  C    0.103796
     5  C   -0.203028
     6  C   -0.129912
     7  C   -0.136750
     8  C   -0.189800
     9  C    0.077859
    10  C    0.096194
    11  C   -0.202849
    12  C   -0.176560
    13  C    0.081918
    14  C    0.452295
    15  N   -0.544553
    16  C    0.449633
    17  C    0.076785
    18  C   -0.156852
    19  C   -0.140114
    20  C   -0.116292
    21  C   -0.140204
    22  C   -0.156568
    23  N   -0.542976
    24  C    0.449522
    25  C    0.084420
    26  C   -0.166653
    27  C   -0.182998
    28  C    0.112064
    29  C    0.021990
    30  C   -0.187353
    31  C   -0.133857
    32  C   -0.192891
    33  C    0.154336
    34  C    0.233696
    35  O   -0.575077
    36  C    0.287058
    37  C   -0.186589
    38  C   -0.134678
    39  C   -0.133982
    40  C   -0.194400
    41  C    0.149210
    42  C   -0.232595
    43  C    0.117372
    44  C   -0.183569
    45  C   -0.135139
    46  C   -0.134440
    47  C   -0.191088
    48  C    0.070923
    49  C    0.070572
    50  C   -0.191575
    51  C   -0.134330
    52  C   -0.135581
    53  C   -0.183592
    54  C    0.111540
    55  C   -0.160295
    56  C   -0.170987
    57  N   -0.546497
    58  C   -0.245855
    59  C    0.098529
    60  H    0.158066
    61  H    0.148036
    62  H    0.143811
    63  H    0.157996
    64  H    0.143809
    65  H    0.148062
    66  H    0.126239
    67  H    0.129020
    68  H    0.129615
    69  H    0.131241
    70  H    0.131785
    71  H    0.160306
    72  H    0.161230
    73  H    0.133075
    74  H    0.132869
    75  H    0.132241
    76  H    0.159122
    77  H    0.159748
    78  H    0.135004
    79  H    0.137916
    80  H    0.132226
    81  H    0.145306
    82  H    0.147565
    83  H    0.133671
    84  H    0.130498
    85  H    0.144251
    86  H    0.135988
    87  H    0.131251
    88  H    0.130393
    89  H    0.130411
    90  H    0.130424
    91  H    0.130388
    92  H    0.131518
    93  H    0.138440
    94  H    0.139814
    95  H    0.159519
    96  H    0.156821
 Sum of Mulliken charges =  -0.00000

 Dipole moment (field-independent basis, Debye):
    X=             -0.6611    Y=              0.5306    Z=              0.0371  Tot=              0.8485
 Quadrupole moment (field-independent basis, Debye-Ang):
   XX=           -274.6893   YY=           -305.7295   ZZ=           -332.8900
   XY=              0.1093   XZ=              4.6826   YZ=             -6.3122

 Normal termination of Gaussian 16 at Sat Nov  5 12:02:52 2022.
