 Gaussian 16, Revision B.01,
 Gaussian 16:  ES64L-G16RevB.01 20-Dec-2017

 -------------------------------------------------------------------
 #p b3lyp/6-31g(d) 6D 10F nosymm GFInput td=(50-50,nstate=2) SCF=XQC
 -------------------------------------------------------------------

 ------------------------------
 Gaussian input prepared by ASE
 ------------------------------
 Symbolic Z-matrix:
 Charge =  0 Multiplicity = 1

                          Input orientation:
 ---------------------------------------------------------------------
 Center     Atomic      Atomic             Coordinates (Angstroms)
 Number     Number       Type             X           Y           Z
 ---------------------------------------------------------------------
      1          6           0        8.863423    0.920337   -3.343636
      2          6           0        7.777098    0.046580   -3.437432
      3          6           0        7.047106   -0.287283   -2.299465
      4          6           0        7.405181    0.229777   -1.044128
      5          6           0        6.583379   -0.122107    0.146415
      6          7           0        5.273253   -0.112159   -0.033402
      7          6           0        4.461263   -0.367133    1.033117
      8          6           0        3.000821   -0.346521    0.770762
      9          6           0        2.502660   -0.033330   -0.503187
     10          6           0        1.132591   -0.008901   -0.744681
     11          6           0        0.231160   -0.313576    0.283372
     12          7           0       -1.166552   -0.298591    0.035175
     13          6           0       -1.826474   -1.022808   -0.964236
     14          6           0       -1.308896   -1.919644   -1.900833
     15          6           0       -2.225500   -2.553284   -2.735297
     16          6           0       -3.607306   -2.354085   -2.604453
     17          6           0       -4.143439   -1.493802   -1.633784
     18          6           0       -5.606175   -1.394801   -1.391385
     19          6           0       -6.447112   -2.405895   -1.892022
     20          6           0       -7.842888   -2.343531   -1.851948
     21          6           0       -8.471765   -1.228485   -1.317991
     22          6           0       -7.677266   -0.223862   -0.760567
     23          6           0       -8.035152    1.062516   -0.208729
     24          6           0       -9.258496    1.731220   -0.094593
     25          6           0       -9.273155    3.036094    0.386300
     26          6           0       -8.069977    3.675872    0.723655
     27          6           0       -6.843212    3.022034    0.624947
     28          6           0       -6.834127    1.691964    0.183937
     29          7           0       -5.751790    0.816601   -0.049952
     30          6           0       -4.516055    0.894215    0.647819
     31          6           0       -4.355315    1.680897    1.794518
     32          6           0       -3.089007    1.867297    2.372064
     33          6           0       -1.941893    1.279701    1.852135
     34          6           0       -2.119291    0.423104    0.761884
     35          6           0       -3.392235    0.190152    0.189004
     36          6           0       -3.216013   -0.771009   -0.865222
     37          6           0       -6.262343   -0.328939   -0.724522
     38          6           0        0.720661   -0.635430    1.557299
     39          6           0        2.089733   -0.642919    1.797229
     40          7           0        4.868757   -0.607585    2.267761
     41          6           0        6.210636   -0.675031    2.475991
     42          6           0        6.682933   -0.986421    3.778080
     43          6           0        8.032742   -1.120128    4.011578
     44          6           0        8.964104   -0.960317    2.957160
     45          6           0        8.534361   -0.639946    1.687182
     46          6           0        7.151717   -0.462966    1.420585
     47          6           0        8.492499    1.114211   -0.961247
     48          6           0        9.212950    1.459565   -2.104966
     49          1           0        9.429157    1.185028   -4.232835
     50          1           0        7.496046   -0.371654   -4.400176
     51          1           0        6.192832   -0.953070   -2.366403
     52          1           0        3.203234    0.207847   -1.294296
     53          1           0        0.753046    0.262249   -1.724896
     54          1           0       -0.245513   -2.118705   -1.973606
     55          1           0       -1.863843   -3.238450   -3.497093
     56          1           0       -4.266388   -2.884378   -3.281993
     57          1           0       -5.989457   -3.282085   -2.336137
     58          1           0       -8.426390   -3.159917   -2.267699
     59          1           0       -9.553824   -1.131948   -1.329229
     60          1           0      -10.181094    1.242575   -0.396749
     61          1           0      -10.213895    3.571337    0.478205
     62          1           0       -8.087736    4.709347    1.058930
     63          1           0       -5.926614    3.551278    0.852655
     64          1           0       -5.210745    2.156741    2.252624
     65          1           0       -3.008954    2.507146    3.246521
     66          1           0       -0.963268    1.471518    2.276553
     67          1           0        0.023323   -0.892963    2.348242
     68          1           0        2.474498   -0.892692    2.779621
     69          1           0        5.945786   -1.128892    4.561732
     70          1           0        8.389567   -1.366933    5.007907
     71          1           0       10.023906   -1.099607    3.150596
     72          1           0        9.251657   -0.542152    0.880289
     73          1           0        8.754010    1.560317   -0.006582
     74          1           0       10.043061    2.156414   -2.027463
 ---------------------------------------------------------------------

 SCF Done:  E(RB3LYP) =  -1911.43140477     A.U. after   16 cycles

 Excitation energies and oscillator strengths:

 Excited state symmetry could not be determined.
 Excited State   1:      Triplet-?Sym    2.3896 eV  518.84 nm  f=0.0000  <S**2>=2.000
     158 ->162        -0.21749
     159 ->162         0.60846
 This state for optimization and/or second-order correction.
 Total Energy, E(TD-HF/TD-DFT) =  -1911.34358677
 Copying the excited state density for this state as the 1-particle RhoCI density.

 Excited state symmetry could not be determined.
 Excited State   2:      Triplet-?Sym    2.4871 eV  498.51 nm  f=0.0000  <S**2>=2.000
     154 ->160         0.11983
     155 ->160        -0.45766
     157 ->160         0.11606
     158 ->160         0.39529
     158 ->161         0.12925
     159 ->160         0.15405

 Excited state symmetry could not be determined.
 Excited State   3:      Singlet-?Sym    2.6125 eV  474.59 nm  f=0.0038  <S**2>=0.000
     159 ->160         0.70422

 Excited state symmetry could not be determined.
 Excited State   4:      Singlet-?Sym    2.9037 eV  426.98 nm  f=0.1426  <S**2>=0.000
     158 ->160         0.70096

 Alpha  occ. eigenvalues --  -14.38379 -14.38338 -14.33676 -14.33260 -10.26284
 Alpha  occ. eigenvalues --  -10.25578 -10.23964 -10.23899 -10.23643 -10.22869
 Alpha  occ. eigenvalues --  -10.22671 -10.22457 -10.22156 -10.21504 -10.20995
 Alpha  occ. eigenvalues --  -10.20945 -10.20843 -10.20624 -10.20362 -10.20207
 Alpha  occ. eigenvalues --  -10.20202 -10.20108 -10.20041 -10.20032 -10.20000
 Alpha  occ. eigenvalues --  -10.19973 -10.19943 -10.19702 -10.19697 -10.19469
 Alpha  occ. eigenvalues --  -10.19449 -10.18955 -10.18832 -10.18791 -10.18759
 Alpha  occ. eigenvalues --  -10.18744 -10.18689 -10.18679 -10.18668 -10.18558
 Alpha  occ. eigenvalues --  -10.18554 -10.18517 -10.18501 -10.18307 -10.18114
 Alpha  occ. eigenvalues --  -10.18094 -10.18088 -10.18034  -0.99227  -0.98746
 Alpha  occ. eigenvalues --   -0.98144  -0.89975  -0.87530  -0.86768  -0.86102
 Alpha  occ. eigenvalues --   -0.85622  -0.84979  -0.83651  -0.83367  -0.79742
 Alpha  occ. eigenvalues --   -0.78573  -0.78248  -0.76987  -0.76397  -0.75765
 Alpha  occ. eigenvalues --   -0.75398  -0.75224  -0.74737  -0.73562  -0.72819
 Alpha  occ. eigenvalues --   -0.72229  -0.70803  -0.69983  -0.67488  -0.66223
 Alpha  occ. eigenvalues --   -0.65093  -0.63051  -0.62521  -0.62120  -0.61927
 Alpha  occ. eigenvalues --   -0.61390  -0.60875  -0.59582  -0.58995  -0.58918
 Alpha  occ. eigenvalues --   -0.58595  -0.57012  -0.55769  -0.54650  -0.54069
 Alpha  occ. eigenvalues --   -0.53101  -0.52480  -0.52278  -0.51072  -0.50597
 Alpha  occ. eigenvalues --   -0.49660  -0.49207  -0.48463  -0.48247  -0.46845
 Alpha  occ. eigenvalues --   -0.46525  -0.46158  -0.46021  -0.45917  -0.45411
 Alpha  occ. eigenvalues --   -0.45255  -0.44751  -0.44539  -0.44403  -0.43776
 Alpha  occ. eigenvalues --   -0.43540  -0.43316  -0.42895  -0.42744  -0.42638
 Alpha  occ. eigenvalues --   -0.42455  -0.42085  -0.41481  -0.41151  -0.41075
 Alpha  occ. eigenvalues --   -0.40537  -0.38928  -0.38326  -0.38075  -0.37730
 Alpha  occ. eigenvalues --   -0.37478  -0.37205  -0.36690  -0.36539  -0.36393
 Alpha  occ. eigenvalues --   -0.36187  -0.36009  -0.35524  -0.35448  -0.35019
 Alpha  occ. eigenvalues --   -0.34938  -0.34849  -0.34546  -0.33486  -0.33272
 Alpha  occ. eigenvalues --   -0.32796  -0.32723  -0.31307  -0.30419  -0.28720
 Alpha  occ. eigenvalues --   -0.28467  -0.26920  -0.26433  -0.26398  -0.26053
 Alpha  occ. eigenvalues --   -0.25799  -0.25460  -0.24703  -0.24159  -0.22976
 Alpha  occ. eigenvalues --   -0.22132  -0.21147  -0.19434  -0.18090
 Alpha virt. eigenvalues --   -0.07494  -0.04952  -0.04386  -0.02555  -0.01754
 Alpha virt. eigenvalues --   -0.01054  -0.00736  -0.00271   0.00155   0.01610
 Alpha virt. eigenvalues --    0.02212   0.03142   0.03909   0.04647   0.06202

 Mulliken charges:
               1
     1  C   -0.120209
     2  C   -0.137477
     3  C   -0.143235
     4  C    0.100976
     5  C    0.188413
     6  N   -0.536063
     7  C    0.424224
     8  C    0.090696
     9  C   -0.183586
    10  C   -0.162978
    11  C    0.284202
    12  N   -0.749780
    13  C    0.321588
    14  C   -0.175211
    15  C   -0.139772
    16  C   -0.222098
    17  C    0.107028
    18  C    0.120909
    19  C   -0.214698
    20  C   -0.141973
    21  C   -0.193478
    22  C    0.070076
    23  C    0.046287
    24  C   -0.193052
    25  C   -0.143743
    26  C   -0.142532
    27  C   -0.177268
    28  C    0.325534
    29  N   -0.776013
    30  C    0.283790
    31  C   -0.206874
    32  C   -0.150993
    33  C   -0.175143
    34  C    0.311156
    35  C    0.000876
    36  C   -0.020981
    37  C    0.210636
    38  C   -0.162489
    39  C   -0.178293
    40  N   -0.559619
    41  C    0.266897
    42  C   -0.153182
    43  C   -0.128911
    44  C   -0.136487
    45  C   -0.199333
    46  C    0.113097
    47  C   -0.172694
    48  C   -0.138202
    49  H    0.136514
    50  H    0.137555
    51  H    0.150013
    52  H    0.164697
    53  H    0.151856
    54  H    0.142222
    55  H    0.127837
    56  H    0.129658
    57  H    0.131895
    58  H    0.126350
    59  H    0.130379
    60  H    0.130097
    61  H    0.125510
    62  H    0.127671
    63  H    0.151060
    64  H    0.149713
    65  H    0.130549
    66  H    0.142826
    67  H    0.152780
    68  H    0.162928
    69  H    0.148457
    70  H    0.141932
    71  H    0.139583
    72  H    0.155236
    73  H    0.145994
    74  H    0.136671
 Sum of Mulliken charges =  -0.00000

 Dipole moment (field-independent basis, Debye):
    X=              5.3304    Y=             -0.0631    Z=              0.1719  Tot=              5.3336
 Quadrupole moment (field-independent basis, Debye-Ang):
   XX=           -216.2005   YY=           -264.4961   ZZ=           -253.4157
   XY=              0.4161   XZ=              1.4089   YZ=              6.9769

 Normal termination of Gaussian 16 at Sat Nov  5 10:57:29 2022.
