 Gaussian 16, Revision B.01,
 Gaussian 16:  ES64L-G16RevB.01 20-Dec-2017

 -----------------------------
 #p b3lyp/6-31g(d) opt SCF=XQC
 -----------------------------

 ------------------------------
 Gaussian input prepared by ASE
 ------------------------------
 Symbolic Z-matrix:
 Charge =  0 Multiplicity = 1

 SCF Done:  E(RB3LYP) =  -1621.53729653     A.U. after   15 cycles
 SCF Done:  E(RB3LYP) =  -1621.54456473     A.U. after   13 cycles
 SCF Done:  E(RB3LYP) =  -1621.54517422     A.U. after   12 cycles
 SCF Done:  E(RB3LYP) =  -1621.54547065     A.U. after   12 cycles
 SCF Done:  E(RB3LYP) =  -1621.54559014     A.U. after   11 cycles
 SCF Done:  E(RB3LYP) =  -1621.54563279     A.U. after   10 cycles
 SCF Done:  E(RB3LYP) =  -1621.54566781     A.U. after   10 cycles
 SCF Done:  E(RB3LYP) =  -1621.54572088     A.U. after   10 cycles
 SCF Done:  E(RB3LYP) =  -1621.54573783     A.U. after   10 cycles
 SCF Done:  E(RB3LYP) =  -1621.54575497     A.U. after   10 cycles
 SCF Done:  E(RB3LYP) =  -1621.54577697     A.U. after    9 cycles
 SCF Done:  E(RB3LYP) =  -1621.54577746     A.U. after    9 cycles
 SCF Done:  E(RB3LYP) =  -1621.54577797     A.U. after    9 cycles
 SCF Done:  E(RB3LYP) =  -1621.54577857     A.U. after    9 cycles
 SCF Done:  E(RB3LYP) =  -1621.54577894     A.U. after    9 cycles
 SCF Done:  E(RB3LYP) =  -1621.54577967     A.U. after    9 cycles
 SCF Done:  E(RB3LYP) =  -1621.54578044     A.U. after    9 cycles
 SCF Done:  E(RB3LYP) =  -1621.54578081     A.U. after    9 cycles
 SCF Done:  E(RB3LYP) =  -1621.54578096     A.U. after    7 cycles
 SCF Done:  E(RB3LYP) =  -1621.54578100     A.U. after    7 cycles
 Optimization completed.
    -- Stationary point found.

                         Standard orientation:
 ---------------------------------------------------------------------
 Center     Atomic      Atomic             Coordinates (Angstroms)
 Number     Number       Type             X           Y           Z
 ---------------------------------------------------------------------
      1          6           0       -8.797349   -0.765203   -0.211425
      2          7           0       -7.599402   -0.089930    0.236338
      3          6           0       -6.566444   -0.905914    0.863523
      4          7           0       -5.345144   -0.100271    0.719447
      5          6           0       -4.102985   -0.673226    1.043102
      6          6           0       -3.987291   -1.440360    2.218301
      7          6           0       -2.768957   -2.026634    2.548904
      8          6           0       -1.640490   -1.869438    1.743787
      9          6           0       -1.766757   -1.120139    0.571457
     10          8           0       -0.713739   -0.866265   -0.282427
     11          6           0        0.335911   -1.752606   -0.389570
     12          6           0        0.152904   -3.112033   -0.648871
     13          6           0        1.248250   -3.969530   -0.836230
     14          6           0        2.561489   -3.501256   -0.784616
     15          6           0        2.727108   -2.141828   -0.534643
     16          6           0        1.640461   -1.242825   -0.326678
     17          7           0        2.068825    0.062957   -0.088754
     18          6           0        3.368836   -0.052473   -0.146684
     19          7           0        4.448634    0.802310   -0.005186
     20          6           0        4.351210    2.184430    0.317959
     21          6           0        3.329757    2.956827   -0.248168
     22          6           0        3.232267    4.308668    0.076082
     23          6           0        4.148665    4.899672    0.948255
     24          6           0        5.158224    4.121687    1.516269
     25          6           0        5.257223    2.763684    1.214614
     26          6           0        5.617758    0.041865   -0.219361
     27          6           0        6.958732    0.412328   -0.265927
     28          6           0        7.905594   -0.583423   -0.530221
     29          6           0        7.528183   -1.912419   -0.749935
     30          6           0        6.181818   -2.289777   -0.727122
     31          6           0        5.240983   -1.302236   -0.466189
     32          7           0        3.849562   -1.325947   -0.409827
     33          6           0       -2.981823   -0.536543    0.211118
     34          6           0       -5.599134    0.933429   -0.202058
     35          6           0       -4.778919    1.931555   -0.714529
     36          6           0       -5.334747    2.860702   -1.612654
     37          6           0       -6.675960    2.793097   -1.974080
     38          6           0       -7.516327    1.808069   -1.426189
     39          6           0       -6.971873    0.900913   -0.528664
     40          1           0       -9.543142   -0.027678   -0.519500
     41          1           0       -8.614625   -1.453620   -1.055506
     42          1           0       -9.223642   -1.340464    0.617467
     43          1           0       -6.814696   -1.098892    1.916058
     44          1           0       -6.443192   -1.887546    0.359405
     45          1           0       -4.838021   -1.552219    2.881910
     46          1           0       -2.689710   -2.603804    3.466443
     47          1           0       -0.688708   -2.308451    2.018978
     48          1           0       -0.858184   -3.501689   -0.707357
     49          1           0        1.065010   -5.021373   -1.034809
     50          1           0        3.404690   -4.167593   -0.933476
     51          1           0        2.612009    2.492221   -0.914024
     52          1           0        2.435066    4.902709   -0.361810
     53          1           0        4.070312    5.955518    1.190981
     54          1           0        5.865348    4.565645    2.211546
     55          1           0        6.015674    2.151978    1.691069
     56          1           0        7.262815    1.441524   -0.116227
     57          1           0        8.956215   -0.311329   -0.568108
     58          1           0        8.287334   -2.662550   -0.949422
     59          1           0        5.880891   -3.314963   -0.914969
     60          1           0       -3.038138   -0.005439   -0.729730
     61          1           0       -3.736217    2.005362   -0.429708
     62          1           0       -4.697382    3.635796   -2.028378
     63          1           0       -7.086792    3.509223   -2.680138
     64          1           0       -8.568256    1.769545   -1.692767
 ---------------------------------------------------------------------

 The electronic state is 1-A.
 Alpha  occ. eigenvalues --  -19.17812 -14.40472 -14.40313 -14.35981 -14.34854
 Alpha  occ. eigenvalues --  -14.31412 -10.28788 -10.25444 -10.24743 -10.24691
 Alpha  occ. eigenvalues --  -10.24430 -10.24386 -10.24359 -10.23005 -10.22806
 Alpha  occ. eigenvalues --  -10.21905 -10.21412 -10.21344 -10.21143 -10.20788
 Alpha  occ. eigenvalues --  -10.20572 -10.20046 -10.20039 -10.19962 -10.19905
 Alpha  occ. eigenvalues --  -10.19661 -10.19491 -10.19482 -10.19349 -10.18899
 Alpha  occ. eigenvalues --  -10.18769 -10.18375 -10.17872 -10.17708 -10.17652
 Alpha  occ. eigenvalues --  -10.17463 -10.17392 -10.17075 -10.16907  -1.06899
 Alpha  occ. eigenvalues --   -1.06343  -0.99423  -0.97114  -0.91649  -0.91177
 Alpha  occ. eigenvalues --   -0.86020  -0.85336  -0.84540  -0.83708  -0.82845
 Alpha  occ. eigenvalues --   -0.77926  -0.76843  -0.75933  -0.75424  -0.75213
 Alpha  occ. eigenvalues --   -0.74029  -0.73379  -0.73154  -0.72730  -0.71596
 Alpha  occ. eigenvalues --   -0.69927  -0.66375  -0.64965  -0.63870  -0.63274
 Alpha  occ. eigenvalues --   -0.62502  -0.61856  -0.60803  -0.59794  -0.59016
 Alpha  occ. eigenvalues --   -0.58554  -0.57640  -0.56753  -0.54590  -0.54155
 Alpha  occ. eigenvalues --   -0.52463  -0.51376  -0.50079  -0.49899  -0.49587
 Alpha  occ. eigenvalues --   -0.49250  -0.49079  -0.48891  -0.48120  -0.47287
 Alpha  occ. eigenvalues --   -0.47122  -0.46235  -0.46057  -0.45486  -0.45206
 Alpha  occ. eigenvalues --   -0.44698  -0.44600  -0.43921  -0.43363  -0.43214
 Alpha  occ. eigenvalues --   -0.42913  -0.42780  -0.41881  -0.41281  -0.40688
 Alpha  occ. eigenvalues --   -0.40211  -0.39695  -0.38736  -0.38660  -0.38285
 Alpha  occ. eigenvalues --   -0.38054  -0.37708  -0.37250  -0.36955  -0.36878
 Alpha  occ. eigenvalues --   -0.36098  -0.35909  -0.35748  -0.35329  -0.35001
 Alpha  occ. eigenvalues --   -0.34711  -0.33516  -0.33053  -0.32184  -0.31059
 Alpha  occ. eigenvalues --   -0.29859  -0.27886  -0.27835  -0.26614  -0.25923
 Alpha  occ. eigenvalues --   -0.25706  -0.24444  -0.24106  -0.22471  -0.21389
 Alpha  occ. eigenvalues --   -0.20559  -0.19249  -0.16418
 Alpha virt. eigenvalues --   -0.02102  -0.01816  -0.01002  -0.00808  -0.00081
 Alpha virt. eigenvalues --    0.01087   0.02050   0.02348   0.02976   0.03963
 Alpha virt. eigenvalues --    0.07149   0.07910   0.08597   0.08911   0.10102

 Mulliken charges:
               1
     1  C   -0.315388
     2  N   -0.517119
     3  C    0.056375
     4  N   -0.667403
     5  C    0.327546
     6  C   -0.181369
     7  C   -0.144334
     8  C   -0.176264
     9  C    0.353124
    10  O   -0.569751
    11  C    0.269557
    12  C   -0.167086
    13  C   -0.164880
    14  C   -0.150732
    15  C    0.323555
    16  C    0.192874
    17  N   -0.597969
    18  C    0.795832
    19  N   -0.757758
    20  C    0.288624
    21  C   -0.140375
    22  C   -0.143779
    23  C   -0.120773
    24  C   -0.143678
    25  C   -0.164614
    26  C    0.316225
    27  C   -0.183376
    28  C   -0.140729
    29  C   -0.148861
    30  C   -0.161336
    31  C    0.320384
    32  N   -0.742824
    33  C   -0.240160
    34  C    0.345233
    35  C   -0.191621
    36  C   -0.148580
    37  C   -0.142701
    38  C   -0.203118
    39  C    0.300794
    40  H    0.169469
    41  H    0.144481
    42  H    0.158379
    43  H    0.152647
    44  H    0.131728
    45  H    0.126448
    46  H    0.130833
    47  H    0.144973
    48  H    0.141383
    49  H    0.130350
    50  H    0.134484
    51  H    0.175227
    52  H    0.141510
    53  H    0.134599
    54  H    0.136351
    55  H    0.148756
    56  H    0.153143
    57  H    0.135422
    58  H    0.135606
    59  H    0.149499
    60  H    0.156445
    61  H    0.146042
    62  H    0.120414
    63  H    0.118448
    64  H    0.119819
 Sum of Mulliken charges =  -0.00000

 Dipole moment (field-independent basis, Debye):
    X=              2.3333    Y=             -1.9352    Z=              0.4439  Tot=              3.0637
 Quadrupole moment (field-independent basis, Debye-Ang):
   XX=           -170.0173   YY=           -202.0258   ZZ=           -223.1817
   XY=             13.3975   XZ=              1.2615   YZ=             -0.9104

 Normal termination of Gaussian 16 at Sat Nov  5 02:09:16 2022.
