 Gaussian 16, Revision B.01,
 Gaussian 16:  ES64L-G16RevB.01 20-Dec-2017

 -----------------------------
 #p b3lyp/6-31g(d) opt SCF=XQC
 -----------------------------

 ------------------------------
 Gaussian input prepared by ASE
 ------------------------------
 Symbolic Z-matrix:
 Charge =  0 Multiplicity = 1

 SCF Done:  E(RB3LYP) =  -2165.71986053     A.U. after   16 cycles
 SCF Done:  E(RB3LYP) =  -2165.73226362     A.U. after   15 cycles
 SCF Done:  E(RB3LYP) =  -2165.72864617     A.U. after   16 cycles
 SCF Done:  E(RB3LYP) =  -2165.73472933     A.U. after   12 cycles
 SCF Done:  E(RB3LYP) =  -2165.73555873     A.U. after   12 cycles
 SCF Done:  E(RB3LYP) =  -2165.73570929     A.U. after   12 cycles
 SCF Done:  E(RB3LYP) =  -2165.73569526     A.U. after   12 cycles
 SCF Done:  E(RB3LYP) =  -2165.73570594     A.U. after   11 cycles
 SCF Done:  E(RB3LYP) =  -2165.73577027     A.U. after   12 cycles
 SCF Done:  E(RB3LYP) =  -2165.73578999     A.U. after   10 cycles
 SCF Done:  E(RB3LYP) =  -2165.73579393     A.U. after    9 cycles
 SCF Done:  E(RB3LYP) =  -2165.73579486     A.U. after    8 cycles
 SCF Done:  E(RB3LYP) =  -2165.73579529     A.U. after    8 cycles
 SCF Done:  E(RB3LYP) =  -2165.73579538     A.U. after    7 cycles
 SCF Done:  E(RB3LYP) =  -2165.73579577     A.U. after    7 cycles
 SCF Done:  E(RB3LYP) =  -2165.73579585     A.U. after    7 cycles
 SCF Done:  E(RB3LYP) =  -2165.73579585     A.U. after    6 cycles
 Optimization completed.
    -- Stationary point found.

                         Standard orientation:
 ---------------------------------------------------------------------
 Center     Atomic      Atomic             Coordinates (Angstroms)
 Number     Number       Type             X           Y           Z
 ---------------------------------------------------------------------
      1          7           0       -6.732664    3.917291   -4.118127
      2          6           0       -5.888224    4.140553   -3.349988
      3          6           0       -4.848016    4.419714   -2.401585
      4          6           0       -4.543757    5.748946   -2.066096
      5          6           0       -3.526251    6.002008   -1.150423
      6          6           0       -2.818200    4.948809   -0.572430
      7          6           0       -3.109829    3.612915   -0.897844
      8          6           0       -2.351382    2.493117   -0.279878
      9          6           0       -0.968087    2.595387   -0.076537
     10          6           0       -0.236815    1.553120    0.509850
     11          6           0        1.229739    1.678534    0.716194
     12          6           0        2.044219    2.296875   -0.238903
     13          6           0        3.421804    2.417846   -0.001690
     14          6           0        4.329473    3.080453   -0.977496
     15          6           0        3.854885    4.011457   -1.915572
     16          6           0        4.722967    4.615036   -2.824183
     17          6           0        6.082552    4.299526   -2.811537
     18          6           0        6.567698    3.380981   -1.877681
     19          6           0        5.701519    2.780030   -0.967603
     20          7           0        3.993372    1.916806    1.105462
     21          6           0        3.232680    1.300021    2.024417
     22          6           0        3.935004    0.774521    3.226493
     23          6           0        3.390343   -0.256687    4.008762
     24          6           0        4.063674   -0.729985    5.133994
     25          6           0        5.294278   -0.180984    5.497897
     26          6           0        5.849634    0.839857    4.722805
     27          6           0        5.179378    1.310666    3.596418
     28          6           0        1.842864    1.182470    1.871927
     29          6           0       -0.914848    0.392342    0.906513
     30          6           0       -2.291852    0.268086    0.697563
     31          7           0       -2.964459   -0.917186    1.091362
     32          6           0       -4.078033   -0.985403    1.940565
     33          6           0       -4.754009    0.041224    2.604841
     34          6           0       -5.831142   -0.310457    3.416372
     35          6           0       -6.225586   -1.650248    3.570909
     36          6           0       -5.539060   -2.669926    2.918319
     37          6           0       -4.452800   -2.344269    2.097547
     38          6           0       -3.527728   -3.128754    1.308620
     39          6           0       -3.392369   -4.496215    1.044651
     40          6           0       -2.383020   -4.930696    0.194849
     41          6           0       -1.487878   -4.022239   -0.418060
     42          6           0       -0.421608   -4.515605   -1.325845
     43          6           0       -0.673636   -5.606717   -2.209915
     44          6           0        0.299235   -6.075343   -3.059457
     45          6           0        1.593975   -5.491444   -3.087333
     46          6           0        2.622723   -5.950417   -3.951540
     47          6           0        3.865564   -5.357292   -3.944700
     48          6           0        4.135660   -4.275817   -3.069911
     49          6           0        3.158722   -3.807604   -2.220589
     50          6           0        1.864207   -4.395502   -2.205285
     51          6           0        0.837257   -3.937164   -1.341021
     52          6           0       -1.616914   -2.649546   -0.160711
     53          6           0       -2.621836   -2.220866    0.705955
     54          6           0       -3.005318    1.313165    0.102128
     55          6           0       -4.133603    3.361441   -1.820554
     56          1           0       -5.101420    6.561123   -2.520493
     57          1           0       -3.288477    7.025956   -0.877642
     58          1           0       -2.044517    5.161752    0.159413
     59          1           0       -0.450440    3.499920   -0.379879
     60          1           0        1.615725    2.640208   -1.173643
     61          1           0        2.805092    4.289866   -1.923619
     62          1           0        4.336952    5.338182   -3.537682
     63          1           0        6.759026    4.768821   -3.520814
     64          1           0        7.625056    3.130058   -1.859879
     65          1           0        6.070267    2.067653   -0.237923
     66          1           0        2.447336   -0.715322    3.725822
     67          1           0        3.629315   -1.534399    5.721504
     68          1           0        5.818547   -0.549103    6.375722
     69          1           0        6.807992    1.272275    4.998241
     70          1           0        5.604598    2.101083    2.987797
     71          1           0        1.239348    0.748342    2.660957
     72          1           0       -0.372921   -0.427203    1.366179
     73          1           0       -4.450904    1.077753    2.500609
     74          1           0       -6.373879    0.471040    3.941050
     75          1           0       -7.071247   -1.890349    4.208836
     76          1           0       -5.838506   -3.706747    3.046810
     77          1           0       -4.067925   -5.214557    1.501563
     78          1           0       -2.260541   -5.994146    0.014316
     79          1           0       -1.663834   -6.052449   -2.227235
     80          1           0        0.082204   -6.900707   -3.733755
     81          1           0        2.411927   -6.781336   -4.620958
     82          1           0        4.645301   -5.717481   -4.610358
     83          1           0        5.120216   -3.815949   -3.072656
     84          1           0        3.364602   -2.977374   -1.548923
     85          1           0        1.065962   -3.124262   -0.656163
     86          1           0       -0.965971   -1.938701   -0.657849
     87          1           0       -4.074483    1.205321   -0.047530
     88          1           0       -4.367655    2.342834   -2.112012
 ---------------------------------------------------------------------

 The electronic state is 1-A.
 Alpha  occ. eigenvalues --  -14.39041 -14.33953 -14.33146 -10.25470 -10.24768
 Alpha  occ. eigenvalues --  -10.23913 -10.23893 -10.23229 -10.23084 -10.23084
 Alpha  occ. eigenvalues --  -10.23081 -10.22786 -10.22629 -10.22598 -10.22570
 Alpha  occ. eigenvalues --  -10.22550 -10.22185 -10.22044 -10.21515 -10.21453
 Alpha  occ. eigenvalues --  -10.21422 -10.20393 -10.20376 -10.20163 -10.20133
 Alpha  occ. eigenvalues --  -10.20060 -10.19938 -10.19612 -10.19607 -10.19542
 Alpha  occ. eigenvalues --  -10.19505 -10.19455 -10.19401 -10.19398 -10.19393
 Alpha  occ. eigenvalues --  -10.19370 -10.19368 -10.19313 -10.19301 -10.19291
 Alpha  occ. eigenvalues --  -10.19255 -10.19246 -10.19210 -10.19141 -10.19004
 Alpha  occ. eigenvalues --  -10.18978 -10.18937 -10.18919 -10.18902 -10.18894
 Alpha  occ. eigenvalues --  -10.18867 -10.18856 -10.18849 -10.18634 -10.18621
 Alpha  occ. eigenvalues --   -0.99763  -0.95202  -0.91208  -0.89699  -0.88137
 Alpha  occ. eigenvalues --   -0.87323  -0.86118  -0.85574  -0.85288  -0.85045
 Alpha  occ. eigenvalues --   -0.83147  -0.82190  -0.80546  -0.79735  -0.78833
 Alpha  occ. eigenvalues --   -0.78484  -0.77094  -0.76251  -0.75730  -0.75456
 Alpha  occ. eigenvalues --   -0.74938  -0.74713  -0.74552  -0.74481  -0.72727
 Alpha  occ. eigenvalues --   -0.72344  -0.72066  -0.70436  -0.66922  -0.66440
 Alpha  occ. eigenvalues --   -0.65617  -0.65179  -0.64523  -0.63230  -0.62162
 Alpha  occ. eigenvalues --   -0.61862  -0.60810  -0.60762  -0.60468  -0.60289
 Alpha  occ. eigenvalues --   -0.59407  -0.59060  -0.57982  -0.57678  -0.56967
 Alpha  occ. eigenvalues --   -0.55860  -0.53790  -0.52638  -0.52572  -0.52260
 Alpha  occ. eigenvalues --   -0.51504  -0.51446  -0.51067  -0.50754  -0.50389
 Alpha  occ. eigenvalues --   -0.49554  -0.49363  -0.49128  -0.48112  -0.47796
 Alpha  occ. eigenvalues --   -0.47522  -0.46446  -0.46005  -0.45720  -0.45401
 Alpha  occ. eigenvalues --   -0.44941  -0.44810  -0.44592  -0.44139  -0.43951
 Alpha  occ. eigenvalues --   -0.43844  -0.43536  -0.43395  -0.43084  -0.42573
 Alpha  occ. eigenvalues --   -0.42503  -0.42359  -0.42142  -0.41989  -0.41476
 Alpha  occ. eigenvalues --   -0.41233  -0.41159  -0.41079  -0.40366  -0.39962
 Alpha  occ. eigenvalues --   -0.39637  -0.39221  -0.38668  -0.38301  -0.38002
 Alpha  occ. eigenvalues --   -0.37852  -0.37373  -0.37166  -0.36783  -0.36168
 Alpha  occ. eigenvalues --   -0.36013  -0.35996  -0.35711  -0.35497  -0.35219
 Alpha  occ. eigenvalues --   -0.34766  -0.34659  -0.34632  -0.34226  -0.34082
 Alpha  occ. eigenvalues --   -0.33631  -0.33344  -0.33298  -0.32731  -0.32236
 Alpha  occ. eigenvalues --   -0.31380  -0.29702  -0.29361  -0.28687  -0.27802
 Alpha  occ. eigenvalues --   -0.27434  -0.26460  -0.26184  -0.25687  -0.25328
 Alpha  occ. eigenvalues --   -0.25242  -0.25127  -0.24479  -0.24371  -0.22654
 Alpha  occ. eigenvalues --   -0.22043  -0.20525  -0.20245
 Alpha virt. eigenvalues --   -0.06448  -0.05866  -0.04903  -0.04740  -0.04714
 Alpha virt. eigenvalues --   -0.02790  -0.02566  -0.00872  -0.00533  -0.00249
 Alpha virt. eigenvalues --   -0.00170   0.00192   0.02138   0.02896   0.03194

 Mulliken charges:
               1
     1  N   -0.474936
     2  C    0.239696
     3  C    0.132039
     4  C   -0.134632
     5  C   -0.137275
     6  C   -0.161760
     7  C    0.082664
     8  C    0.083244
     9  C   -0.220877
    10  C    0.085143
    11  C    0.117439
    12  C   -0.233115
    13  C    0.259605
    14  C    0.096759
    15  C   -0.175340
    16  C   -0.137757
    17  C   -0.122087
    18  C   -0.135255
    19  C   -0.159544
    20  N   -0.563518
    21  C    0.258571
    22  C    0.096338
    23  C   -0.176280
    24  C   -0.137888
    25  C   -0.122132
    26  C   -0.135446
    27  C   -0.159200
    28  C   -0.232268
    29  C   -0.205069
    30  C    0.285839
    31  N   -0.752301
    32  C    0.314554
    33  C   -0.177663
    34  C   -0.140722
    35  C   -0.144086
    36  C   -0.196258
    37  C    0.058069
    38  C    0.065920
    39  C   -0.201310
    40  C   -0.197060
    41  C    0.089877
    42  C    0.087432
    43  C   -0.176006
    44  C   -0.199441
    45  C    0.140360
    46  C   -0.192649
    47  C   -0.134724
    48  C   -0.137203
    49  C   -0.189992
    50  C    0.138841
    51  C   -0.257748
    52  C   -0.237517
    53  C    0.318602
    54  C   -0.206911
    55  C   -0.188144
    56  H    0.162732
    57  H    0.150552
    58  H    0.149928
    59  H    0.141360
    60  H    0.147965
    61  H    0.125220
    62  H    0.131366
    63  H    0.132073
    64  H    0.132904
    65  H    0.156520
    66  H    0.128866
    67  H    0.132977
    68  H    0.132039
    69  H    0.132589
    70  H    0.155681
    71  H    0.148843
    72  H    0.158282
    73  H    0.138400
    74  H    0.129776
    75  H    0.127432
    76  H    0.132543
    77  H    0.133758
    78  H    0.130945
    79  H    0.133645
    80  H    0.130801
    81  H    0.129564
    82  H    0.129940
    83  H    0.131372
    84  H    0.132726
    85  H    0.128707
    86  H    0.145836
    87  H    0.161273
    88  H    0.166510
 Sum of Mulliken charges =  -0.00000

 Dipole moment (field-independent basis, Debye):
    X=              2.7529    Y=              1.6121    Z=              2.5232  Tot=              4.0674
 Quadrupole moment (field-independent basis, Debye-Ang):
   XX=           -327.6434   YY=           -281.5647   ZZ=           -316.4781
   XY=              8.1212   XZ=            -29.3356   YZ=              4.4222

 1\1\GINC-NODE03\FOpt\RB3LYP\6-31G(d)\C52H33N3\WYKGROUP\05-Nov-2022\0\\
 #p b3lyp/6-31g(d) opt SCF=XQC\\Gaussian input prepared by ASE\\0,1\N,1
 .2571142411,1.7247382142,-8.7389718663\C,0.4265252916,1.4135457436,-7.
 9864801301\C,-0.6008293509,1.0290302674,-7.0612121314\C,-1.9503122452,
 1.1000576149,-7.4430962395\C,-2.9343667934,0.7309551703,-6.5302898856\
 C,-2.5848103242,0.2950623446,-5.252617048\C,-1.2389942503,0.2187609003
 ,-4.8544804176\C,-0.8710211712,-0.2455312363,-3.4906256874\C,-1.628996
 0623,0.1419576962,-2.3767861593\C,-1.3015753753,-0.2901607686,-1.08411

 Normal termination of Gaussian 16 at Sat Nov  5 02:21:03 2022.
