 Gaussian 16, Revision B.01,
 Gaussian 16:  ES64L-G16RevB.01 20-Dec-2017

 -------------------------------------------------------------------
 #p b3lyp/6-31g(d) 6D 10F nosymm GFInput td=(50-50,nstate=2) SCF=XQC
 -------------------------------------------------------------------

 ------------------------------
 Gaussian input prepared by ASE
 ------------------------------
 Symbolic Z-matrix:
 Charge =  0 Multiplicity = 1

                          Input orientation:
 ---------------------------------------------------------------------
 Center     Atomic      Atomic             Coordinates (Angstroms)
 Number     Number       Type             X           Y           Z
 ---------------------------------------------------------------------
      1          6           0       11.030144    0.617262    2.101154
      2          7           0        9.895288    0.535411    1.783262
      3          6           0        8.564251    0.445191    1.408371
      4          6           0        7.913145    1.590576    0.904279
      5          6           0        6.580967    1.537585    0.514644
      6          6           0        5.907830    0.317300    0.631540
      7          6           0        6.550551   -0.836840    1.152328
      8          6           0        7.889476   -0.770951    1.539608
      9          6           0        5.564226   -1.896511    1.167147
     10          6           0        5.599009   -3.242688    1.549382
     11          6           0        4.448506   -4.013159    1.413987
     12          6           0        3.268834   -3.452137    0.894339
     13          6           0        3.207916   -2.115354    0.507327
     14          6           0        4.362928   -1.343438    0.657756
     15          7           0        4.581245    0.002911    0.333729
     16          6           0        3.615500    0.894538   -0.205578
     17          6           0        2.402675    1.110264    0.463401
     18          6           0        1.452724    1.975389   -0.068125
     19          6           0        1.686299    2.661838   -1.274393
     20          6           0        0.738556    3.635660   -1.844728
     21          6           0       -0.610639    3.669934   -1.825345
     22          6           0       -1.593120    2.676116   -1.357036
     23          6           0       -2.825767    3.123030   -0.847842
     24          6           0       -3.803605    2.228965   -0.421005
     25          6           0       -3.585380    0.851232   -0.531399
     26          7           0       -4.584304   -0.071056   -0.114210
     27          6           0       -4.411891   -1.091123    0.833725
     28          6           0       -3.282317   -1.416192    1.588461
     29          6           0       -3.388549   -2.477412    2.484819
     30          6           0       -4.587581   -3.196056    2.632737
     31          6           0       -5.712540   -2.859152    1.886381
     32          6           0       -5.631782   -1.796446    0.979076
     33          6           0       -6.581017   -1.176565    0.077840
     34          6           0       -7.916338   -1.429942   -0.229524
     35          6           0       -8.556033   -0.632613   -1.189262
     36          6           0       -9.928978   -0.874070   -1.517940
     37          7           0      -11.044951   -1.068436   -1.786219
     38          6           0       -7.854216    0.408611   -1.841975
     39          6           0       -6.524548    0.673847   -1.545902
     40          6           0       -5.896359   -0.116859   -0.577012
     41          6           0       -2.377253    0.386517   -1.068523
     42          6           0       -1.396015    1.286968   -1.468439
     43          6           0        2.923396    2.459586   -1.912440
     44          6           0        3.869457    1.575523   -1.401737
     45          1           0        8.470996    2.517696    0.828233
     46          1           0        6.082591    2.423557    0.136857
     47          1           0        8.409556   -1.634843    1.940258
     48          1           0        6.513164   -3.679995    1.941836
     49          1           0        4.461080   -5.058692    1.707407
     50          1           0        2.383977   -4.073610    0.787810
     51          1           0        2.296638   -1.692256    0.098139
     52          1           0        2.220999    0.613621    1.411498
     53          1           0        0.528526    2.146012    0.473512
     54          1           0        1.222224    4.472783   -2.347822
     55          1           0       -1.063827    4.570380   -2.239552
     56          1           0       -3.010884    4.191108   -0.766058
     57          1           0       -4.734030    2.593393    0.003295
     58          1           0       -2.356541   -0.860055    1.485862
     59          1           0       -2.524558   -2.751293    3.083954
     60          1           0       -4.635622   -4.018862    3.339867
     61          1           0       -6.641375   -3.409715    2.008735
     62          1           0       -8.461539   -2.232289    0.257457
     63          1           0       -8.370816    1.003843   -2.587672
     64          1           0       -5.991844    1.468116   -2.057213
     65          1           0       -2.223049   -0.681235   -1.190087
     66          1           0       -0.475019    0.910892   -1.900704
     67          1           0        3.136890    2.989392   -2.837401
     68          1           0        4.802727    1.404798   -1.929253
 ---------------------------------------------------------------------

 SCF Done:  E(RB3LYP) =  -1757.70230654     A.U. after   16 cycles

 Excitation energies and oscillator strengths:

 Excited state symmetry could not be determined.
 Excited State   1:      Triplet-?Sym    2.4740 eV  501.15 nm  f=0.0000  <S**2>=2.000
     142 ->147        -0.43546
     145 ->147         0.14432
     146 ->147         0.48997
 This state for optimization and/or second-order correction.
 Total Energy, E(TD-HF/TD-DFT) =  -1757.61138963
 Copying the excited state density for this state as the 1-particle RhoCI density.

 Excited state symmetry could not be determined.
 Excited State   2:      Triplet-?Sym    3.1044 eV  399.39 nm  f=0.0000  <S**2>=2.000
     140 ->148        -0.12053
     141 ->149        -0.11403
     143 ->148         0.29085
     143 ->150         0.10371
     144 ->149         0.30017
     145 ->147         0.25072
     145 ->150        -0.18327
     145 ->152         0.15204
     146 ->150        -0.16381
     146 ->152        -0.17308

 Excited state symmetry could not be determined.
 Excited State   3:      Singlet-?Sym    3.2785 eV  378.18 nm  f=0.4719  <S**2>=0.000
     146 ->147         0.69889

 Excited state symmetry could not be determined.
 Excited State   4:      Singlet-?Sym    3.4993 eV  354.31 nm  f=0.0801  <S**2>=0.000
     145 ->147         0.69948

 Alpha  occ. eigenvalues --  -14.40443 -14.40168 -14.36878 -14.32586 -10.25756
 Alpha  occ. eigenvalues --  -10.25656 -10.25475 -10.24980 -10.24580 -10.24273
 Alpha  occ. eigenvalues --  -10.24093 -10.23137 -10.22545 -10.22452 -10.22026
 Alpha  occ. eigenvalues --  -10.21850 -10.21824 -10.21812 -10.21739 -10.21732
 Alpha  occ. eigenvalues --  -10.21697 -10.21688 -10.21659 -10.21624 -10.21621
 Alpha  occ. eigenvalues --  -10.21610 -10.21553 -10.21371 -10.21337 -10.21239
 Alpha  occ. eigenvalues --  -10.21218 -10.21187 -10.21118 -10.21040 -10.20660
 Alpha  occ. eigenvalues --  -10.20531 -10.20481 -10.20465 -10.20390 -10.20368
 Alpha  occ. eigenvalues --  -10.20323 -10.20240 -10.19753 -10.19591  -1.01138
 Alpha  occ. eigenvalues --   -1.00873  -0.95712  -0.89890  -0.89230  -0.88889
 Alpha  occ. eigenvalues --   -0.86792  -0.86403  -0.86128  -0.85834  -0.82441
 Alpha  occ. eigenvalues --   -0.80890  -0.79571  -0.78198  -0.77981  -0.77504
 Alpha  occ. eigenvalues --   -0.77295  -0.77094  -0.75883  -0.74397  -0.73889
 Alpha  occ. eigenvalues --   -0.73714  -0.72608  -0.68585  -0.67215  -0.65221
 Alpha  occ. eigenvalues --   -0.64815  -0.64517  -0.63834  -0.63353  -0.62984
 Alpha  occ. eigenvalues --   -0.60482  -0.59926  -0.59691  -0.59545  -0.57862
 Alpha  occ. eigenvalues --   -0.57076  -0.55736  -0.55593  -0.55170  -0.53528
 Alpha  occ. eigenvalues --   -0.53381  -0.52021  -0.50609  -0.49336  -0.49145
 Alpha  occ. eigenvalues --   -0.48864  -0.48607  -0.48370  -0.47351  -0.46730
 Alpha  occ. eigenvalues --   -0.46210  -0.45938  -0.45789  -0.45353  -0.44927
 Alpha  occ. eigenvalues --   -0.44838  -0.44712  -0.44465  -0.44344  -0.44180
 Alpha  occ. eigenvalues --   -0.43689  -0.43527  -0.43218  -0.42789  -0.41862
 Alpha  occ. eigenvalues --   -0.41317  -0.40988  -0.39850  -0.39668  -0.39186
 Alpha  occ. eigenvalues --   -0.38809  -0.38317  -0.38059  -0.37557  -0.37089
 Alpha  occ. eigenvalues --   -0.36680  -0.36458  -0.36316  -0.35888  -0.35705
 Alpha  occ. eigenvalues --   -0.35567  -0.35307  -0.34911  -0.33608  -0.33563
 Alpha  occ. eigenvalues --   -0.32803  -0.32202  -0.31514  -0.29789  -0.29628
 Alpha  occ. eigenvalues --   -0.29620  -0.28448  -0.28050  -0.27598  -0.26679
 Alpha  occ. eigenvalues --   -0.26376  -0.24237  -0.23302  -0.23063  -0.21757
 Alpha  occ. eigenvalues --   -0.21081
 Alpha virt. eigenvalues --   -0.07240  -0.04692  -0.04542  -0.03740  -0.03477
 Alpha virt. eigenvalues --   -0.03022  -0.02276  -0.02178   0.00263   0.00720
 Alpha virt. eigenvalues --    0.02193   0.02414   0.03598   0.03872   0.04418

 Mulliken charges:
               1
     1  C   -0.091621
     2  N   -0.321622
     3  C    0.286326
     4  C   -0.141524
     5  C   -0.182955
     6  C    0.329701
     7  C    0.056785
     8  C   -0.206599
     9  C    0.058273
    10  C   -0.192409
    11  C   -0.144328
    12  C   -0.139960
    13  C   -0.174043
    14  C    0.313562
    15  N   -0.738972
    16  C    0.264153
    17  C   -0.151381
    18  C   -0.193671
    19  C    0.156687
    20  C   -0.188640
    21  C   -0.189558
    22  C    0.157447
    23  C   -0.199864
    24  C   -0.151134
    25  C    0.259812
    26  N   -0.735592
    27  C    0.312151
    28  C   -0.173714
    29  C   -0.139696
    30  C   -0.143956
    31  C   -0.192567
    32  C    0.061986
    33  C    0.062816
    34  C   -0.219404
    35  C    0.126677
    36  C    0.228313
    37  N   -0.488198
    38  C   -0.158635
    39  C   -0.173997
    40  C    0.329818
    41  C   -0.149901
    42  C   -0.193462
    43  C   -0.199791
    44  C   -0.152584
    45  H    0.155296
    46  H    0.151743
    47  H    0.157044
    48  H    0.137702
    49  H    0.132023
    50  H    0.132657
    51  H    0.139554
    52  H    0.156328
    53  H    0.152869
    54  H    0.142584
    55  H    0.142560
    56  H    0.143266
    57  H    0.157062
    58  H    0.140767
    59  H    0.133831
    60  H    0.133181
    61  H    0.139161
    62  H    0.158878
    63  H    0.156120
    64  H    0.152544
    65  H    0.156652
    66  H    0.153955
    67  H    0.142663
    68  H    0.156835
 Sum of Mulliken charges =  -0.00000

 Dipole moment (field-independent basis, Debye):
    X=              1.0176    Y=              2.1026    Z=             -0.7163  Tot=              2.4433
 Quadrupole moment (field-independent basis, Debye-Ang):
   XX=           -419.8358   YY=           -224.9669   ZZ=           -251.0210
   XY=            -16.2685   XZ=            -37.3383   YZ=            -18.3088

 Normal termination of Gaussian 16 at Sat Nov  5 11:06:21 2022.
