 Gaussian 16, Revision B.01,
 Gaussian 16:  ES64L-G16RevB.01 20-Dec-2017

 -------------------------------------------------------------------
 #p b3lyp/6-31g(d) 6D 10F nosymm GFInput td=(50-50,nstate=2) SCF=XQC
 -------------------------------------------------------------------

 ------------------------------
 Gaussian input prepared by ASE
 ------------------------------
 Symbolic Z-matrix:
 Charge =  0 Multiplicity = 1

                          Input orientation:
 ---------------------------------------------------------------------
 Center     Atomic      Atomic             Coordinates (Angstroms)
 Number     Number       Type             X           Y           Z
 ---------------------------------------------------------------------
      1          6           0       -5.172539    0.459069    3.386867
      2          6           0       -5.928474    0.665366    2.054861
      3          6           0       -6.641698   -0.643277    1.646764
      4          6           0       -6.913851    1.830210    2.149158
      5          6           0       -8.014855    1.972498    2.985970
      6          6           0       -8.789562    3.136051    2.904903
      7          6           0       -8.460234    4.144138    1.993106
      8          6           0       -7.355187    4.007051    1.149881
      9          6           0       -6.582542    2.846313    1.230768
     10          6           0       -5.386996    2.435020    0.485013
     11          6           0       -4.672014    3.090839   -0.513076
     12          6           0       -3.551514    2.449894   -1.054423
     13          6           0       -2.583778    2.829367   -2.062987
     14          6           0       -2.433815    3.957385   -2.877962
     15          6           0       -1.377431    4.004879   -3.783135
     16          6           0       -0.474841    2.932690   -3.884840
     17          6           0       -0.600972    1.798285   -3.085019
     18          6           0       -1.656105    1.762689   -2.169820
     19          7           0       -2.023872    0.751381   -1.271261
     20          6           0       -1.350201   -0.485817   -1.099477
     21          6           0       -2.055748   -1.688264   -1.221847
     22          6           0       -1.409454   -2.920024   -1.040200
     23          6           0       -2.163144   -4.195223   -1.169089
     24          6           0       -3.168696   -4.350724   -2.138781
     25          6           0       -3.875287   -5.546969   -2.259111
     26          6           0       -3.594429   -6.619880   -1.417847
     27          6           0       -2.591255   -6.481727   -0.444899
     28          6           0       -2.289792   -7.574607    0.434968
     29          7           0       -2.043795   -8.461813    1.145964
     30          6           0       -1.884223   -5.276402   -0.322782
     31          6           0       -0.037958   -2.925571   -0.754111
     32          6           0        0.677752   -1.727800   -0.641776
     33          6           0        2.134970   -1.750743   -0.343978
     34          7           0        2.708566   -2.942518   -0.131710
     35          6           0        4.026657   -2.914942    0.131441
     36          6           0        4.713694   -4.204851    0.375733
     37          6           0        3.993399   -5.409839    0.352766
     38          6           0        4.640759   -6.620627    0.584757
     39          6           0        6.013951   -6.643612    0.841056
     40          6           0        6.737618   -5.448644    0.864938
     41          6           0        6.093393   -4.235970    0.634642
     42          7           0        4.756625   -1.790921    0.187736
     43          6           0        4.095168   -0.644911   -0.037329
     44          6           0        4.857896    0.620965    0.015122
     45          6           0        4.222931    1.850980   -0.219290
     46          6           0        4.942205    3.038582   -0.168060
     47          6           0        6.319571    3.044334    0.117553
     48          6           0        7.085349    4.313818    0.171785
     49          6           0        6.801820    5.366585   -0.715391
     50          6           0        7.521860    6.558892   -0.665069
     51          6           0        8.540529    6.726058    0.274919
     52          6           0        8.833091    5.689745    1.163546
     53          6           0        8.114218    4.496790    1.111877
     54          6           0        6.947361    1.807082    0.350204
     55          6           0        6.232410    0.616952    0.300930
     56          7           0        2.779942   -0.577809   -0.308766
     57          6           0        0.015022   -0.505242   -0.805044
     58          6           0       -3.175642    1.161686   -0.587723
     59          6           0       -3.881838    0.503874    0.428144
     60          6           0       -4.989157    1.155604    0.951722
     61          1           0       -5.866693    0.171475    4.185083
     62          1           0       -4.424210   -0.336279    3.289945
     63          1           0       -4.659343    1.375782    3.694090
     64          1           0       -7.183545   -0.518781    0.703692
     65          1           0       -7.360383   -0.948756    2.416070
     66          1           0       -5.917926   -1.457410    1.522157
     67          1           0       -8.278095    1.193728    3.698333
     68          1           0       -9.652173    3.256342    3.554873
     69          1           0       -9.069551    5.042622    1.939942
     70          1           0       -7.104961    4.794593    0.443300
     71          1           0       -4.967378    4.076979   -0.862506
     72          1           0       -3.136727    4.783365   -2.806935
     73          1           0       -1.250280    4.875731   -4.419857
     74          1           0        0.339159    2.984202   -4.602791
     75          1           0        0.096778    0.972514   -3.176167
     76          1           0       -3.117011   -1.654893   -1.445643
     77          1           0       -3.382339   -3.533546   -2.821467
     78          1           0       -4.643143   -5.645367   -3.020761
     79          1           0       -4.136772   -7.555499   -1.505011
     80          1           0       -1.129390   -5.181760    0.450775
     81          1           0        0.498020   -3.860356   -0.641085
     82          1           0        2.928350   -5.381265    0.153779
     83          1           0        4.073900   -7.547333    0.566712
     84          1           0        6.518043   -7.589266    1.022049
     85          1           0        7.805729   -5.462647    1.063947
     86          1           0        6.644604   -3.302812    0.651560
     87          1           0        3.160162    1.862814   -0.432433
     88          1           0        4.424993    3.980663   -0.324692
     89          1           0        6.028926    5.237799   -1.467867
     90          1           0        7.291501    7.355996   -1.366979
     91          1           0        9.101300    7.655897    0.314775
     92          1           0        9.617960    5.812721    1.905156
     93          1           0        8.332477    3.707431    1.825646
     94          1           0        8.015368    1.778741    0.545683
     95          1           0        6.729759   -0.330535    0.474081
     96          1           0        0.565696    0.420199   -0.691053
     97          1           0       -3.568663   -0.469434    0.793346
 ---------------------------------------------------------------------

 SCF Done:  E(RB3LYP) =  -2391.99503899     A.U. after   16 cycles

 Excitation energies and oscillator strengths:

 Excited state symmetry could not be determined.
 Excited State   1:      Triplet-?Sym    2.5607 eV  484.19 nm  f=0.0000  <S**2>=2.000
     201 ->202         0.66333
     201 ->203        -0.13087
 This state for optimization and/or second-order correction.
 Total Energy, E(TD-HF/TD-DFT) =  -2391.90093649
 Copying the excited state density for this state as the 1-particle RhoCI density.

 Excited state symmetry could not be determined.
 Excited State   2:      Singlet-?Sym    2.6539 eV  467.17 nm  f=0.0045  <S**2>=0.000
     201 ->202         0.68732
     201 ->203        -0.13746

 Excited state symmetry could not be determined.
 Excited State   3:      Triplet-?Sym    2.7858 eV  445.06 nm  f=0.0000  <S**2>=2.000
     196 ->203         0.10405
     199 ->202        -0.29496
     199 ->203        -0.31155
     199 ->206         0.14814
     201 ->203         0.43277

 Excited state symmetry could not be determined.
 Excited State   4:      Singlet-?Sym    2.8300 eV  438.11 nm  f=0.0095  <S**2>=0.000
     201 ->202         0.14111
     201 ->203         0.68949

 Alpha  occ. eigenvalues --  -14.38769 -14.34349 -14.34347 -14.34215 -14.33822
 Alpha  occ. eigenvalues --  -10.28375 -10.28145 -10.28139 -10.25070 -10.24534
 Alpha  occ. eigenvalues --  -10.23116 -10.22916 -10.22792 -10.22737 -10.22390
 Alpha  occ. eigenvalues --  -10.22313 -10.22297 -10.21911 -10.21841 -10.21785
 Alpha  occ. eigenvalues --  -10.21469 -10.21047 -10.20904 -10.20864 -10.20577
 Alpha  occ. eigenvalues --  -10.20498 -10.20452 -10.20436 -10.20046 -10.19767
 Alpha  occ. eigenvalues --  -10.19756 -10.19682 -10.19677 -10.19631 -10.19623
 Alpha  occ. eigenvalues --  -10.19606 -10.19593 -10.19570 -10.19551 -10.19517
 Alpha  occ. eigenvalues --  -10.19494 -10.19475 -10.19181 -10.19172 -10.19115
 Alpha  occ. eigenvalues --  -10.19099 -10.19073 -10.19034 -10.19020 -10.18964
 Alpha  occ. eigenvalues --  -10.18780 -10.18695 -10.18572 -10.18558 -10.18510
 Alpha  occ. eigenvalues --  -10.18471 -10.18438 -10.18401 -10.17954 -10.17839
 Alpha  occ. eigenvalues --   -1.02643  -0.99463  -0.91367  -0.91186  -0.91016
 Alpha  occ. eigenvalues --   -0.89133  -0.88392  -0.87386  -0.87196  -0.85754
 Alpha  occ. eigenvalues --   -0.85012  -0.84647  -0.83921  -0.81421  -0.80547
 Alpha  occ. eigenvalues --   -0.78775  -0.78748  -0.78353  -0.76962  -0.76718
 Alpha  occ. eigenvalues --   -0.76264  -0.75484  -0.75120  -0.74911  -0.74659
 Alpha  occ. eigenvalues --   -0.73902  -0.73612  -0.73124  -0.71576  -0.70503
 Alpha  occ. eigenvalues --   -0.68877  -0.68585  -0.68105  -0.66234  -0.65666
 Alpha  occ. eigenvalues --   -0.65058  -0.63695  -0.62892  -0.62480  -0.61779
 Alpha  occ. eigenvalues --   -0.61351  -0.60810  -0.60318  -0.59885  -0.59255
 Alpha  occ. eigenvalues --   -0.58421  -0.57759  -0.57315  -0.57021  -0.56146
 Alpha  occ. eigenvalues --   -0.55188  -0.54827  -0.53950  -0.52953  -0.52427
 Alpha  occ. eigenvalues --   -0.52086  -0.51436  -0.50976  -0.50455  -0.49965
 Alpha  occ. eigenvalues --   -0.49146  -0.48378  -0.47675  -0.47397  -0.46927
 Alpha  occ. eigenvalues --   -0.46597  -0.46546  -0.46257  -0.45921  -0.45779
 Alpha  occ. eigenvalues --   -0.45642  -0.44901  -0.44637  -0.44532  -0.44443
 Alpha  occ. eigenvalues --   -0.43834  -0.43765  -0.43570  -0.43366  -0.43121
 Alpha  occ. eigenvalues --   -0.42996  -0.42817  -0.42751  -0.42582  -0.42444
 Alpha  occ. eigenvalues --   -0.42165  -0.42034  -0.41869  -0.40993  -0.40873
 Alpha  occ. eigenvalues --   -0.39639  -0.39456  -0.39244  -0.39090  -0.38981
 Alpha  occ. eigenvalues --   -0.38749  -0.38414  -0.37911  -0.37662  -0.37568
 Alpha  occ. eigenvalues --   -0.37224  -0.36899  -0.36706  -0.36523  -0.36316
 Alpha  occ. eigenvalues --   -0.35858  -0.35747  -0.35557  -0.35219  -0.34920
 Alpha  occ. eigenvalues --   -0.34852  -0.34796  -0.34614  -0.34409  -0.34110
 Alpha  occ. eigenvalues --   -0.34005  -0.33833  -0.33430  -0.33274  -0.33249
 Alpha  occ. eigenvalues --   -0.32604  -0.31784  -0.31606  -0.29499  -0.28135
 Alpha  occ. eigenvalues --   -0.27562  -0.27211  -0.27008  -0.26949  -0.26757
 Alpha  occ. eigenvalues --   -0.26317  -0.25851  -0.25642  -0.25519  -0.25215
 Alpha  occ. eigenvalues --   -0.24887  -0.24184  -0.23430  -0.22891  -0.21034
 Alpha  occ. eigenvalues --   -0.19195
 Alpha virt. eigenvalues --   -0.07850  -0.07550  -0.05783  -0.04568  -0.03485
 Alpha virt. eigenvalues --   -0.03170  -0.02101  -0.00947  -0.00824  -0.00430
 Alpha virt. eigenvalues --   -0.00365   0.00015   0.00411   0.01777   0.02860

 Mulliken charges:
               1
     1  C   -0.436640
     2  C   -0.064597
     3  C   -0.437061
     4  C    0.101211
     5  C   -0.203905
     6  C   -0.133249
     7  C   -0.136331
     8  C   -0.193164
     9  C    0.078103
    10  C    0.075745
    11  C   -0.274009
    12  C    0.064764
    13  C    0.052303
    14  C   -0.196717
    15  C   -0.144781
    16  C   -0.142786
    17  C   -0.177808
    18  C    0.313697
    19  N   -0.754860
    20  C    0.284265
    21  C   -0.201700
    22  C    0.079006
    23  C    0.087499
    24  C   -0.161615
    25  C   -0.137337
    26  C   -0.135003
    27  C    0.131191
    28  C    0.238692
    29  N   -0.477368
    30  C   -0.189412
    31  C   -0.212809
    32  C    0.069128
    33  C    0.459672
    34  N   -0.545655
    35  C    0.451307
    36  C    0.076405
    37  C   -0.155560
    38  C   -0.140043
    39  C   -0.115189
    40  C   -0.139693
    41  C   -0.155644
    42  N   -0.538966
    43  C    0.452362
    44  C    0.082184
    45  C   -0.165680
    46  C   -0.187473
    47  C    0.105151
    48  C    0.087613
    49  C   -0.171829
    50  C   -0.133719
    51  C   -0.124919
    52  C   -0.133770
    53  C   -0.171942
    54  C   -0.186958
    55  C   -0.163819
    56  N   -0.545106
    57  C   -0.196420
    58  C    0.323354
    59  C   -0.261639
    60  C    0.093264
    61  H    0.144419
    62  H    0.143549
    63  H    0.158491
    64  H    0.155778
    65  H    0.145116
    66  H    0.141448
    67  H    0.122897
    68  H    0.125311
    69  H    0.126044
    70  H    0.125813
    71  H    0.132350
    72  H    0.130464
    73  H    0.125063
    74  H    0.128477
    75  H    0.142481
    76  H    0.157462
    77  H    0.150551
    78  H    0.150377
    79  H    0.161627
    80  H    0.165737
    81  H    0.172260
    82  H    0.159403
    83  H    0.140438
    84  H    0.137206
    85  H    0.135735
    86  H    0.161643
    87  H    0.164349
    88  H    0.139953
    89  H    0.135586
    90  H    0.133607
    91  H    0.132868
    92  H    0.133559
    93  H    0.135366
    94  H    0.137543
    95  H    0.162294
    96  H    0.185418
    97  H    0.137575
 Sum of Mulliken charges =  -0.00000

 Dipole moment (field-independent basis, Debye):
    X=              1.2189    Y=              2.4750    Z=             -2.1530  Tot=              3.4995
 Quadrupole moment (field-independent basis, Debye-Ang):
   XX=           -302.2276   YY=           -349.1440   ZZ=           -337.9917
   XY=              5.6830   XZ=              9.8623   YZ=             11.6222

 Normal termination of Gaussian 16 at Sat Nov  5 11:51:00 2022.
