 Gaussian 16, Revision B.01,
 Gaussian 16:  ES64L-G16RevB.01 20-Dec-2017

 -------------------------------------------------------------------
 #p b3lyp/6-31g(d) 6D 10F nosymm GFInput td=(50-50,nstate=2) SCF=XQC
 -------------------------------------------------------------------

 ------------------------------
 Gaussian input prepared by ASE
 ------------------------------
 Symbolic Z-matrix:
 Charge =  0 Multiplicity = 1

                          Input orientation:
 ---------------------------------------------------------------------
 Center     Atomic      Atomic             Coordinates (Angstroms)
 Number     Number       Type             X           Y           Z
 ---------------------------------------------------------------------
      1          6           0       12.940564   -0.037797    3.377516
      2          6           0       12.027173    0.999088    3.576707
      3          6           0       10.773891    0.957750    2.967889
      4          6           0       10.404876   -0.120219    2.144909
      5          6           0        9.070651   -0.163577    1.496418
      6          6           0        8.460583    1.003001    1.005326
      7          6           0        7.209749    0.962676    0.397704
      8          6           0        6.509551   -0.246763    0.251837
      9          6           0        5.176058   -0.290029   -0.396144
     10          6           0        4.798636   -1.370090   -1.212504
     11          6           0        3.544509   -1.420120   -1.814177
     12          6           0        2.633248   -0.372384   -1.631967
     13          7           0        1.356867   -0.413784   -2.251769
     14          6           0        1.114036   -0.580385   -3.621177
     15          6           0        2.022724   -0.712179   -4.674850
     16          6           0        1.507618   -0.843900   -5.962846
     17          6           0        0.122780   -0.839980   -6.202620
     18          6           0       -0.776929   -0.694763   -5.150539
     19          6           0       -0.286236   -0.559869   -3.846779
     20          6           0       -0.917017   -0.376979   -2.555523
     21          6           0       -2.248600   -0.287359   -2.141409
     22          6           0       -2.554761   -0.119735   -0.784915
     23          6           0       -3.963954   -0.017430   -0.325615
     24          6           0       -4.972903   -0.813823   -0.917069
     25          6           0       -6.304190   -0.749387   -0.519382
     26          6           0       -6.638190    0.133514    0.510555
     27          6           0       -5.654724    0.953364    1.117592
     28          6           0       -4.325174    0.870746    0.695492
     29          6           0       -6.337581    1.765944    2.103486
     30          6           0       -5.912334    2.739701    3.014465
     31          6           0       -6.845608    3.330188    3.861627
     32          6           0       -8.197779    2.950052    3.810637
     33          6           0       -8.647949    1.984074    2.913022
     34          6           0       -7.708556    1.404855    2.055448
     35          7           0       -7.883771    0.411302    1.084390
     36          6           0       -9.115050   -0.208107    0.739286
     37          6           0       -9.238510   -1.602571    0.789609
     38          6           0      -10.445374   -2.207547    0.439560
     39          6           0      -11.539985   -1.429385    0.057632
     40          6           0      -11.418827   -0.038952    0.017400
     41          6           0      -10.209566    0.572964    0.346483
     42          6           0       -1.490333   -0.052091    0.144918
     43          6           0       -0.156164   -0.133449   -0.239869
     44          6           0        0.125031   -0.286836   -1.599727
     45          6           0        2.996919    0.716490   -0.829814
     46          6           0        4.245399    0.747594   -0.215334
     47          6           0        7.119339   -1.413667    0.742534
     48          6           0        8.369977   -1.372724    1.350522
     49          6           0       11.335579   -1.155937    1.953722
     50          6           0       12.588575   -1.115806    2.563216
     51          1           0       13.917405   -0.006058    3.852381
     52          1           0       12.286981    1.839182    4.215528
     53          1           0       10.061039    1.756651    3.152461
     54          1           0        8.989538    1.949817    1.068677
     55          1           0        6.784952    1.878980   -0.002851
     56          1           0        5.501893   -2.178845   -1.388611
     57          1           0        3.264386   -2.271439   -2.426691
     58          1           0        3.093446   -0.705467   -4.499857
     59          1           0        2.194799   -0.948713   -6.798135
     60          1           0       -0.246312   -0.946415   -7.218720
     61          1           0       -1.847461   -0.680809   -5.338235
     62          1           0       -3.048793   -0.325508   -2.875502
     63          1           0       -4.694153   -1.518944   -1.694783
     64          1           0       -7.054347   -1.373256   -0.994031
     65          1           0       -3.573569    1.518140    1.138996
     66          1           0       -4.865156    3.027273    3.061459
     67          1           0       -6.527621    4.088296    4.571690
     68          1           0       -8.910088    3.415714    4.486446
     69          1           0       -9.691804    1.689393    2.886564
     70          1           0       -8.392458   -2.201085    1.112694
     71          1           0      -10.532796   -3.289877    0.479419
     72          1           0      -12.481003   -1.903302   -0.206933
     73          1           0      -12.263790    0.573740   -0.284815
     74          1           0      -10.101950    1.651724    0.291159
     75          1           0       -1.724475    0.038862    1.201652
     76          1           0        0.636363   -0.096574    0.500319
     77          1           0        2.298187    1.535811   -0.692452
     78          1           0        4.498169    1.587230    0.425593
     79          1           0        6.590867   -2.360930    0.679911
     80          1           0        8.795541   -2.288503    1.751160
     81          1           0       11.083176   -1.986246    1.299996
     82          1           0       13.294768   -1.924516    2.394007
 ---------------------------------------------------------------------

 SCF Done:  E(RB3LYP) =  -1957.96544385     A.U. after   15 cycles

 Excitation energies and oscillator strengths:

 Excited state symmetry could not be determined.
 Excited State   1:      Triplet-?Sym    2.8938 eV  428.45 nm  f=0.0000  <S**2>=2.000
     159 ->175        -0.10541
     163 ->168         0.38869
     164 ->168        -0.13733
     166 ->168         0.28668
     167 ->168         0.37475
     167 ->174        -0.10118
 This state for optimization and/or second-order correction.
 Total Energy, E(TD-HF/TD-DFT) =  -1957.85909937
 Copying the excited state density for this state as the 1-particle RhoCI density.

 Excited state symmetry could not be determined.
 Excited State   2:      Triplet-?Sym    3.0257 eV  409.77 nm  f=0.0000  <S**2>=2.000
     162 ->170         0.13252
     163 ->168        -0.13223
     164 ->169         0.29437
     165 ->170         0.29336
     166 ->169         0.15095
     166 ->178        -0.11024
     167 ->171         0.24015
     167 ->174        -0.21774
     167 ->176        -0.26178

 Excited state symmetry could not be determined.
 Excited State   3:      Singlet-?Sym    3.3659 eV  368.36 nm  f=0.3603  <S**2>=0.000
     166 ->168         0.13043
     167 ->168         0.68555

 Excited state symmetry could not be determined.
 Excited State   4:      Singlet-?Sym    3.7416 eV  331.36 nm  f=0.0115  <S**2>=0.000
     167 ->169         0.67763

 Alpha  occ. eigenvalues --  -14.38091 -14.38016 -10.23877 -10.23864 -10.22204
 Alpha  occ. eigenvalues --  -10.22173 -10.22111 -10.22084 -10.20719 -10.20372
 Alpha  occ. eigenvalues --  -10.20241 -10.20107 -10.20060 -10.20054 -10.20031
 Alpha  occ. eigenvalues --  -10.20028 -10.19961 -10.19958 -10.19950 -10.19947
 Alpha  occ. eigenvalues --  -10.19810 -10.19426 -10.19425 -10.19330 -10.19329
 Alpha  occ. eigenvalues --  -10.19224 -10.19207 -10.19133 -10.19113 -10.19107
 Alpha  occ. eigenvalues --  -10.18745 -10.18713 -10.18611 -10.18610 -10.18600
 Alpha  occ. eigenvalues --  -10.18588 -10.18585 -10.18580 -10.18541 -10.18522
 Alpha  occ. eigenvalues --  -10.18515 -10.18507 -10.18503 -10.18481 -10.18368
 Alpha  occ. eigenvalues --  -10.18350 -10.18342 -10.18332 -10.17933 -10.17913
 Alpha  occ. eigenvalues --   -0.98770  -0.98727  -0.87746  -0.86955  -0.86647
 Alpha  occ. eigenvalues --   -0.85348  -0.84837  -0.83875  -0.83797  -0.83297
 Alpha  occ. eigenvalues --   -0.79685  -0.78511  -0.77543  -0.76156  -0.75785
 Alpha  occ. eigenvalues --   -0.75446  -0.75319  -0.75126  -0.75012  -0.74299
 Alpha  occ. eigenvalues --   -0.73864  -0.72852  -0.71672  -0.71200  -0.70845
 Alpha  occ. eigenvalues --   -0.69568  -0.65143  -0.64361  -0.63160  -0.62780
 Alpha  occ. eigenvalues --   -0.62172  -0.61512  -0.61337  -0.60795  -0.60433
 Alpha  occ. eigenvalues --   -0.59048  -0.58661  -0.58045  -0.57556  -0.57227
 Alpha  occ. eigenvalues --   -0.56740  -0.56626  -0.53911  -0.53648  -0.52962
 Alpha  occ. eigenvalues --   -0.51555  -0.51352  -0.51089  -0.50725  -0.49528
 Alpha  occ. eigenvalues --   -0.48059  -0.47962  -0.47670  -0.46776  -0.46502
 Alpha  occ. eigenvalues --   -0.45748  -0.45598  -0.45222  -0.45072  -0.44660
 Alpha  occ. eigenvalues --   -0.44388  -0.43960  -0.43647  -0.43560  -0.43282
 Alpha  occ. eigenvalues --   -0.43204  -0.43117  -0.42968  -0.42601  -0.42473
 Alpha  occ. eigenvalues --   -0.42144  -0.41810  -0.41777  -0.41429  -0.41244
 Alpha  occ. eigenvalues --   -0.41043  -0.40888  -0.39908  -0.39126  -0.38143
 Alpha  occ. eigenvalues --   -0.37405  -0.37353  -0.37056  -0.36461  -0.36246
 Alpha  occ. eigenvalues --   -0.36105  -0.35976  -0.35648  -0.35574  -0.35434
 Alpha  occ. eigenvalues --   -0.35242  -0.34756  -0.34446  -0.34147  -0.33897
 Alpha  occ. eigenvalues --   -0.33498  -0.33454  -0.33044  -0.32813  -0.32307
 Alpha  occ. eigenvalues --   -0.31563  -0.28774  -0.27785  -0.27397  -0.26215
 Alpha  occ. eigenvalues --   -0.26101  -0.25995  -0.25567  -0.25514  -0.25355
 Alpha  occ. eigenvalues --   -0.25173  -0.23945  -0.22048  -0.21233  -0.20795
 Alpha  occ. eigenvalues --   -0.20044  -0.18233
 Alpha virt. eigenvalues --   -0.04485  -0.02492  -0.02346  -0.01672  -0.01369
 Alpha virt. eigenvalues --   -0.01122  -0.00855  -0.00688  -0.00400  -0.00152
 Alpha virt. eigenvalues --    0.01695   0.02658   0.03730   0.04309   0.04541

 Mulliken charges:
               1
     1  C   -0.126376
     2  C   -0.133560
     3  C   -0.173574
     4  C    0.089194
     5  C    0.095241
     6  C   -0.181399
     7  C   -0.181263
     8  C    0.093079
     9  C    0.101523
    10  C   -0.190812
    11  C   -0.156397
    12  C    0.272996
    13  N   -0.739793
    14  C    0.311284
    15  C   -0.176826
    16  C   -0.141933
    17  C   -0.145246
    18  C   -0.196951
    19  C    0.057495
    20  C    0.065962
    21  C   -0.260582
    22  C    0.083917
    23  C    0.083885
    24  C   -0.192634
    25  C   -0.179170
    26  C    0.316706
    27  C    0.066344
    28  C   -0.260690
    29  C    0.057262
    30  C   -0.196718
    31  C   -0.145313
    32  C   -0.141874
    33  C   -0.176686
    34  C    0.311548
    35  N   -0.736924
    36  C    0.265235
    37  C   -0.149729
    38  C   -0.142838
    39  C   -0.121487
    40  C   -0.142823
    41  C   -0.149556
    42  C   -0.193191
    43  C   -0.179787
    44  C    0.316970
    45  C   -0.156080
    46  C   -0.190860
    47  C   -0.181257
    48  C   -0.181389
    49  C   -0.173577
    50  C   -0.133560
    51  H    0.130739
    52  H    0.131454
    53  H    0.132417
    54  H    0.135324
    55  H    0.134438
    56  H    0.139758
    57  H    0.152992
    58  H    0.139535
    59  H    0.126426
    60  H    0.123740
    61  H    0.130249
    62  H    0.132421
    63  H    0.129303
    64  H    0.139604
    65  H    0.131678
    66  H    0.129774
    67  H    0.123459
    68  H    0.126063
    69  H    0.139029
    70  H    0.152765
    71  H    0.138403
    72  H    0.134918
    73  H    0.138196
    74  H    0.152563
    75  H    0.129904
    76  H    0.140447
    77  H    0.153217
    78  H    0.139887
    79  H    0.134443
    80  H    0.135321
    81  H    0.132338
    82  H    0.131408
 Sum of Mulliken charges =  -0.00000

 Dipole moment (field-independent basis, Debye):
    X=              0.2693    Y=             -0.7127    Z=              0.4548  Tot=              0.8873
 Quadrupole moment (field-independent basis, Debye-Ang):
   XX=           -220.1481   YY=           -272.2194   ZZ=           -281.4492
   XY=              4.9058   XZ=              9.5606   YZ=              9.1108

 Normal termination of Gaussian 16 at Sat Nov  5 10:52:30 2022.
