 Gaussian 16, Revision B.01,
 Gaussian 16:  ES64L-G16RevB.01 20-Dec-2017

 -----------------------------
 #p b3lyp/6-31g(d) opt SCF=XQC
 -----------------------------

 ------------------------------
 Gaussian input prepared by ASE
 ------------------------------
 Symbolic Z-matrix:
 Charge =  0 Multiplicity = 1

 SCF Done:  E(RB3LYP) =  -1957.95549826     A.U. after   15 cycles
 SCF Done:  E(RB3LYP) =  -1957.96502109     A.U. after   12 cycles
 SCF Done:  E(RB3LYP) =  -1957.96535690     A.U. after   12 cycles
 SCF Done:  E(RB3LYP) =  -1957.96543353     A.U. after   11 cycles
 SCF Done:  E(RB3LYP) =  -1957.96544215     A.U. after    9 cycles
 SCF Done:  E(RB3LYP) =  -1957.96544364     A.U. after    9 cycles
 SCF Done:  E(RB3LYP) =  -1957.96544379     A.U. after    7 cycles
 SCF Done:  E(RB3LYP) =  -1957.96544383     A.U. after    7 cycles
 Optimization completed.
    -- Stationary point found.

                         Standard orientation:
 ---------------------------------------------------------------------
 Center     Atomic      Atomic             Coordinates (Angstroms)
 Number     Number       Type             X           Y           Z
 ---------------------------------------------------------------------
      1          6           0      -13.125107   -3.118727    0.585718
      2          6           0      -12.182731   -3.627013   -0.310197
      3          6           0      -10.920382   -3.043880   -0.407744
      4          6           0      -10.571020   -1.938490    0.386953
      5          6           0       -9.227115   -1.317554    0.282381
      6          6           0       -8.570929   -1.203816   -0.954851
      7          6           0       -7.311015   -0.622109   -1.053093
      8          6           0       -6.647436   -0.125869    0.081679
      9          6           0       -5.304269    0.494558   -0.022855
     10          6           0       -4.946695    1.594194    0.776123
     11          6           0       -3.683913    2.173110    0.689033
     12          6           0       -2.743004    1.677786   -0.222389
     13          7           0       -1.457371    2.271230   -0.322330
     14          6           0       -1.194740    3.625580   -0.564742
     15          6           0       -2.087557    4.677523   -0.787457
     16          6           0       -1.553224    5.941569   -1.028898
     17          6           0       -0.164779    6.158030   -1.054334
     18          6           0        0.719527    5.103651   -0.845218
     19          6           0        0.209399    3.823420   -0.601199
     20          6           0        0.821750    2.531739   -0.366116
     21          6           0        2.147640    2.099155   -0.279395
     22          6           0        2.433897    0.752420   -0.021965
     23          6           0        3.836916    0.272307    0.068998
     24          6           0        4.830534    1.067266    0.687706
     25          6           0        6.155625    0.657908    0.793509
     26          6           0        6.498705   -0.592040    0.272196
     27          6           0        5.531018   -1.409104   -0.363288
     28          6           0        4.207531   -0.971018   -0.459002
     29          6           0        6.221272   -2.598744   -0.818122
     30          6           0        5.810743   -3.756377   -1.489145
     31          6           0        6.746676   -4.749077   -1.764708
     32          6           0        8.086654   -4.597268   -1.368627
     33          6           0        8.522092   -3.454915   -0.700119
     34          6           0        7.580599   -2.455614   -0.438637
     35          7           0        7.741742   -1.232729    0.224226
     36          6           0        8.958666   -0.727628    0.755998
     37          6           0        9.036335   -0.358435    2.105060
     38          6           0       10.229416    0.147250    2.620708
     39          6           0       11.355322    0.269452    1.804020
     40          6           0       11.279638   -0.108176    0.461906
     41          6           0       10.084772   -0.595922   -0.066723
     42          6           0        1.355182   -0.146343    0.153452
     43          6           0        0.026430    0.255807    0.067543
     44          6           0       -0.234358    1.601282   -0.203565
     45          6           0       -3.086290    0.588949   -1.033526
     46          6           0       -4.344274    0.003447   -0.924353
     47          6           0       -7.303346   -0.239135    1.319113
     48          6           0       -8.563051   -0.821379    1.416883
     49          6           0      -11.530806   -1.438050    1.283526
     50          6           0      -12.792920   -2.021467    1.382435
     51          1           0      -14.109037   -3.573412    0.662308
     52          1           0      -12.427195   -4.486265   -0.929288
     53          1           0      -10.185779   -3.465245   -1.088389
     54          1           0       -9.070289   -1.543953   -1.857742
     55          1           0       -6.849682   -0.518198   -2.031298
     56          1           0       -5.672183    2.010362    1.469045
     57          1           0       -3.419996    3.010471    1.327438
     58          1           0       -3.160564    4.517156   -0.780192
     59          1           0       -2.227857    6.775322   -1.203934
     60          1           0        0.219427    7.156290   -1.243752
     61          1           0        1.793242    5.269941   -0.875998
     62          1           0        2.959630    2.804467   -0.433884
     63          1           0        4.543711    2.022851    1.117039
     64          1           0        6.894009    1.291778    1.273340
     65          1           0        3.469031   -1.582221   -0.970641
     66          1           0        4.772649   -3.879057   -1.787135
     67          1           0        6.440123   -5.651236   -2.286404
     68          1           0        8.800934   -5.387303   -1.584481
     69          1           0        9.556257   -3.349666   -0.389321
     70          1           0        8.165673   -0.480372    2.741838
     71          1           0       10.281287    0.433107    3.667734
     72          1           0       12.285367    0.656417    2.210692
     73          1           0       12.149281   -0.010392   -0.182180
     74          1           0       10.012892   -0.865795   -1.115706
     75          1           0        1.572549   -1.183555    0.391621
     76          1           0       -0.778052   -0.454997    0.225349
     77          1           0       -2.364269    0.206610   -1.748287
     78          1           0       -4.581758   -0.857734   -1.542122
     79          1           0       -6.804496    0.100446    2.222631
     80          1           0       -9.025134   -0.925520    2.394584
     81          1           0      -11.293152   -0.567454    1.888556
     82          1           0      -13.521468   -1.611870    2.077274
 ---------------------------------------------------------------------

 The electronic state is 1-A.
 Alpha  occ. eigenvalues --  -14.38091 -14.38016 -10.23877 -10.23864 -10.22204
 Alpha  occ. eigenvalues --  -10.22173 -10.22111 -10.22084 -10.20719 -10.20373
 Alpha  occ. eigenvalues --  -10.20241 -10.20107 -10.20060 -10.20054 -10.20031
 Alpha  occ. eigenvalues --  -10.20028 -10.19961 -10.19958 -10.19950 -10.19947
 Alpha  occ. eigenvalues --  -10.19810 -10.19427 -10.19425 -10.19330 -10.19329
 Alpha  occ. eigenvalues --  -10.19224 -10.19207 -10.19133 -10.19113 -10.19107
 Alpha  occ. eigenvalues --  -10.18745 -10.18713 -10.18611 -10.18610 -10.18600
 Alpha  occ. eigenvalues --  -10.18588 -10.18585 -10.18580 -10.18541 -10.18522
 Alpha  occ. eigenvalues --  -10.18515 -10.18507 -10.18503 -10.18481 -10.18368
 Alpha  occ. eigenvalues --  -10.18350 -10.18342 -10.18333 -10.17933 -10.17913
 Alpha  occ. eigenvalues --   -0.98770  -0.98727  -0.87746  -0.86955  -0.86647
 Alpha  occ. eigenvalues --   -0.85348  -0.84837  -0.83875  -0.83797  -0.83297
 Alpha  occ. eigenvalues --   -0.79685  -0.78511  -0.77543  -0.76156  -0.75785
 Alpha  occ. eigenvalues --   -0.75446  -0.75319  -0.75126  -0.75012  -0.74299
 Alpha  occ. eigenvalues --   -0.73864  -0.72852  -0.71672  -0.71200  -0.70845
 Alpha  occ. eigenvalues --   -0.69568  -0.65143  -0.64361  -0.63160  -0.62780
 Alpha  occ. eigenvalues --   -0.62172  -0.61512  -0.61337  -0.60795  -0.60433
 Alpha  occ. eigenvalues --   -0.59048  -0.58661  -0.58045  -0.57556  -0.57227
 Alpha  occ. eigenvalues --   -0.56740  -0.56626  -0.53911  -0.53648  -0.52962
 Alpha  occ. eigenvalues --   -0.51555  -0.51352  -0.51089  -0.50725  -0.49528
 Alpha  occ. eigenvalues --   -0.48059  -0.47962  -0.47670  -0.46776  -0.46502
 Alpha  occ. eigenvalues --   -0.45748  -0.45598  -0.45222  -0.45072  -0.44660
 Alpha  occ. eigenvalues --   -0.44388  -0.43960  -0.43647  -0.43560  -0.43282
 Alpha  occ. eigenvalues --   -0.43204  -0.43117  -0.42968  -0.42601  -0.42473
 Alpha  occ. eigenvalues --   -0.42144  -0.41810  -0.41777  -0.41429  -0.41244
 Alpha  occ. eigenvalues --   -0.41043  -0.40888  -0.39908  -0.39126  -0.38143
 Alpha  occ. eigenvalues --   -0.37405  -0.37353  -0.37056  -0.36461  -0.36246
 Alpha  occ. eigenvalues --   -0.36105  -0.35976  -0.35648  -0.35574  -0.35434
 Alpha  occ. eigenvalues --   -0.35242  -0.34756  -0.34446  -0.34147  -0.33897
 Alpha  occ. eigenvalues --   -0.33498  -0.33454  -0.33044  -0.32813  -0.32307
 Alpha  occ. eigenvalues --   -0.31563  -0.28774  -0.27785  -0.27397  -0.26215
 Alpha  occ. eigenvalues --   -0.26101  -0.25995  -0.25567  -0.25514  -0.25355
 Alpha  occ. eigenvalues --   -0.25173  -0.23945  -0.22048  -0.21233  -0.20795
 Alpha  occ. eigenvalues --   -0.20044  -0.18233
 Alpha virt. eigenvalues --   -0.04485  -0.02492  -0.02346  -0.01672  -0.01369
 Alpha virt. eigenvalues --   -0.01122  -0.00855  -0.00688  -0.00400  -0.00152
 Alpha virt. eigenvalues --    0.01695   0.02658   0.03730   0.04309   0.04541

 Mulliken charges:
               1
     1  C   -0.126375
     2  C   -0.133562
     3  C   -0.173570
     4  C    0.089195
     5  C    0.095242
     6  C   -0.181401
     7  C   -0.181266
     8  C    0.093080
     9  C    0.101525
    10  C   -0.190804
    11  C   -0.156398
    12  C    0.272973
    13  N   -0.739782
    14  C    0.311300
    15  C   -0.176821
    16  C   -0.141942
    17  C   -0.145246
    18  C   -0.196935
    19  C    0.057474
    20  C    0.065958
    21  C   -0.260580
    22  C    0.083913
    23  C    0.083878
    24  C   -0.192635
    25  C   -0.179172
    26  C    0.316701
    27  C    0.066345
    28  C   -0.260681
    29  C    0.057268
    30  C   -0.196714
    31  C   -0.145313
    32  C   -0.141876
    33  C   -0.176694
    34  C    0.311541
    35  N   -0.736919
    36  C    0.265253
    37  C   -0.149740
    38  C   -0.142834
    39  C   -0.121486
    40  C   -0.142825
    41  C   -0.149563
    42  C   -0.193188
    43  C   -0.179794
    44  C    0.316978
    45  C   -0.156080
    46  C   -0.190862
    47  C   -0.181258
    48  C   -0.181392
    49  C   -0.173581
    50  C   -0.133559
    51  H    0.130739
    52  H    0.131454
    53  H    0.132416
    54  H    0.135324
    55  H    0.134439
    56  H    0.139757
    57  H    0.152992
    58  H    0.139534
    59  H    0.126427
    60  H    0.123741
    61  H    0.130249
    62  H    0.132421
    63  H    0.129304
    64  H    0.139603
    65  H    0.131677
    66  H    0.129774
    67  H    0.123459
    68  H    0.126064
    69  H    0.139032
    70  H    0.152765
    71  H    0.138404
    72  H    0.134918
    73  H    0.138196
    74  H    0.152563
    75  H    0.129905
    76  H    0.140449
    77  H    0.153217
    78  H    0.139887
    79  H    0.134444
    80  H    0.135322
    81  H    0.132339
    82  H    0.131408
 Sum of Mulliken charges =  -0.00000

 Dipole moment (field-independent basis, Debye):
    X=             -0.3005    Y=             -0.2179    Z=              0.8060  Tot=              0.8874
 Quadrupole moment (field-independent basis, Debye-Ang):
   XX=           -220.1164   YY=           -275.5670   ZZ=           -278.0390
   XY=              9.8075   XZ=              3.8892   YZ=             10.4473

 1\1\GINC-NODE34\FOpt\RB3LYP\6-31G(d)\C48H32N2\WYKGROUP\05-Nov-2022\0\\
 #p b3lyp/6-31g(d) opt SCF=XQC\\Gaussian input prepared by ASE\\0,1\C,1
 2.9405642519,-0.0377972521,3.3775161378\C,12.0271729106,0.999087896,3.
 5767073117\C,10.7738908638,0.9577501354,2.9678885672\C,10.4048762208,-
 0.1202187039,2.1449094632\C,9.0706514985,-0.1635772887,1.496417885\C,8
 .4605834863,1.003001048,1.0053259041\C,7.2097491852,0.9626755747,0.397
 7042217\C,6.5095507641,-0.2467632997,0.2518370654\C,5.176057703,-0.290
 0294311,-0.3961435506\C,4.7986356242,-1.3700904583,-1.2125040706\C,3.5

 Normal termination of Gaussian 16 at Sat Nov  5 00:52:36 2022.
