 Gaussian 16, Revision B.01,
 Gaussian 16:  ES64L-G16RevB.01 20-Dec-2017

 -----------------------------
 #p b3lyp/6-31g(d) opt SCF=XQC
 -----------------------------

 ------------------------------
 Gaussian input prepared by ASE
 ------------------------------
 Symbolic Z-matrix:
 Charge =  0 Multiplicity = 1

 SCF Done:  E(RB3LYP) =  -2103.34883861     A.U. after   16 cycles
 SCF Done:  E(RB3LYP) =  -2103.35003751     A.U. after   16 cycles
 SCF Done:  E(RB3LYP) =  -2103.36119844     A.U. after   12 cycles
 SCF Done:  E(RB3LYP) =  -2103.36743746     A.U. after   13 cycles
 SCF Done:  E(RB3LYP) =  -2103.36843212     A.U. after   13 cycles
 SCF Done:  E(RB3LYP) =  -2103.36927678     A.U. after   13 cycles
 SCF Done:  E(RB3LYP) =  -2103.36948955     A.U. after   12 cycles
 SCF Done:  E(RB3LYP) =  -2103.36968945     A.U. after   12 cycles
 SCF Done:  E(RB3LYP) =  -2103.36972408     A.U. after   10 cycles
 SCF Done:  E(RB3LYP) =  -2103.36972379     A.U. after   10 cycles
 SCF Done:  E(RB3LYP) =  -2103.36972520     A.U. after   10 cycles
 SCF Done:  E(RB3LYP) =  -2103.36974338     A.U. after   10 cycles
 SCF Done:  E(RB3LYP) =  -2103.36974539     A.U. after    9 cycles
 SCF Done:  E(RB3LYP) =  -2103.36974653     A.U. after    9 cycles
 SCF Done:  E(RB3LYP) =  -2103.36974718     A.U. after    9 cycles
 SCF Done:  E(RB3LYP) =  -2103.36974763     A.U. after    9 cycles
 SCF Done:  E(RB3LYP) =  -2103.36974793     A.U. after    9 cycles
 SCF Done:  E(RB3LYP) =  -2103.36974811     A.U. after    8 cycles
 SCF Done:  E(RB3LYP) =  -2103.36974821     A.U. after    7 cycles
 SCF Done:  E(RB3LYP) =  -2103.36974825     A.U. after    6 cycles
 Optimization completed.
    -- Stationary point found.

                         Standard orientation:
 ---------------------------------------------------------------------
 Center     Atomic      Atomic             Coordinates (Angstroms)
 Number     Number       Type             X           Y           Z
 ---------------------------------------------------------------------
      1          8           0        7.419263   -2.540496   -0.175130
      2          6           0        6.946548   -1.424340    0.011523
      3          6           0        7.834690   -0.299957    0.453152
      4          6           0        9.010773   -0.630271    1.146239
      5          6           0        9.898552    0.364259    1.544146
      6          6           0        9.636280    1.701903    1.231720
      7          6           0        8.483626    2.038402    0.520488
      8          6           0        7.582506    1.044280    0.137494
      9          6           0        5.477189   -1.201091   -0.204018
     10          6           0        4.726239   -0.257980    0.514671
     11          6           0        3.352653   -0.147674    0.318241
     12          6           0        2.691781   -0.974077   -0.603593
     13          6           0        1.225245   -0.834932   -0.795580
     14          6           0        0.431869   -1.882616   -1.272723
     15          6           0       -0.945384   -1.657809   -1.399835
     16          6           0       -1.896324   -2.697689   -1.871047
     17          6           0       -3.215765   -2.332724   -2.190468
     18          6           0       -4.127332   -3.286322   -2.636410
     19          6           0       -3.741661   -4.622181   -2.767759
     20          6           0       -2.436112   -4.998516   -2.446029
     21          6           0       -1.521736   -4.045738   -2.001746
     22          7           0       -1.466756   -0.455061   -1.104478
     23          6           0       -0.630352    0.477988   -0.649259
     24          7           0       -1.185366    1.744397   -0.373833
     25          6           0       -0.614489    2.935175   -0.905189
     26          6           0        0.714971    3.234199   -1.205266
     27          6           0        0.991503    4.490337   -1.747292
     28          6           0       -0.024861    5.427662   -1.984253
     29          6           0       -1.349301    5.121169   -1.684509
     30          6           0       -1.649778    3.866344   -1.144471
     31          6           0       -2.895699    3.252147   -0.731741
     32          6           0       -4.217005    3.730306   -0.764640
     33          6           0       -5.237855    2.931105   -0.278152
     34          6           0       -4.925574    1.696800    0.316428
     35          6           0       -5.756822    0.721749    0.985734
     36          6           0       -7.135642    0.634705    1.214113
     37          6           0       -7.631579   -0.429130    1.960863
     38          6           0       -6.759610   -1.395712    2.489733
     39          6           0       -5.384546   -1.331198    2.272497
     40          6           0       -4.894385   -0.275210    1.499680
     41          7           0       -3.568829    0.028102    1.135847
     42          6           0       -2.447816   -0.493586    1.847849
     43          6           0       -1.621217    0.361072    2.587370
     44          6           0       -0.548995   -0.161910    3.310257
     45          6           0       -0.307023   -1.536505    3.320863
     46          6           0       -1.137610   -2.388149    2.589207
     47          6           0       -2.198873   -1.871661    1.846559
     48          6           0       -3.588144    1.225832    0.404388
     49          6           0       -2.576179    1.971165   -0.226496
     50          7           0        0.684794    0.348864   -0.458131
     51          6           0        3.445723   -1.919665   -1.320372
     52          6           0        4.814031   -2.038471   -1.114553
     53          1           0        9.207921   -1.675680    1.360569
     54          1           0       10.798770    0.099724    2.092156
     55          1           0       10.332744    2.478389    1.536851
     56          1           0        8.286028    3.074668    0.260378
     57          1           0        6.697293    1.311816   -0.430496
     58          1           0        5.211376    0.374811    1.250819
     59          1           0        2.770856    0.572222    0.883134
     60          1           0        0.872366   -2.839171   -1.517837
     61          1           0       -3.507103   -1.294326   -2.083170
     62          1           0       -5.142125   -2.985108   -2.881202
     63          1           0       -4.453812   -5.365891   -3.115029
     64          1           0       -2.129002   -6.036867   -2.536491
     65          1           0       -0.518003   -4.366111   -1.740785
     66          1           0        1.500957    2.516728   -1.012693
     67          1           0        2.021369    4.746172   -1.981639
     68          1           0        0.224349    6.399670   -2.400822
     69          1           0       -2.139805    5.844072   -1.867773
     70          1           0       -4.430246    4.711582   -1.178280
     71          1           0       -6.269827    3.268201   -0.316734
     72          1           0       -7.807039    1.392749    0.819106
     73          1           0       -8.699337   -0.510770    2.143699
     74          1           0       -7.161979   -2.212801    3.082456
     75          1           0       -4.721530   -2.076104    2.697665
     76          1           0       -1.824063    1.426955    2.596597
     77          1           0        0.089615    0.509358    3.877894
     78          1           0        0.524013   -1.941151    3.891674
     79          1           0       -0.951754   -3.458791    2.582696
     80          1           0       -2.821777   -2.524263    1.243746
     81          1           0        2.965067   -2.552154   -2.060573
     82          1           0        5.394634   -2.776974   -1.657566
 ---------------------------------------------------------------------

 The electronic state is 1-A.
 Alpha  occ. eigenvalues --  -19.13801 -14.38437 -14.37935 -14.33875 -14.33636
 Alpha  occ. eigenvalues --  -10.29864 -10.27932 -10.25452 -10.25371 -10.23403
 Alpha  occ. eigenvalues --  -10.22773 -10.22711 -10.22262 -10.22013 -10.21669
 Alpha  occ. eigenvalues --  -10.20990 -10.20770 -10.20739 -10.20730 -10.20578
 Alpha  occ. eigenvalues --  -10.20527 -10.20514 -10.20483 -10.20400 -10.20278
 Alpha  occ. eigenvalues --  -10.20263 -10.20187 -10.20060 -10.20029 -10.19982
 Alpha  occ. eigenvalues --  -10.19917 -10.19622 -10.19603 -10.19544 -10.19398
 Alpha  occ. eigenvalues --  -10.19381 -10.19369 -10.19339 -10.18893 -10.18756
 Alpha  occ. eigenvalues --  -10.18679 -10.18590 -10.18518 -10.18474 -10.18439
 Alpha  occ. eigenvalues --  -10.18415 -10.18395 -10.18395 -10.18256 -10.18208
 Alpha  occ. eigenvalues --  -10.18129 -10.17916  -1.03716  -1.01917  -0.98466
 Alpha  occ. eigenvalues --   -0.96201  -0.90689  -0.87256  -0.86574  -0.86412
 Alpha  occ. eigenvalues --   -0.86014  -0.84723  -0.83888  -0.83584  -0.81031
 Alpha  occ. eigenvalues --   -0.78682  -0.78044  -0.76443  -0.76006  -0.75906
 Alpha  occ. eigenvalues --   -0.75551  -0.75339  -0.75259  -0.74687  -0.74637
 Alpha  occ. eigenvalues --   -0.74257  -0.73175  -0.71291  -0.70148  -0.68180
 Alpha  occ. eigenvalues --   -0.66846  -0.64945  -0.63843  -0.63411  -0.62115
 Alpha  occ. eigenvalues --   -0.61883  -0.61633  -0.61266  -0.60709  -0.60091
 Alpha  occ. eigenvalues --   -0.59670  -0.58931  -0.58443  -0.56943  -0.56408
 Alpha  occ. eigenvalues --   -0.56350  -0.54562  -0.53599  -0.53336  -0.52476
 Alpha  occ. eigenvalues --   -0.52045  -0.51378  -0.50418  -0.49850  -0.48983
 Alpha  occ. eigenvalues --   -0.48456  -0.48180  -0.47553  -0.47114  -0.46615
 Alpha  occ. eigenvalues --   -0.46233  -0.46155  -0.45961  -0.45803  -0.45186
 Alpha  occ. eigenvalues --   -0.44936  -0.44506  -0.44242  -0.43789  -0.43700
 Alpha  occ. eigenvalues --   -0.43404  -0.43369  -0.43152  -0.43101  -0.42789
 Alpha  occ. eigenvalues --   -0.42572  -0.42537  -0.42108  -0.41857  -0.41672
 Alpha  occ. eigenvalues --   -0.41034  -0.40725  -0.40186  -0.40005  -0.38464
 Alpha  occ. eigenvalues --   -0.37938  -0.37546  -0.37448  -0.37279  -0.36661
 Alpha  occ. eigenvalues --   -0.36564  -0.36286  -0.36123  -0.35714  -0.35448
 Alpha  occ. eigenvalues --   -0.35327  -0.35189  -0.35100  -0.34921  -0.34657
 Alpha  occ. eigenvalues --   -0.34542  -0.33652  -0.33342  -0.33176  -0.32782
 Alpha  occ. eigenvalues --   -0.31982  -0.30909  -0.29576  -0.27759  -0.26763
 Alpha  occ. eigenvalues --   -0.26436  -0.26188  -0.26063  -0.25824  -0.25690
 Alpha  occ. eigenvalues --   -0.25454  -0.25303  -0.24696  -0.24670  -0.24341
 Alpha  occ. eigenvalues --   -0.24138  -0.21822  -0.19572  -0.19038
 Alpha virt. eigenvalues --   -0.08128  -0.05801  -0.04186  -0.03059  -0.01650
 Alpha virt. eigenvalues --   -0.01171  -0.00939  -0.00814  -0.00587   0.00007
 Alpha virt. eigenvalues --    0.00638   0.01157   0.01901   0.02637   0.04107

 Mulliken charges:
               1
     1  O   -0.463062
     2  C    0.319833
     3  C    0.072210
     4  C   -0.150273
     5  C   -0.135021
     6  C   -0.118679
     7  C   -0.136730
     8  C   -0.176838
     9  C    0.082739
    10  C   -0.186409
    11  C   -0.167576
    12  C    0.095861
    13  C    0.283617
    14  C   -0.216540
    15  C    0.299537
    16  C    0.075592
    17  C   -0.158836
    18  C   -0.134913
    19  C   -0.118699
    20  C   -0.140199
    21  C   -0.175905
    22  N   -0.540078
    23  C    0.644006
    24  N   -0.720238
    25  C    0.266875
    26  C   -0.166938
    27  C   -0.145460
    28  C   -0.138331
    29  C   -0.203120
    30  C    0.073546
    31  C    0.056571
    32  C   -0.209426
    33  C   -0.210266
    34  C    0.052605
    35  C    0.060209
    36  C   -0.199308
    37  C   -0.144310
    38  C   -0.142265
    39  C   -0.178275
    40  C    0.305783
    41  N   -0.730664
    42  C    0.250986
    43  C   -0.136305
    44  C   -0.139610
    45  C   -0.122437
    46  C   -0.145818
    47  C   -0.165256
    48  C    0.309618
    49  C    0.304868
    50  N   -0.548963
    51  C   -0.178310
    52  C   -0.164532
    53  H    0.160293
    54  H    0.139327
    55  H    0.138685
    56  H    0.138400
    57  H    0.150356
    58  H    0.153369
    59  H    0.166672
    60  H    0.151203
    61  H    0.177353
    62  H    0.141354
    63  H    0.136327
    64  H    0.135120
    65  H    0.133582
    66  H    0.164173
    67  H    0.124613
    68  H    0.124206
    69  H    0.129855
    70  H    0.127764
    71  H    0.128337
    72  H    0.128496
    73  H    0.122977
    74  H    0.125322
    75  H    0.139058
    76  H    0.153741
    77  H    0.136679
    78  H    0.132780
    79  H    0.134431
    80  H    0.157143
    81  H    0.141282
    82  H    0.162237
 Sum of Mulliken charges =  -0.00000

 Dipole moment (field-independent basis, Debye):
    X=              0.6876    Y=             -0.5193    Z=              0.4325  Tot=              0.9641
 Quadrupole moment (field-independent basis, Debye-Ang):
   XX=           -279.2264   YY=           -273.0973   ZZ=           -290.9288
   XY=             24.8169   XZ=             13.0011   YZ=              1.5180

 Normal termination of Gaussian 16 at Sat Nov  5 02:09:39 2022.
