 Gaussian 16, Revision B.01,
 Gaussian 16:  ES64L-G16RevB.01 20-Dec-2017

 -------------------------------------------------------------------
 #p b3lyp/6-31g(d) 6D 10F nosymm GFInput td=(50-50,nstate=2) SCF=XQC
 -------------------------------------------------------------------

 ------------------------------
 Gaussian input prepared by ASE
 ------------------------------
 Symbolic Z-matrix:
 Charge =  0 Multiplicity = 1

                          Input orientation:
 ---------------------------------------------------------------------
 Center     Atomic      Atomic             Coordinates (Angstroms)
 Number     Number       Type             X           Y           Z
 ---------------------------------------------------------------------
      1          8           0        7.699676    1.313418    0.030892
      2          6           0        6.895085    1.195140   -0.887121
      3          6           0        7.313608    1.504299   -2.293296
      4          6           0        8.377763    2.402658   -2.475427
      5          6           0        8.842287    2.696853   -3.753410
      6          6           0        8.266639    2.076775   -4.866882
      7          6           0        7.226132    1.162680   -4.695216
      8          6           0        6.746110    0.881050   -3.415668
      9          6           0        5.495165    0.742476   -0.586072
     10          6           0        4.377621    1.138599   -1.337127
     11          6           0        3.096680    0.741116   -0.964716
     12          6           0        2.896895   -0.065466    0.166206
     13          6           0        1.519609   -0.477187    0.541063
     14          6           0        1.174340   -0.824231    1.850682
     15          6           0       -0.156843   -1.179267    2.106461
     16          6           0       -0.653134   -1.543323    3.458806
     17          6           0       -1.933899   -2.106408    3.595663
     18          6           0       -2.423369   -2.458942    4.850775
     19          6           0       -1.646892   -2.252387    5.993112
     20          6           0       -0.376268   -1.686526    5.870987
     21          6           0        0.116392   -1.335050    4.615995
     22          7           0       -1.053288   -1.217095    1.106150
     23          6           0       -0.630024   -0.861309   -0.106962
     24          7           0       -1.572709   -0.936385   -1.152619
     25          6           0       -1.282740   -1.625821   -2.363730
     26          6           0       -0.066636   -1.801412   -3.024930
     27          6           0       -0.069406   -2.554409   -4.200146
     28          6           0       -1.249219   -3.117908   -4.708317
     29          6           0       -2.458376   -2.940389   -4.041720
     30          6           0       -2.478035   -2.192802   -2.859670
     31          6           0       -3.545682   -1.830397   -1.949343
     32          6           0       -4.916592   -2.140213   -1.962952
     33          6           0       -5.733670   -1.637179   -0.964519
     34          6           0       -5.195855   -0.759033   -0.008399
     35          6           0       -5.819335   -0.016459    1.063760
     36          6           0       -7.129680    0.038340    1.554546
     37          6           0       -7.428115    0.919562    2.588819
     38          6           0       -6.431437    1.752531    3.124644
     39          6           0       -5.120189    1.712775    2.654321
     40          6           0       -4.819838    0.807198    1.633373
     41          7           0       -3.596322    0.568447    0.979554
     42          6           0       -2.531564    1.518152    0.990756
     43          6           0       -2.149548    2.164447   -0.191176
     44          6           0       -1.132220    3.118429   -0.164718
     45          6           0       -0.506482    3.451358    1.037689
     46          6           0       -0.894633    2.811508    2.216851
     47          6           0       -1.895981    1.841232    2.196044
     48          6           0       -3.822578   -0.395263   -0.015451
     49          6           0       -2.970201   -1.027921   -0.937842
     50          7           0        0.602689   -0.472816   -0.442080
     51          6           0        4.017594   -0.458815    0.918300
     52          6           0        5.294257   -0.051154    0.554036
     53          1           0        8.826086    2.857327   -1.597950
     54          1           0        9.656865    3.403901   -3.884681
     55          1           0        8.633503    2.301554   -5.864870
     56          1           0        6.788902    0.665556   -5.556754
     57          1           0        5.948573    0.156034   -3.288877
     58          1           0        4.505166    1.782733   -2.201140
     59          1           0        2.232448    1.058121   -1.537824
     60          1           0        1.913475   -0.800574    2.639501
     61          1           0       -2.530559   -2.260804    2.704136
     62          1           0       -3.414572   -2.895498    4.936755
     63          1           0       -2.029872   -2.526988    6.972284
     64          1           0        0.231900   -1.513726    6.754697
     65          1           0        1.099702   -0.880275    4.548899
     66          1           0        0.841790   -1.358174   -2.640322
     67          1           0        0.865954   -2.697372   -4.734616
     68          1           0       -1.218914   -3.693099   -5.629550
     69          1           0       -3.374418   -3.376367   -4.431412
     70          1           0       -5.322761   -2.776474   -2.743766
     71          1           0       -6.791285   -1.883955   -0.939186
     72          1           0       -7.903486   -0.594117    1.127164
     73          1           0       -8.439848    0.970793    2.981214
     74          1           0       -6.684459    2.445052    3.922923
     75          1           0       -4.363895    2.370539    3.067370
     76          1           0       -2.652383    1.921146   -1.121391
     77          1           0       -0.839574    3.611841   -1.087506
     78          1           0        0.279769    4.200800    1.055875
     79          1           0       -0.406849    3.056167    3.156568
     80          1           0       -2.172564    1.311924    3.101923
     81          1           0        3.894942   -1.106338    1.781226
     82          1           0        6.158572   -0.343204    1.141415
 ---------------------------------------------------------------------

 SCF Done:  E(RB3LYP) =  -2103.36974190     A.U. after   15 cycles

 Excitation energies and oscillator strengths:

 Excited state symmetry could not be determined.
 Excited State   1:      Triplet-?Sym    2.4567 eV  504.69 nm  f=0.0000  <S**2>=2.000
     174 ->175         0.67823
     174 ->176         0.13637
 This state for optimization and/or second-order correction.
 Total Energy, E(TD-HF/TD-DFT) =  -2103.27946148
 Copying the excited state density for this state as the 1-particle RhoCI density.

 Excited state symmetry could not be determined.
 Excited State   2:      Singlet-?Sym    2.5262 eV  490.80 nm  f=0.0019  <S**2>=0.000
     174 ->175         0.69396
     174 ->176         0.12240

 Excited state symmetry could not be determined.
 Excited State   3:      Triplet-?Sym    2.7150 eV  456.66 nm  f=0.0000  <S**2>=2.000
     173 ->175         0.69402

 Excited state symmetry could not be determined.
 Excited State   4:      Singlet-?Sym    2.7194 eV  455.93 nm  f=0.0007  <S**2>=0.000
     173 ->175         0.69936

 Alpha  occ. eigenvalues --  -19.13801 -14.38437 -14.37935 -14.33874 -14.33636
 Alpha  occ. eigenvalues --  -10.29864 -10.27932 -10.25452 -10.25371 -10.23403
 Alpha  occ. eigenvalues --  -10.22773 -10.22711 -10.22262 -10.22013 -10.21669
 Alpha  occ. eigenvalues --  -10.20990 -10.20770 -10.20739 -10.20730 -10.20578
 Alpha  occ. eigenvalues --  -10.20527 -10.20514 -10.20483 -10.20400 -10.20278
 Alpha  occ. eigenvalues --  -10.20263 -10.20187 -10.20060 -10.20029 -10.19982
 Alpha  occ. eigenvalues --  -10.19917 -10.19622 -10.19603 -10.19544 -10.19398
 Alpha  occ. eigenvalues --  -10.19381 -10.19369 -10.19339 -10.18893 -10.18756
 Alpha  occ. eigenvalues --  -10.18679 -10.18590 -10.18518 -10.18474 -10.18439
 Alpha  occ. eigenvalues --  -10.18415 -10.18395 -10.18395 -10.18256 -10.18208
 Alpha  occ. eigenvalues --  -10.18128 -10.17916  -1.03716  -1.01917  -0.98466
 Alpha  occ. eigenvalues --   -0.96201  -0.90689  -0.87256  -0.86574  -0.86412
 Alpha  occ. eigenvalues --   -0.86014  -0.84723  -0.83888  -0.83584  -0.81031
 Alpha  occ. eigenvalues --   -0.78682  -0.78044  -0.76443  -0.76006  -0.75906
 Alpha  occ. eigenvalues --   -0.75551  -0.75339  -0.75259  -0.74687  -0.74637
 Alpha  occ. eigenvalues --   -0.74257  -0.73175  -0.71291  -0.70148  -0.68180
 Alpha  occ. eigenvalues --   -0.66846  -0.64945  -0.63843  -0.63411  -0.62115
 Alpha  occ. eigenvalues --   -0.61883  -0.61633  -0.61266  -0.60709  -0.60091
 Alpha  occ. eigenvalues --   -0.59670  -0.58931  -0.58443  -0.56943  -0.56408
 Alpha  occ. eigenvalues --   -0.56350  -0.54562  -0.53599  -0.53336  -0.52476
 Alpha  occ. eigenvalues --   -0.52045  -0.51378  -0.50418  -0.49850  -0.48983
 Alpha  occ. eigenvalues --   -0.48456  -0.48180  -0.47553  -0.47114  -0.46615
 Alpha  occ. eigenvalues --   -0.46233  -0.46155  -0.45961  -0.45803  -0.45186
 Alpha  occ. eigenvalues --   -0.44936  -0.44506  -0.44242  -0.43789  -0.43700
 Alpha  occ. eigenvalues --   -0.43404  -0.43369  -0.43152  -0.43101  -0.42789
 Alpha  occ. eigenvalues --   -0.42572  -0.42537  -0.42108  -0.41857  -0.41672
 Alpha  occ. eigenvalues --   -0.41034  -0.40725  -0.40186  -0.40005  -0.38464
 Alpha  occ. eigenvalues --   -0.37938  -0.37546  -0.37448  -0.37279  -0.36661
 Alpha  occ. eigenvalues --   -0.36564  -0.36286  -0.36123  -0.35714  -0.35448
 Alpha  occ. eigenvalues --   -0.35327  -0.35189  -0.35100  -0.34921  -0.34657
 Alpha  occ. eigenvalues --   -0.34542  -0.33652  -0.33342  -0.33176  -0.32782
 Alpha  occ. eigenvalues --   -0.31982  -0.30909  -0.29576  -0.27759  -0.26763
 Alpha  occ. eigenvalues --   -0.26436  -0.26188  -0.26063  -0.25824  -0.25690
 Alpha  occ. eigenvalues --   -0.25454  -0.25303  -0.24696  -0.24670  -0.24341
 Alpha  occ. eigenvalues --   -0.24138  -0.21822  -0.19572  -0.19038
 Alpha virt. eigenvalues --   -0.08128  -0.05801  -0.04186  -0.03059  -0.01650
 Alpha virt. eigenvalues --   -0.01171  -0.00939  -0.00814  -0.00587   0.00007
 Alpha virt. eigenvalues --    0.00638   0.01157   0.01901   0.02637   0.04107

 Mulliken charges:
               1
     1  O   -0.463062
     2  C    0.319836
     3  C    0.072212
     4  C   -0.150277
     5  C   -0.135020
     6  C   -0.118671
     7  C   -0.136736
     8  C   -0.176841
     9  C    0.082715
    10  C   -0.186389
    11  C   -0.167575
    12  C    0.095841
    13  C    0.283679
    14  C   -0.216551
    15  C    0.299540
    16  C    0.075569
    17  C   -0.158812
    18  C   -0.134927
    19  C   -0.118705
    20  C   -0.140194
    21  C   -0.175893
    22  N   -0.540084
    23  C    0.644048
    24  N   -0.720267
    25  C    0.266877
    26  C   -0.166942
    27  C   -0.145455
    28  C   -0.138330
    29  C   -0.203131
    30  C    0.073562
    31  C    0.056553
    32  C   -0.209434
    33  C   -0.210262
    34  C    0.052615
    35  C    0.060211
    36  C   -0.199309
    37  C   -0.144317
    38  C   -0.142259
    39  C   -0.178262
    40  C    0.305762
    41  N   -0.730625
    42  C    0.250914
    43  C   -0.136270
    44  C   -0.139614
    45  C   -0.122437
    46  C   -0.145828
    47  C   -0.165236
    48  C    0.309608
    49  C    0.304894
    50  N   -0.549033
    51  C   -0.178290
    52  C   -0.164526
    53  H    0.160293
    54  H    0.139327
    55  H    0.138684
    56  H    0.138400
    57  H    0.150358
    58  H    0.153367
    59  H    0.166669
    60  H    0.151203
    61  H    0.177351
    62  H    0.141357
    63  H    0.136327
    64  H    0.135119
    65  H    0.133582
    66  H    0.164176
    67  H    0.124612
    68  H    0.124207
    69  H    0.129855
    70  H    0.127765
    71  H    0.128336
    72  H    0.128496
    73  H    0.122979
    74  H    0.125321
    75  H    0.139054
    76  H    0.153741
    77  H    0.136679
    78  H    0.132780
    79  H    0.134432
    80  H    0.157145
    81  H    0.141281
    82  H    0.162237
 Sum of Mulliken charges =  -0.00000

 Dipole moment (field-independent basis, Debye):
    X=              0.7122    Y=              0.6205    Z=              0.1935  Tot=              0.9642
 Quadrupole moment (field-independent basis, Debye-Ang):
   XX=           -297.2814   YY=           -288.6344   ZZ=           -257.4195
   XY=              7.7272   XZ=            -18.7945   YZ=             -4.0575

 Normal termination of Gaussian 16 at Sat Nov  5 10:48:28 2022.
