 Gaussian 16, Revision B.01,
 Gaussian 16:  ES64L-G16RevB.01 20-Dec-2017

 -----------------------------
 #p b3lyp/6-31g(d) opt SCF=XQC
 -----------------------------

 ------------------------------
 Gaussian input prepared by ASE
 ------------------------------
 Symbolic Z-matrix:
 Charge =  0 Multiplicity = 1

 SCF Done:  E(RB3LYP) =  -1905.00442117     A.U. after   15 cycles
 SCF Done:  E(RB3LYP) =  -1905.01549502     A.U. after   13 cycles
 SCF Done:  E(RB3LYP) =  -1905.01633581     A.U. after   12 cycles
 SCF Done:  E(RB3LYP) =  -1905.01656706     A.U. after   12 cycles
 SCF Done:  E(RB3LYP) =  -1905.01662573     A.U. after   11 cycles
 SCF Done:  E(RB3LYP) =  -1905.01664278     A.U. after   10 cycles
 SCF Done:  E(RB3LYP) =  -1905.01665009     A.U. after   10 cycles
 SCF Done:  E(RB3LYP) =  -1905.01665378     A.U. after    9 cycles
 SCF Done:  E(RB3LYP) =  -1905.01665537     A.U. after    9 cycles
 SCF Done:  E(RB3LYP) =  -1905.01665602     A.U. after    8 cycles
 SCF Done:  E(RB3LYP) =  -1905.01665618     A.U. after    7 cycles
 SCF Done:  E(RB3LYP) =  -1905.01665622     A.U. after    7 cycles
 SCF Done:  E(RB3LYP) =  -1905.01665624     A.U. after    6 cycles
 Optimization completed.
    -- Stationary point found.

                         Standard orientation:
 ---------------------------------------------------------------------
 Center     Atomic      Atomic             Coordinates (Angstroms)
 Number     Number       Type             X           Y           Z
 ---------------------------------------------------------------------
      1          6           0        2.889373    3.419144    0.466804
      2          6           0        3.607115    2.153568    0.050323
      3          6           0        2.923266    0.996767   -0.305492
      4          6           0        1.439008    0.860533   -0.230202
      5          6           0        0.742451    1.047535    0.975098
      6          6           0       -0.639012    0.876663    1.043971
      7          6           0       -1.354638    0.512460   -0.098735
      8          7           0       -2.776380    0.363904   -0.037528
      9          6           0       -3.676519    1.427952    0.069324
     10          6           0       -4.961403    0.914368    0.137477
     11          6           0       -4.864453   -0.504117    0.019975
     12          6           0       -5.869188   -1.539219   -0.070722
     13          6           0       -7.248177   -1.248577   -0.179997
     14          6           0       -8.193233   -2.252863   -0.289480
     15          6           0       -7.782723   -3.593369   -0.306611
     16          6           0       -6.436072   -3.900986   -0.222344
     17          6           0       -5.444713   -2.900299   -0.102559
     18          6           0       -4.017436   -3.227945   -0.019488
     19          6           0       -3.578547   -4.568899    0.049639
     20          6           0       -2.240238   -4.906309    0.141748
     21          6           0       -1.274620   -3.892096    0.180761
     22          6           0       -1.662434   -2.566207    0.117480
     23          6           0       -3.024720   -2.193363    0.005516
     24          6           0       -3.498806   -0.829871   -0.037967
     25          6           0       -6.133334    1.839235    0.330705
     26          6           0       -5.672072    3.087265    1.103102
     27          6           0       -4.430472    3.712453    0.506195
     28          6           0       -4.274825    5.096382    0.449738
     29          6           0       -3.119051    5.675255   -0.078823
     30          6           0       -2.109871    4.851056   -0.572246
     31          6           0       -2.248333    3.463824   -0.529796
     32          6           0       -3.396988    2.868103    0.020818
     33          6           0       -0.679482    0.316932   -1.307605
     34          6           0        0.702414    0.482645   -1.366410
     35          6           0        3.647950   -0.135774   -0.776721
     36          6           0        5.019200   -0.166355   -0.873819
     37          6           0        5.708578   -1.414232   -1.393837
     38          6           0        6.486393   -2.228793   -0.364930
     39          6           0        7.688844   -2.851213   -0.724433
     40          6           0        8.389239   -3.642857    0.187433
     41          6           0        7.895826   -3.823194    1.480064
     42          6           0        6.699132   -3.206339    1.850340
     43          6           0        6.001702   -2.416501    0.935953
     44          6           0        5.755984    0.998714   -0.482644
     45          6           0        7.174986    1.045392   -0.540553
     46          6           0        7.871196    2.176201   -0.175058
     47          6           0        7.174319    3.319133    0.270945
     48          6           0        5.798524    3.306863    0.341269
     49          6           0        5.042783    2.158828   -0.027681
     50          1           0        3.218321    4.271512   -0.139379
     51          1           0        3.088765    3.678147    1.514893
     52          1           0        1.809030    3.330114    0.348953
     53          1           0        1.293067    1.313409    1.872684
     54          1           0       -1.167981    1.017386    1.981377
     55          1           0       -7.573132   -0.216450   -0.207550
     56          1           0       -9.246633   -1.999792   -0.375739
     57          1           0       -8.514716   -4.390971   -0.400216
     58          1           0       -6.148598   -4.945067   -0.265871
     59          1           0       -4.307305   -5.370752    0.046788
     60          1           0       -1.946217   -5.950918    0.195608
     61          1           0       -0.220272   -4.139610    0.271062
     62          1           0       -0.899135   -1.804828    0.173134
     63          1           0       -6.929132    1.351880    0.901968
     64          1           0       -6.572072    2.132520   -0.636282
     65          1           0       -5.455409    2.782554    2.138831
     66          1           0       -6.479167    3.826709    1.154019
     67          1           0       -5.074166    5.731108    0.826333
     68          1           0       -3.016087    6.756430   -0.113710
     69          1           0       -1.211710    5.283650   -1.005349
     70          1           0       -1.462549    2.849267   -0.948945
     71          1           0       -1.242860    0.037886   -2.192853
     72          1           0        1.219500    0.336225   -2.310624
     73          1           0        3.079595   -1.019121   -1.058231
     74          1           0        4.940300   -2.059961   -1.840250
     75          1           0        6.385464   -1.150623   -2.216674
     76          1           0        8.080047   -2.716349   -1.731105
     77          1           0        9.321430   -4.114835   -0.112433
     78          1           0        8.439805   -4.436318    2.193594
     79          1           0        6.307382   -3.337994    2.855780
     80          1           0        5.074978   -1.934245    1.235208
     81          1           0        7.719960    0.165349   -0.863446
     82          1           0        8.956591    2.186730   -0.225429
     83          1           0        7.724025    4.209868    0.563247
     84          1           0        5.282003    4.192408    0.694163
 ---------------------------------------------------------------------

 The electronic state is 1-A.
 Alpha  occ. eigenvalues --  -14.38638 -10.23933 -10.21711 -10.21436 -10.21229
 Alpha  occ. eigenvalues --  -10.20437 -10.20433 -10.20433 -10.20380 -10.20373
 Alpha  occ. eigenvalues --  -10.20232 -10.19988 -10.19955 -10.19927 -10.19898
 Alpha  occ. eigenvalues --  -10.19870 -10.19740 -10.19714 -10.19428 -10.19196
 Alpha  occ. eigenvalues --  -10.19188 -10.19132 -10.19109 -10.19070 -10.19049
 Alpha  occ. eigenvalues --  -10.19021 -10.18928 -10.18889 -10.18806 -10.18765
 Alpha  occ. eigenvalues --  -10.18731 -10.18690 -10.18634 -10.18490 -10.18460
 Alpha  occ. eigenvalues --  -10.18376 -10.18330 -10.18284 -10.18261 -10.18255
 Alpha  occ. eigenvalues --  -10.18219 -10.18122 -10.18101 -10.18086 -10.18026
 Alpha  occ. eigenvalues --  -10.17976 -10.17943 -10.17854 -10.17735  -0.98785
 Alpha  occ. eigenvalues --   -0.88369  -0.87312  -0.86554  -0.85758  -0.85297
 Alpha  occ. eigenvalues --   -0.83858  -0.83063  -0.81514  -0.80450  -0.79424
 Alpha  occ. eigenvalues --   -0.77475  -0.76500  -0.76344  -0.75948  -0.75847
 Alpha  occ. eigenvalues --   -0.74665  -0.74116  -0.73872  -0.73395  -0.72909
 Alpha  occ. eigenvalues --   -0.71563  -0.71071  -0.70153  -0.69579  -0.66096
 Alpha  occ. eigenvalues --   -0.64376  -0.63066  -0.62599  -0.62541  -0.61741
 Alpha  occ. eigenvalues --   -0.61652  -0.60991  -0.60257  -0.59551  -0.58602
 Alpha  occ. eigenvalues --   -0.58457  -0.57692  -0.57219  -0.56251  -0.54587
 Alpha  occ. eigenvalues --   -0.53370  -0.52910  -0.51705  -0.51579  -0.50684
 Alpha  occ. eigenvalues --   -0.50476  -0.49536  -0.49025  -0.47822  -0.47744
 Alpha  occ. eigenvalues --   -0.46929  -0.46415  -0.46184  -0.45779  -0.45744
 Alpha  occ. eigenvalues --   -0.45326  -0.44860  -0.44742  -0.44218  -0.43945
 Alpha  occ. eigenvalues --   -0.43546  -0.43444  -0.42650  -0.42465  -0.41873
 Alpha  occ. eigenvalues --   -0.41759  -0.41681  -0.41596  -0.41391  -0.41153
 Alpha  occ. eigenvalues --   -0.41070  -0.40707  -0.40267  -0.40209  -0.39339
 Alpha  occ. eigenvalues --   -0.39085  -0.38740  -0.38493  -0.37955  -0.37691
 Alpha  occ. eigenvalues --   -0.37501  -0.37394  -0.37225  -0.36486  -0.36143
 Alpha  occ. eigenvalues --   -0.35899  -0.35659  -0.35342  -0.35049  -0.34629
 Alpha  occ. eigenvalues --   -0.34310  -0.34161  -0.33978  -0.33291  -0.33177
 Alpha  occ. eigenvalues --   -0.32744  -0.32454  -0.32135  -0.31730  -0.30988
 Alpha  occ. eigenvalues --   -0.28804  -0.27593  -0.27432  -0.26994  -0.26441
 Alpha  occ. eigenvalues --   -0.26090  -0.24773  -0.24616  -0.24045  -0.23864
 Alpha  occ. eigenvalues --   -0.23599  -0.22105  -0.21189  -0.20297  -0.17916
 Alpha virt. eigenvalues --   -0.04703  -0.03353  -0.02738  -0.02159  -0.01732
 Alpha virt. eigenvalues --   -0.00772  -0.00430  -0.00002   0.00397   0.00758
 Alpha virt. eigenvalues --    0.02161   0.03442   0.04595   0.07525   0.08643

 Mulliken charges:
               1
     1  C   -0.547175
     2  C    0.089582
     3  C    0.015121
     4  C    0.064189
     5  C   -0.179791
     6  C   -0.118044
     7  C    0.190831
     8  N   -0.715399
     9  C    0.193714
    10  C    0.054634
    11  C   -0.043358
    12  C    0.083001
    13  C   -0.207238
    14  C   -0.137811
    15  C   -0.133198
    16  C   -0.208192
    17  C    0.075550
    18  C    0.048750
    19  C   -0.204808
    20  C   -0.134070
    21  C   -0.138704
    22  C   -0.208528
    23  C    0.152482
    24  C    0.208969
    25  C   -0.348122
    26  C   -0.351018
    27  C    0.118365
    28  C   -0.208527
    29  C   -0.122448
    30  C   -0.145758
    31  C   -0.185698
    32  C    0.116567
    33  C   -0.135198
    34  C   -0.176832
    35  C   -0.258074
    36  C    0.133735
    37  C   -0.448850
    38  C    0.181257
    39  C   -0.191896
    40  C   -0.126868
    41  C   -0.130869
    42  C   -0.128721
    43  C   -0.177377
    44  C    0.087275
    45  C   -0.192036
    46  C   -0.136573
    47  C   -0.127894
    48  C   -0.203790
    49  C    0.078015
    50  H    0.163764
    51  H    0.161969
    52  H    0.171176
    53  H    0.146632
    54  H    0.153521
    55  H    0.133544
    56  H    0.124626
    57  H    0.123786
    58  H    0.130173
    59  H    0.131677
    60  H    0.125210
    61  H    0.125151
    62  H    0.149209
    63  H    0.154403
    64  H    0.150836
    65  H    0.156771
    66  H    0.140782
    67  H    0.121469
    68  H    0.125182
    69  H    0.125274
    70  H    0.145117
    71  H    0.154836
    72  H    0.145796
    73  H    0.128601
    74  H    0.164112
    75  H    0.154564
    76  H    0.121375
    77  H    0.128481
    78  H    0.128298
    79  H    0.129646
    80  H    0.133676
    81  H    0.139878
    82  H    0.131194
    83  H    0.129731
    84  H    0.130372
 Sum of Mulliken charges =  -0.00000

 Dipole moment (field-independent basis, Debye):
    X=              2.3203    Y=              1.1138    Z=              0.1282  Tot=              2.5770
 Quadrupole moment (field-independent basis, Debye-Ang):
   XX=           -260.5262   YY=           -264.1592   ZZ=           -279.5843
   XY=             -4.1462   XZ=             -4.0223   YZ=              3.8528

 1\1\GINC-NODE57\FOpt\RB3LYP\6-31G(d)\C48H35N1\WYKGROUP\05-Nov-2022\0\\
 #p b3lyp/6-31g(d) opt SCF=XQC\\Gaussian input prepared by ASE\\0,1\C,2
 .8206899923,2.736646589,-1.7997001881\C,3.4918748657,1.4628953687,-1.3
 334820907\C,2.7689820821,0.3792681162,-0.8480756454\C,1.288719338,0.39
 41836936,-0.6587359566\C,0.6616769924,1.3393965506,0.1696960925\C,-0.7
 169302539,1.3186025379,0.3731368637\C,-1.4996201035,0.3452116298,-0.25
 17227229\N,-2.9184512157,0.3386536304,-0.0672187437\C,-3.7920874399,1.
 2689660005,-0.6374342089\C,-5.0805224104,0.9793453604,-0.2186314254\C,

 Normal termination of Gaussian 16 at Sat Nov  5 01:40:34 2022.
