 Gaussian 16, Revision B.01,
 Gaussian 16:  ES64L-G16RevB.01 20-Dec-2017

 -------------------------------------------------------------------
 #p b3lyp/6-31g(d) 6D 10F nosymm GFInput td=(50-50,nstate=2) SCF=XQC
 -------------------------------------------------------------------

 ------------------------------
 Gaussian input prepared by ASE
 ------------------------------
 Symbolic Z-matrix:
 Charge =  0 Multiplicity = 1

                          Input orientation:
 ---------------------------------------------------------------------
 Center     Atomic      Atomic             Coordinates (Angstroms)
 Number     Number       Type             X           Y           Z
 ---------------------------------------------------------------------
      1          6           0        2.820690    2.736647   -1.799700
      2          6           0        3.491875    1.462895   -1.333482
      3          6           0        2.768982    0.379268   -0.848076
      4          6           0        1.288719    0.394184   -0.658736
      5          6           0        0.661677    1.339397    0.169696
      6          6           0       -0.716930    1.318603    0.373137
      7          6           0       -1.499620    0.345212   -0.251723
      8          7           0       -2.918451    0.338654   -0.067219
      9          6           0       -3.792087    1.268966   -0.637434
     10          6           0       -5.080522    0.979345   -0.218631
     11          6           0       -5.015771   -0.191621    0.593743
     12          6           0       -6.042529   -0.997239    1.214955
     13          6           0       -7.419910   -0.776505    0.986655
     14          6           0       -8.387539   -1.573262    1.571957
     15          6           0       -8.002910   -2.635469    2.402347
     16          6           0       -6.659470   -2.883628    2.623220
     17          6           0       -5.645123   -2.085317    2.046752
     18          6           0       -4.221615   -2.353549    2.277078
     19          6           0       -3.804010   -3.362537    3.173242
     20          6           0       -2.469016   -3.628221    3.419418
     21          6           0       -1.484478   -2.869701    2.772965
     22          6           0       -1.851049   -1.871052    1.889387
     23          6           0       -3.210411   -1.589589    1.606035
     24          6           0       -3.661364   -0.545225    0.716259
     25          6           0       -6.223375    1.870723   -0.625414
     26          6           0       -5.698590    3.300626   -0.842018
     27          6           0       -4.479861    3.341458   -1.737428
     28          6           0       -4.302430    4.362826   -2.669093
     29          6           0       -3.166542    4.415703   -3.479800
     30          6           0       -2.200541    3.418465   -3.363287
     31          6           0       -2.361629    2.384804   -2.440800
     32          6           0       -3.489526    2.332666   -1.602590
     33          6           0       -0.894291   -0.607800   -1.076816
     34          6           0        0.485199   -0.584584   -1.269233
     35          6           0        3.446557   -0.827326   -0.509109
     36          6           0        4.809796   -0.979019   -0.605330
     37          6           0        5.447401   -2.303721   -0.229191
     38          6           0        6.264680   -2.312806    1.058880
     39          6           0        7.434518   -3.078843    1.143771
     40          6           0        8.168606   -3.141090    2.329517
     41          6           0        7.742432   -2.432729    3.453560
     42          6           0        6.578822   -1.664392    3.380335
     43          6           0        5.847525   -1.605283    2.193714
     44          6           0        5.587595    0.130930   -1.070406
     45          6           0        7.002021    0.061332   -1.187247
     46          6           0        7.737307    1.130527   -1.648984
     47          6           0        7.086321    2.327705   -2.014820
     48          6           0        5.716325    2.429595   -1.911694
     49          6           0        4.921107    1.347824   -1.439832
     50          1           0        3.131863    2.990517   -2.819954
     51          1           0        3.080973    3.593801   -1.164980
     52          1           0        1.734128    2.645339   -1.801136
     53          1           0        1.264623    2.088997    0.673763
     54          1           0       -1.191942    2.049483    1.020068
     55          1           0       -7.727120    0.015827    0.316226
     56          1           0       -9.439298   -1.382526    1.375594
     57          1           0       -8.753219   -3.273389    2.861519
     58          1           0       -6.393730   -3.728613    3.247738
     59          1           0       -4.546273   -3.946083    3.704828
     60          1           0       -2.191497   -4.411906    4.118975
     61          1           0       -0.431454   -3.053633    2.968862
     62          1           0       -1.072188   -1.286689    1.423217
     63          1           0       -6.995909    1.898050    0.148920
     64          1           0       -6.708234    1.501751   -1.543207
     65          1           0       -5.431947    3.715327    0.142588
     66          1           0       -6.488232    3.941049   -1.250791
     67          1           0       -5.068666    5.129720   -2.760770
     68          1           0       -3.046033    5.220405   -4.200001
     69          1           0       -1.319352    3.432044   -3.999469
     70          1           0       -1.610858    1.606983   -2.394321
     71          1           0       -1.509552   -1.359060   -1.562602
     72          1           0        0.947876   -1.323609   -1.917406
     73          1           0        2.847934   -1.658808   -0.144605
     74          1           0        4.644592   -3.047725   -0.137231
     75          1           0        6.083594   -2.657680   -1.050590
     76          1           0        7.773244   -3.635126    0.271746
     77          1           0        9.074563   -3.740316    2.372317
     78          1           0        8.312897   -2.476368    4.377478
     79          1           0        6.239540   -1.106397    4.249381
     80          1           0        4.947179   -0.998801    2.143719
     81          1           0        7.512752   -0.847814   -0.890025
     82          1           0        8.818418    1.054051   -1.726955
     83          1           0        7.667042    3.172648   -2.375182
     84          1           0        5.235718    3.360705   -2.190207
 ---------------------------------------------------------------------

 SCF Done:  E(RB3LYP) =  -1905.01666173     A.U. after   15 cycles

 Excitation energies and oscillator strengths:

 Excited state symmetry could not be determined.
 Excited State   1:      Triplet-?Sym    2.5087 eV  494.23 nm  f=0.0000  <S**2>=2.000
     165 ->166         0.15221
     165 ->167         0.60145
     165 ->169        -0.17790
 This state for optimization and/or second-order correction.
 Total Energy, E(TD-HF/TD-DFT) =  -1904.92447039
 Copying the excited state density for this state as the 1-particle RhoCI density.

 Excited state symmetry could not be determined.
 Excited State   2:      Triplet-?Sym    2.6217 eV  472.92 nm  f=0.0000  <S**2>=2.000
     152 ->177         0.10551
     163 ->166         0.63669
     163 ->167        -0.13082

 Excited state symmetry could not be determined.
 Excited State   3:      Singlet-?Sym    3.1898 eV  388.70 nm  f=0.0090  <S**2>=0.000
     165 ->166         0.68720
     165 ->168         0.10292

 Excited state symmetry could not be determined.
 Excited State   4:      Singlet-?Sym    3.5442 eV  349.82 nm  f=0.1563  <S**2>=0.000
     164 ->167        -0.13600
     165 ->167        -0.36412
     165 ->168         0.50620
     165 ->169        -0.25319

 Alpha  occ. eigenvalues --  -14.38638 -10.23933 -10.21711 -10.21436 -10.21229
 Alpha  occ. eigenvalues --  -10.20437 -10.20433 -10.20433 -10.20380 -10.20373
 Alpha  occ. eigenvalues --  -10.20232 -10.19988 -10.19955 -10.19927 -10.19898
 Alpha  occ. eigenvalues --  -10.19870 -10.19740 -10.19715 -10.19428 -10.19196
 Alpha  occ. eigenvalues --  -10.19188 -10.19132 -10.19109 -10.19070 -10.19049
 Alpha  occ. eigenvalues --  -10.19021 -10.18928 -10.18889 -10.18806 -10.18765
 Alpha  occ. eigenvalues --  -10.18731 -10.18690 -10.18634 -10.18490 -10.18460
 Alpha  occ. eigenvalues --  -10.18376 -10.18330 -10.18284 -10.18261 -10.18255
 Alpha  occ. eigenvalues --  -10.18219 -10.18122 -10.18101 -10.18086 -10.18026
 Alpha  occ. eigenvalues --  -10.17976 -10.17943 -10.17854 -10.17735  -0.98785
 Alpha  occ. eigenvalues --   -0.88369  -0.87312  -0.86554  -0.85758  -0.85297
 Alpha  occ. eigenvalues --   -0.83858  -0.83063  -0.81514  -0.80450  -0.79424
 Alpha  occ. eigenvalues --   -0.77475  -0.76500  -0.76344  -0.75948  -0.75847
 Alpha  occ. eigenvalues --   -0.74665  -0.74116  -0.73872  -0.73395  -0.72909
 Alpha  occ. eigenvalues --   -0.71563  -0.71071  -0.70153  -0.69579  -0.66096
 Alpha  occ. eigenvalues --   -0.64376  -0.63066  -0.62599  -0.62541  -0.61741
 Alpha  occ. eigenvalues --   -0.61652  -0.60991  -0.60257  -0.59551  -0.58602
 Alpha  occ. eigenvalues --   -0.58457  -0.57692  -0.57219  -0.56251  -0.54587
 Alpha  occ. eigenvalues --   -0.53370  -0.52910  -0.51705  -0.51579  -0.50684
 Alpha  occ. eigenvalues --   -0.50476  -0.49536  -0.49025  -0.47822  -0.47744
 Alpha  occ. eigenvalues --   -0.46929  -0.46415  -0.46184  -0.45779  -0.45744
 Alpha  occ. eigenvalues --   -0.45326  -0.44860  -0.44742  -0.44218  -0.43945
 Alpha  occ. eigenvalues --   -0.43546  -0.43444  -0.42650  -0.42465  -0.41873
 Alpha  occ. eigenvalues --   -0.41759  -0.41681  -0.41596  -0.41391  -0.41153
 Alpha  occ. eigenvalues --   -0.41070  -0.40707  -0.40267  -0.40209  -0.39339
 Alpha  occ. eigenvalues --   -0.39085  -0.38740  -0.38493  -0.37955  -0.37691
 Alpha  occ. eigenvalues --   -0.37501  -0.37394  -0.37225  -0.36486  -0.36143
 Alpha  occ. eigenvalues --   -0.35899  -0.35659  -0.35342  -0.35049  -0.34629
 Alpha  occ. eigenvalues --   -0.34310  -0.34161  -0.33978  -0.33291  -0.33177
 Alpha  occ. eigenvalues --   -0.32744  -0.32454  -0.32135  -0.31730  -0.30988
 Alpha  occ. eigenvalues --   -0.28804  -0.27593  -0.27432  -0.26994  -0.26441
 Alpha  occ. eigenvalues --   -0.26090  -0.24773  -0.24616  -0.24045  -0.23864
 Alpha  occ. eigenvalues --   -0.23599  -0.22105  -0.21189  -0.20297  -0.17916
 Alpha virt. eigenvalues --   -0.04703  -0.03353  -0.02738  -0.02159  -0.01732
 Alpha virt. eigenvalues --   -0.00772  -0.00430  -0.00002   0.00396   0.00758
 Alpha virt. eigenvalues --    0.02161   0.03442   0.04595   0.07525   0.08643

 Mulliken charges:
               1
     1  C   -0.547175
     2  C    0.089593
     3  C    0.015114
     4  C    0.064141
     5  C   -0.179764
     6  C   -0.118035
     7  C    0.190793
     8  N   -0.715443
     9  C    0.193740
    10  C    0.054632
    11  C   -0.043337
    12  C    0.082994
    13  C   -0.207238
    14  C   -0.137821
    15  C   -0.133196
    16  C   -0.208185
    17  C    0.075549
    18  C    0.048740
    19  C   -0.204810
    20  C   -0.134070
    21  C   -0.138703
    22  C   -0.208523
    23  C    0.152467
    24  C    0.209008
    25  C   -0.348137
    26  C   -0.350988
    27  C    0.118357
    28  C   -0.208526
    29  C   -0.122446
    30  C   -0.145778
    31  C   -0.185658
    32  C    0.116539
    33  C   -0.135174
    34  C   -0.176825
    35  C   -0.258063
    36  C    0.133703
    37  C   -0.448833
    38  C    0.181249
    39  C   -0.191896
    40  C   -0.126874
    41  C   -0.130866
    42  C   -0.128709
    43  C   -0.177383
    44  C    0.087302
    45  C   -0.192043
    46  C   -0.136571
    47  C   -0.127897
    48  C   -0.203792
    49  C    0.078017
    50  H    0.163765
    51  H    0.161970
    52  H    0.171174
    53  H    0.146633
    54  H    0.153523
    55  H    0.133543
    56  H    0.124627
    57  H    0.123787
    58  H    0.130173
    59  H    0.131677
    60  H    0.125210
    61  H    0.125151
    62  H    0.149209
    63  H    0.154402
    64  H    0.150837
    65  H    0.156768
    66  H    0.140779
    67  H    0.121469
    68  H    0.125184
    69  H    0.125276
    70  H    0.145114
    71  H    0.154834
    72  H    0.145797
    73  H    0.128596
    74  H    0.164114
    75  H    0.154565
    76  H    0.121374
    77  H    0.128482
    78  H    0.128298
    79  H    0.129645
    80  H    0.133672
    81  H    0.139878
    82  H    0.131194
    83  H    0.129731
    84  H    0.130371
 Sum of Mulliken charges =  -0.00000

 Dipole moment (field-independent basis, Debye):
    X=              2.3437    Y=              0.8264    Z=             -0.6820  Tot=              2.5770
 Quadrupole moment (field-independent basis, Debye-Ang):
   XX=           -261.8670   YY=           -266.1604   ZZ=           -277.1875
   XY=             -6.4756   XZ=             -0.9009   YZ=             -6.5161

 Normal termination of Gaussian 16 at Sat Nov  5 10:51:36 2022.
