 Gaussian 16, Revision B.01,
 Gaussian 16:  ES64L-G16RevB.01 20-Dec-2017

 -----------------------------
 #p b3lyp/6-31g(d) opt SCF=XQC
 -----------------------------

 ------------------------------
 Gaussian input prepared by ASE
 ------------------------------
 Symbolic Z-matrix:
 Charge =  0 Multiplicity = 1

 SCF Done:  E(RB3LYP) =  -1729.20082417     A.U. after   16 cycles
 SCF Done:  E(RB3LYP) =  -1729.21657051     A.U. after   15 cycles
 SCF Done:  E(RB3LYP) =  -1729.22196615     A.U. after   15 cycles
 SCF Done:  E(RB3LYP) =  -1729.22311784     A.U. after   12 cycles
 SCF Done:  E(RB3LYP) =  -1729.22349498     A.U. after   12 cycles
 SCF Done:  E(RB3LYP) =  -1729.22362849     A.U. after   11 cycles
 SCF Done:  E(RB3LYP) =  -1729.22371792     A.U. after   11 cycles
 SCF Done:  E(RB3LYP) =  -1729.22380289     A.U. after   11 cycles
 SCF Done:  E(RB3LYP) =  -1729.22393230     A.U. after   12 cycles
 SCF Done:  E(RB3LYP) =  -1729.22401632     A.U. after   12 cycles
 SCF Done:  E(RB3LYP) =  -1729.22417066     A.U. after   12 cycles
 SCF Done:  E(RB3LYP) =  -1729.22422844     A.U. after   12 cycles
 SCF Done:  E(RB3LYP) =  -1729.22422866     A.U. after   10 cycles
 SCF Done:  E(RB3LYP) =  -1729.22422963     A.U. after    9 cycles
 SCF Done:  E(RB3LYP) =  -1729.22422954     A.U. after    9 cycles
 SCF Done:  E(RB3LYP) =  -1729.22422956     A.U. after    7 cycles
 SCF Done:  E(RB3LYP) =  -1729.22422959     A.U. after    7 cycles
 SCF Done:  E(RB3LYP) =  -1729.22422965     A.U. after    6 cycles
 SCF Done:  E(RB3LYP) =  -1729.22422969     A.U. after    6 cycles
 Optimization completed.
    -- Stationary point found.

                         Standard orientation:
 ---------------------------------------------------------------------
 Center     Atomic      Atomic             Coordinates (Angstroms)
 Number     Number       Type             X           Y           Z
 ---------------------------------------------------------------------
      1          6           0        4.468611    3.948605   -1.086152
      2          6           0        2.934424    3.915003   -0.903972
      3          6           0        2.259218    4.795870   -1.979257
      4          6           0        2.533136    4.353916    0.503909
      5          6           0        2.749049    5.576551    1.129916
      6          6           0        2.289962    5.765117    2.439090
      7          6           0        1.621062    4.736761    3.111461
      8          6           0        1.401201    3.506429    2.488653
      9          6           0        1.859941    3.318365    1.182567
     10          6           0        1.773511    2.152284    0.296380
     11          6           0        1.203772    0.899834    0.520881
     12          6           0        1.281205   -0.013692   -0.530525
     13          6           0        1.894367    0.294614   -1.773026
     14          6           0        2.460798    1.563977   -1.971292
     15          6           0        2.398056    2.482771   -0.935360
     16          6           0        1.770433   -0.885076   -2.604812
     17          6           0        2.168046   -1.187282   -3.912476
     18          6           0        1.884966   -2.446020   -4.435910
     19          6           0        1.211594   -3.406872   -3.663403
     20          6           0        0.806123   -3.136845   -2.356831
     21          6           0        1.090364   -1.870179   -1.839172
     22          7           0        0.813364   -1.326843   -0.579551
     23          7           0        0.105614   -1.884020    0.482490
     24          6           0        0.396451   -3.222406    0.941583
     25          6           0        1.695649   -3.741447    1.350652
     26          6           0        1.881099   -5.125664    1.510979
     27          6           0        3.110554   -5.628718    1.925632
     28          6           0        4.175909   -4.758696    2.175623
     29          6           0        4.002307   -3.383159    2.011503
     30          6           0        2.771040   -2.873427    1.602972
     31          6           0       -0.890174   -3.639139    0.915068
     32          6           0       -1.349259   -2.340953    0.276425
     33          6           0       -2.399462   -1.492095    0.942098
     34          6           0       -2.367174   -1.267753    2.325458
     35          6           0       -3.350938   -0.486703    2.926311
     36          6           0       -4.374605    0.073217    2.160370
     37          6           0       -4.430595   -0.137385    0.774232
     38          6           0       -5.516235    0.454873   -0.049170
     39          6           0       -6.833732    0.522891    0.434672
     40          6           0       -7.853036    1.078981   -0.336866
     41          6           0       -7.577694    1.578717   -1.611018
     42          6           0       -6.273563    1.517898   -2.105470
     43          6           0       -5.254405    0.962851   -1.332924
     44          6           0       -3.427170   -0.925660    0.185037
     45          1           0        4.849114    4.973128   -0.997621
     46          1           0        4.749007    3.570780   -2.076438
     47          1           0        4.967938    3.331967   -0.331957
     48          1           0        2.501609    4.432726   -2.984964
     49          1           0        2.604115    5.834037   -1.905116
     50          1           0        1.170370    4.788239   -1.866937
     51          1           0        3.267541    6.382386    0.615138
     52          1           0        2.454022    6.717573    2.936239
     53          1           0        1.269045    4.896922    4.127254
     54          1           0        0.879735    2.710711    3.014735
     55          1           0        0.710496    0.636661    1.450594
     56          1           0        2.934331    1.812643   -2.918464
     57          1           0        2.690830   -0.446231   -4.511831
     58          1           0        2.188409   -2.689706   -5.450131
     59          1           0        1.002721   -4.384740   -4.088857
     60          1           0        0.299747   -3.889644   -1.763359
     61          1           0        1.057862   -5.802005    1.296808
     62          1           0        3.242193   -6.700597    2.046241
     63          1           0        5.137482   -5.152840    2.493061
     64          1           0        4.827491   -2.703057    2.204051
     65          1           0        2.635580   -1.802759    1.488297
     66          1           0       -1.430809   -4.463577    1.359101
     67          1           0       -1.546741   -2.426214   -0.797537
     68          1           0       -1.570252   -1.705281    2.920330
     69          1           0       -3.319783   -0.305248    3.997510
     70          1           0       -5.122484    0.700709    2.636910
     71          1           0       -7.064109    0.112662    1.414098
     72          1           0       -8.866221    1.113666    0.055179
     73          1           0       -8.372015    2.011872   -2.212888
     74          1           0       -6.045617    1.912189   -3.092330
     75          1           0       -4.238020    0.946502   -1.716501
     76          1           0       -3.465272   -1.119539   -0.884223
 ---------------------------------------------------------------------

 The electronic state is 1-A.
 Alpha  occ. eigenvalues --  -14.39693 -14.38225 -10.23361 -10.23175 -10.22059
 Alpha  occ. eigenvalues --  -10.21763 -10.20652 -10.19988 -10.19970 -10.19811
 Alpha  occ. eigenvalues --  -10.19787 -10.19760 -10.19626 -10.19559 -10.19512
 Alpha  occ. eigenvalues --  -10.19412 -10.19134 -10.19073 -10.19028 -10.18952
 Alpha  occ. eigenvalues --  -10.18916 -10.18906 -10.18870 -10.18853 -10.18836
 Alpha  occ. eigenvalues --  -10.18788 -10.18585 -10.18570 -10.18558 -10.18515
 Alpha  occ. eigenvalues --  -10.18480 -10.18452 -10.18424 -10.18408 -10.18311
 Alpha  occ. eigenvalues --  -10.18273 -10.18242 -10.18218 -10.18181 -10.18128
 Alpha  occ. eigenvalues --  -10.17881 -10.17796 -10.17391 -10.17365  -1.03113
 Alpha  occ. eigenvalues --   -0.93329  -0.87771  -0.86677  -0.85991  -0.84642
 Alpha  occ. eigenvalues --   -0.84006  -0.83270  -0.80551  -0.78314  -0.77987
 Alpha  occ. eigenvalues --   -0.76819  -0.75929  -0.75042  -0.74879  -0.74234
 Alpha  occ. eigenvalues --   -0.74181  -0.73748  -0.72602  -0.71863  -0.69764
 Alpha  occ. eigenvalues --   -0.68638  -0.68062  -0.67452  -0.64160  -0.62617
 Alpha  occ. eigenvalues --   -0.62328  -0.61960  -0.61132  -0.60398  -0.60023
 Alpha  occ. eigenvalues --   -0.58828  -0.58523  -0.57643  -0.56736  -0.56384
 Alpha  occ. eigenvalues --   -0.54781  -0.54182  -0.53862  -0.52120  -0.51676
 Alpha  occ. eigenvalues --   -0.49754  -0.49522  -0.49074  -0.47909  -0.47830
 Alpha  occ. eigenvalues --   -0.47316  -0.46417  -0.46296  -0.45428  -0.45226
 Alpha  occ. eigenvalues --   -0.44754  -0.44582  -0.44089  -0.43666  -0.43205
 Alpha  occ. eigenvalues --   -0.43136  -0.42961  -0.42438  -0.42382  -0.42301
 Alpha  occ. eigenvalues --   -0.42166  -0.41922  -0.41648  -0.41203  -0.40795
 Alpha  occ. eigenvalues --   -0.40351  -0.40201  -0.39541  -0.38489  -0.38179
 Alpha  occ. eigenvalues --   -0.37819  -0.37635  -0.37082  -0.36442  -0.36346
 Alpha  occ. eigenvalues --   -0.36117  -0.35474  -0.35386  -0.34927  -0.34542
 Alpha  occ. eigenvalues --   -0.34501  -0.34108  -0.33877  -0.33701  -0.33531
 Alpha  occ. eigenvalues --   -0.33190  -0.33105  -0.31551  -0.31154  -0.31151
 Alpha  occ. eigenvalues --   -0.30842  -0.28373  -0.27233  -0.25755  -0.25491
 Alpha  occ. eigenvalues --   -0.25007  -0.24881  -0.24526  -0.24331  -0.23725
 Alpha  occ. eigenvalues --   -0.22518  -0.21587  -0.19598  -0.19224
 Alpha virt. eigenvalues --   -0.03909  -0.03619  -0.02810  -0.00832  -0.00439
 Alpha virt. eigenvalues --    0.00054   0.00189   0.01060   0.01597   0.02574
 Alpha virt. eigenvalues --    0.03409   0.05504   0.06621   0.08844   0.09194

 Mulliken charges:
               1
     1  C   -0.435709
     2  C   -0.060603
     3  C   -0.435942
     4  C    0.101808
     5  C   -0.203537
     6  C   -0.132517
     7  C   -0.136726
     8  C   -0.191196
     9  C    0.073822
    10  C    0.083925
    11  C   -0.261826
    12  C    0.344934
    13  C    0.072161
    14  C   -0.280826
    15  C    0.086654
    16  C    0.033894
    17  C   -0.198935
    18  C   -0.144481
    19  C   -0.144383
    20  C   -0.175483
    21  C    0.345299
    22  N   -0.564620
    23  N   -0.397123
    24  C    0.307414
    25  C    0.124330
    26  C   -0.167986
    27  C   -0.135730
    28  C   -0.122539
    29  C   -0.133815
    30  C   -0.174249
    31  C   -0.291830
    32  C   -0.077227
    33  C    0.219500
    34  C   -0.183129
    35  C   -0.135988
    36  C   -0.172542
    37  C    0.090436
    38  C    0.087839
    39  C   -0.174176
    40  C   -0.133635
    41  C   -0.126427
    42  C   -0.134307
    43  C   -0.172924
    44  C   -0.248876
    45  H    0.141046
    46  H    0.142019
    47  H    0.155352
    48  H    0.141715
    49  H    0.140984
    50  H    0.156882
    51  H    0.122221
    52  H    0.124371
    53  H    0.125095
    54  H    0.128881
    55  H    0.148346
    56  H    0.124727
    57  H    0.127848
    58  H    0.122815
    59  H    0.125496
    60  H    0.144405
    61  H    0.134972
    62  H    0.134276
    63  H    0.134447
    64  H    0.138339
    65  H    0.159381
    66  H    0.141715
    67  H    0.162833
    68  H    0.139374
    69  H    0.131822
    70  H    0.133971
    71  H    0.131432
    72  H    0.130208
    73  H    0.129752
    74  H    0.131864
    75  H    0.137170
    76  H    0.133509
 Sum of Mulliken charges =  -0.00000

 Dipole moment (field-independent basis, Debye):
    X=             -0.3411    Y=             -1.2057    Z=              0.5399  Tot=              1.3644
 Quadrupole moment (field-independent basis, Debye-Ang):
   XX=           -237.5116   YY=           -233.6928   ZZ=           -238.8661
   XY=             -1.2708   XZ=             -1.4902   YZ=             -5.1407

 Normal termination of Gaussian 16 at Sat Nov  5 02:02:48 2022.
