 Gaussian 16, Revision B.01,
 Gaussian 16:  ES64L-G16RevB.01 20-Dec-2017

 -------------------------------------------------------------------
 #p b3lyp/6-31g(d) 6D 10F nosymm GFInput td=(50-50,nstate=2) SCF=XQC
 -------------------------------------------------------------------

 ------------------------------
 Gaussian input prepared by ASE
 ------------------------------
 Symbolic Z-matrix:
 Charge =  0 Multiplicity = 1

                          Input orientation:
 ---------------------------------------------------------------------
 Center     Atomic      Atomic             Coordinates (Angstroms)
 Number     Number       Type             X           Y           Z
 ---------------------------------------------------------------------
      1          7           0        5.963322   -4.434262   -2.005589
      2          6           0        5.191449   -3.610210   -1.724951
      3          6           0        4.244881   -2.589616   -1.379963
      4          6           0        3.461576   -1.987987   -2.378248
      5          6           0        2.549509   -0.993918   -2.038528
      6          6           0        2.396871   -0.585126   -0.705429
      7          6           0        1.422984    0.494750   -0.347985
      8          6           0        0.134966    0.174415   -0.022248
      9          7           0       -0.254121   -1.213147   -0.032378
     10          6           0       -0.219390   -1.933439    1.190726
     11          6           0       -0.132530   -1.266434    2.424053
     12          6           0       -0.091651   -1.975623    3.624880
     13          6           0       -0.165614   -3.366309    3.628577
     14          6           0       -0.259970   -4.041516    2.411846
     15          6           0       -0.258445   -3.341768    1.203863
     16         16           0       -0.166744   -4.267461   -0.313086
     17          6           0       -0.973979   -3.122028   -1.409812
     18          6           0       -1.616340   -3.624975   -2.542635
     19          6           0       -2.122041   -2.765492   -3.517723
     20          6           0       -1.997297   -1.390403   -3.335894
     21          6           0       -1.394683   -0.878831   -2.186217
     22          6           0       -0.873773   -1.732479   -1.199570
     23          6           0       -0.838966    1.193377    0.330057
     24          6           0       -2.150502    0.852418    0.660475
     25          6           0       -3.107611    1.821673    1.003988
     26          6           0       -4.450832    1.483438    1.343313
     27          6           0       -5.356584    2.460481    1.673420
     28          6           0       -4.968431    3.829319    1.682206
     29          6           0       -3.683605    4.190334    1.360783
     30          6           0       -2.715095    3.203222    1.012648
     31          6           0       -1.390139    3.536740    0.677925
     32          6           0       -0.437605    2.578013    0.336551
     33          6           0        0.941727    2.920397   -0.012317
     34          6           0        1.408540    4.252237   -0.028164
     35          6           0        2.717145    4.560192   -0.360554
     36          6           0        3.616931    3.537048   -0.692907
     37          6           0        3.189450    2.221217   -0.686483
     38          6           0        1.858516    1.883424   -0.350496
     39          6           0        3.185337   -1.189550    0.284798
     40          6           0        4.100648   -2.184614   -0.043076
     41          1           0        3.570819   -2.304331   -3.410532
     42          1           0        1.940837   -0.535375   -2.811807
     43          1           0       -0.096438   -0.184499    2.447365
     44          1           0       -0.015496   -1.426358    4.559140
     45          1           0       -0.148208   -3.922712    4.560876
     46          1           0       -0.311422   -5.126607    2.388138
     47          1           0       -1.694827   -4.701763   -2.665113
     48          1           0       -2.602491   -3.169003   -4.403960
     49          1           0       -2.381097   -0.699889   -4.081695
     50          1           0       -1.329365    0.194126   -2.056119
     51          1           0       -2.443950   -0.192052    0.653023
     52          1           0       -4.742659    0.436227    1.335188
     53          1           0       -6.377740    2.192974    1.930513
     54          1           0       -5.698209    4.589866    1.945937
     55          1           0       -3.385130    5.236024    1.366960
     56          1           0       -1.124554    4.588576    0.693618
     57          1           0        0.735162    5.063506    0.224399
     58          1           0        3.042831    5.596703   -0.362588
     59          1           0        4.644418    3.773522   -0.954333
     60          1           0        3.884481    1.429685   -0.943303
     61          1           0        3.071641   -0.883303    1.320167
     62          1           0        4.703496   -2.652826    0.728267
 ---------------------------------------------------------------------

 SCF Done:  E(RB3LYP) =  -1930.90446135     A.U. after   16 cycles

 Excitation energies and oscillator strengths:

 Excited state symmetry could not be determined.
 Excited State   1:      Triplet-?Sym    2.0304 eV  610.64 nm  f=0.0000  <S**2>=2.000
     134 ->139         0.16207
     136 ->138         0.66985
     136 <-138         0.11076
 This state for optimization and/or second-order correction.
 Total Energy, E(TD-HF/TD-DFT) =  -1930.82984504
 Copying the excited state density for this state as the 1-particle RhoCI density.

 Excited state symmetry could not be determined.
 Excited State   2:      Triplet-?Sym    2.4116 eV  514.12 nm  f=0.0000  <S**2>=2.000
     137 ->138         0.69811

 Excited state symmetry could not be determined.
 Excited State   3:      Singlet-?Sym    2.4239 eV  511.50 nm  f=0.0000  <S**2>=0.000
     137 ->138         0.69992

 Excited state symmetry could not be determined.
 Excited State   4:      Singlet-?Sym    3.1032 eV  399.54 nm  f=0.0036  <S**2>=0.000
     137 ->140         0.70586

 Alpha  occ. eigenvalues --  -88.88855 -14.37850 -14.33024 -10.24289 -10.24279
 Alpha  occ. eigenvalues --  -10.24279 -10.23607 -10.22349 -10.22237 -10.22237
 Alpha  occ. eigenvalues --  -10.22141 -10.22014 -10.21637 -10.21596 -10.21535
 Alpha  occ. eigenvalues --  -10.21535 -10.21517 -10.21356 -10.20909 -10.20880
 Alpha  occ. eigenvalues --  -10.20879 -10.20803 -10.20341 -10.20290 -10.20261
 Alpha  occ. eigenvalues --  -10.20164 -10.20143 -10.20090 -10.20085 -10.20065
 Alpha  occ. eigenvalues --  -10.20047 -10.19963 -10.19557 -10.19556 -10.19263
 Alpha  occ. eigenvalues --  -10.19263 -10.19198 -10.19198 -10.18880 -10.18880
 Alpha  occ. eigenvalues --   -7.94927  -5.91436  -5.91071  -5.90416  -0.97836
 Alpha  occ. eigenvalues --   -0.90245  -0.89726  -0.88012  -0.87017  -0.86173
 Alpha  occ. eigenvalues --   -0.86072  -0.83667  -0.82046  -0.80119  -0.78982
 Alpha  occ. eigenvalues --   -0.78263  -0.76665  -0.76540  -0.76226  -0.75644
 Alpha  occ. eigenvalues --   -0.75014  -0.73699  -0.72604  -0.71591  -0.68353
 Alpha  occ. eigenvalues --   -0.66810  -0.64910  -0.63981  -0.63063  -0.62738
 Alpha  occ. eigenvalues --   -0.62339  -0.60802  -0.60249  -0.60232  -0.59506
 Alpha  occ. eigenvalues --   -0.56454  -0.56064  -0.55664  -0.54373  -0.53949
 Alpha  occ. eigenvalues --   -0.53097  -0.51982  -0.50156  -0.48992  -0.48182
 Alpha  occ. eigenvalues --   -0.47959  -0.47934  -0.47018  -0.46771  -0.46272
 Alpha  occ. eigenvalues --   -0.45938  -0.45652  -0.44709  -0.44297  -0.44063
 Alpha  occ. eigenvalues --   -0.43895  -0.43794  -0.43182  -0.42765  -0.42565
 Alpha  occ. eigenvalues --   -0.42108  -0.41883  -0.41089  -0.40833  -0.39611
 Alpha  occ. eigenvalues --   -0.39043  -0.38779  -0.38725  -0.38158  -0.37258
 Alpha  occ. eigenvalues --   -0.37223  -0.36998  -0.36591  -0.36170  -0.35727
 Alpha  occ. eigenvalues --   -0.35281  -0.34834  -0.34446  -0.34133  -0.33721
 Alpha  occ. eigenvalues --   -0.33582  -0.32717  -0.32469  -0.31872  -0.31530
 Alpha  occ. eigenvalues --   -0.29876  -0.29756  -0.27704  -0.27217  -0.25925
 Alpha  occ. eigenvalues --   -0.25846  -0.25749  -0.25523  -0.23188  -0.22507
 Alpha  occ. eigenvalues --   -0.20897  -0.18343
 Alpha virt. eigenvalues --   -0.07269  -0.04847  -0.04765  -0.02610  -0.01597
 Alpha virt. eigenvalues --   -0.01464  -0.00711  -0.00265   0.00404   0.01989
 Alpha virt. eigenvalues --    0.02898   0.03853   0.04090   0.04885   0.07437

 Mulliken charges:
               1
     1  N   -0.480148
     2  C    0.237040
     3  C    0.138746
     4  C   -0.138855
     5  C   -0.147770
     6  C    0.054751
     7  C   -0.005230
     8  C    0.106528
     9  N   -0.709098
    10  C    0.325909
    11  C   -0.170101
    12  C   -0.147439
    13  C   -0.117922
    14  C   -0.180819
    15  C   -0.131350
    16  S    0.175968
    17  C   -0.131357
    18  C   -0.180815
    19  C   -0.117922
    20  C   -0.147431
    21  C   -0.170103
    22  C    0.325926
    23  C    0.153175
    24  C   -0.320665
    25  C    0.154352
    26  C   -0.184845
    27  C   -0.139977
    28  C   -0.136147
    29  C   -0.191676
    30  C    0.158956
    31  C   -0.309994
    32  C    0.074528
    33  C    0.078456
    34  C   -0.197812
    35  C   -0.132473
    36  C   -0.126162
    37  C   -0.216002
    38  C    0.088532
    39  C   -0.147773
    40  C   -0.138860
    41  H    0.160607
    42  H    0.154372
    43  H    0.147718
    44  H    0.132776
    45  H    0.131029
    46  H    0.144692
    47  H    0.144691
    48  H    0.131027
    49  H    0.132774
    50  H    0.147717
    51  H    0.157647
    52  H    0.140200
    53  H    0.136129
    54  H    0.135025
    55  H    0.132433
    56  H    0.138884
    57  H    0.138643
    58  H    0.135943
    59  H    0.137644
    60  H    0.150944
    61  H    0.154377
    62  H    0.160608
 Sum of Mulliken charges =  -0.00000

 Dipole moment (field-independent basis, Debye):
    X=             -3.7509    Y=              5.8933    Z=              1.5225  Tot=              7.1497
 Quadrupole moment (field-independent basis, Debye-Ang):
   XX=           -246.4084   YY=           -235.8320   ZZ=           -223.8827
   XY=             23.6470   XZ=              9.0082   YZ=             -7.7428

 Normal termination of Gaussian 16 at Sat Nov  5 10:40:01 2022.
