 Gaussian 16, Revision B.01,
 Gaussian 16:  ES64L-G16RevB.01 20-Dec-2017

 -----------------------------
 #p b3lyp/6-31g(d) opt SCF=XQC
 -----------------------------

 ------------------------------
 Gaussian input prepared by ASE
 ------------------------------
 Symbolic Z-matrix:
 Charge =  0 Multiplicity = 1

 SCF Done:  E(RB3LYP) =  -1930.88956641     A.U. after   17 cycles
 SCF Done:  E(RB3LYP) =  -1930.89945293     A.U. after   15 cycles
 SCF Done:  E(RB3LYP) =  -1930.90193530     A.U. after   13 cycles
 SCF Done:  E(RB3LYP) =  -1930.90320435     A.U. after   13 cycles
 SCF Done:  E(RB3LYP) =  -1930.90387787     A.U. after   13 cycles
 SCF Done:  E(RB3LYP) =  -1930.90406462     A.U. after   13 cycles
 SCF Done:  E(RB3LYP) =  -1930.90441462     A.U. after   13 cycles
 SCF Done:  E(RB3LYP) =  -1930.90444507     A.U. after   11 cycles
 SCF Done:  E(RB3LYP) =  -1930.90445229     A.U. after   10 cycles
 SCF Done:  E(RB3LYP) =  -1930.90445361     A.U. after   10 cycles
 SCF Done:  E(RB3LYP) =  -1930.90445415     A.U. after    8 cycles
 SCF Done:  E(RB3LYP) =  -1930.90445412     A.U. after    7 cycles
 Optimization completed.
    -- Stationary point found.

                         Standard orientation:
 ---------------------------------------------------------------------
 Center     Atomic      Atomic             Coordinates (Angstroms)
 Number     Number       Type             X           Y           Z
 ---------------------------------------------------------------------
      1          7           0       -7.231157    1.557905    0.000015
      2          6           0       -6.067851    1.539829   -0.000006
      3          6           0       -4.633841    1.524474   -0.000023
      4          6           0       -3.928814    1.519415    1.214476
      5          6           0       -2.537649    1.510989    1.208299
      6          6           0       -1.825347    1.502612   -0.000054
      7          6           0       -0.327904    1.507059   -0.000063
      8          6           0        0.360032    0.326190   -0.000046
      9          7           0       -0.386311   -0.906608   -0.000009
     10          6           0       -0.634485   -1.546103   -1.243176
     11          6           0        0.083374   -1.192445   -2.397794
     12          6           0       -0.166154   -1.816866   -3.620267
     13          6           0       -1.117050   -2.829776   -3.716725
     14          6           0       -1.831947   -3.196687   -2.576753
     15          6           0       -1.618587   -2.547673   -1.359325
     16         16           0       -2.706790   -2.914254    0.000044
     17          6           0       -1.618638   -2.547543    1.359419
     18          6           0       -1.832040   -3.196445    2.576900
     19          6           0       -1.117175   -2.829431    3.716860
     20          6           0       -0.166269   -1.816538    3.620337
     21          6           0        0.083299   -1.192230    2.397814
     22          6           0       -0.634530   -1.545987    1.243210
     23          6           0        1.812473    0.289264   -0.000025
     24          6           0        2.502044   -0.923190    0.000016
     25          6           0        3.905661   -0.981268    0.000044
     26          6           0        4.619994   -2.215576    0.000084
     27          6           0        5.992496   -2.229952    0.000110
     28          6           0        6.725663   -1.010557    0.000098
     29          6           0        6.070093    0.195532    0.000061
     30          6           0        4.645091    0.250017    0.000032
     31          6           0        3.940385    1.467461   -0.000004
     32          6           0        2.547835    1.529262   -0.000034
     33          6           0        1.810642    2.793398   -0.000070
     34          6           0        2.459990    4.046518   -0.000096
     35          6           0        1.748127    5.234381   -0.000137
     36          6           0        0.345828    5.213005   -0.000158
     37          6           0       -0.319923    4.000171   -0.000133
     38          6           0        0.385912    2.775357   -0.000083
     39          6           0       -2.537678    1.510511   -1.208391
     40          6           0       -3.928844    1.518936   -1.214536
     41          1           0       -4.474397    1.519680    2.152537
     42          1           0       -1.995659    1.500542    2.148960
     43          1           0        0.843416   -0.423235   -2.342279
     44          1           0        0.402516   -1.511237   -4.494073
     45          1           0       -1.305599   -3.328753   -4.662526
     46          1           0       -2.584331   -3.978937   -2.628097
     47          1           0       -2.584429   -3.978687    2.628293
     48          1           0       -1.305756   -3.328320    4.662701
     49          1           0        0.402377   -1.510833    4.494133
     50          1           0        0.843348   -0.423031    2.342251
     51          1           0        1.940654   -1.851592    0.000027
     52          1           0        4.055415   -3.144624    0.000092
     53          1           0        6.527887   -3.175348    0.000140
     54          1           0        7.811795   -1.040243    0.000119
     55          1           0        6.628774    1.128520    0.000052
     56          1           0        4.527220    2.380020   -0.000008
     57          1           0        3.543124    4.093444   -0.000086
     58          1           0        2.280490    6.181492   -0.000156
     59          1           0       -0.217044    6.142073   -0.000197
     60          1           0       -1.404011    3.982836   -0.000155
     61          1           0       -1.995713    1.499690   -2.149061
     62          1           0       -4.474449    1.518835   -2.152584
 ---------------------------------------------------------------------

 The electronic state is 1-A.
 Alpha  occ. eigenvalues --  -88.88855 -14.37850 -14.33024 -10.24289 -10.24279
 Alpha  occ. eigenvalues --  -10.24279 -10.23607 -10.22349 -10.22237 -10.22237
 Alpha  occ. eigenvalues --  -10.22141 -10.22014 -10.21637 -10.21596 -10.21535
 Alpha  occ. eigenvalues --  -10.21534 -10.21517 -10.21356 -10.20909 -10.20880
 Alpha  occ. eigenvalues --  -10.20879 -10.20803 -10.20341 -10.20290 -10.20261
 Alpha  occ. eigenvalues --  -10.20164 -10.20143 -10.20090 -10.20085 -10.20065
 Alpha  occ. eigenvalues --  -10.20047 -10.19963 -10.19557 -10.19556 -10.19263
 Alpha  occ. eigenvalues --  -10.19263 -10.19198 -10.19198 -10.18880 -10.18880
 Alpha  occ. eigenvalues --   -7.94927  -5.91435  -5.91070  -5.90416  -0.97836
 Alpha  occ. eigenvalues --   -0.90245  -0.89726  -0.88012  -0.87017  -0.86173
 Alpha  occ. eigenvalues --   -0.86072  -0.83667  -0.82046  -0.80119  -0.78982
 Alpha  occ. eigenvalues --   -0.78263  -0.76665  -0.76540  -0.76226  -0.75644
 Alpha  occ. eigenvalues --   -0.75014  -0.73699  -0.72604  -0.71591  -0.68352
 Alpha  occ. eigenvalues --   -0.66810  -0.64910  -0.63982  -0.63063  -0.62738
 Alpha  occ. eigenvalues --   -0.62339  -0.60802  -0.60249  -0.60232  -0.59506
 Alpha  occ. eigenvalues --   -0.56454  -0.56064  -0.55664  -0.54373  -0.53949
 Alpha  occ. eigenvalues --   -0.53097  -0.51982  -0.50156  -0.48992  -0.48182
 Alpha  occ. eigenvalues --   -0.47959  -0.47934  -0.47018  -0.46771  -0.46272
 Alpha  occ. eigenvalues --   -0.45938  -0.45652  -0.44709  -0.44297  -0.44063
 Alpha  occ. eigenvalues --   -0.43895  -0.43794  -0.43182  -0.42765  -0.42565
 Alpha  occ. eigenvalues --   -0.42108  -0.41883  -0.41089  -0.40832  -0.39611
 Alpha  occ. eigenvalues --   -0.39043  -0.38779  -0.38725  -0.38158  -0.37258
 Alpha  occ. eigenvalues --   -0.37223  -0.36998  -0.36591  -0.36170  -0.35727
 Alpha  occ. eigenvalues --   -0.35281  -0.34834  -0.34446  -0.34133  -0.33721
 Alpha  occ. eigenvalues --   -0.33582  -0.32717  -0.32469  -0.31872  -0.31530
 Alpha  occ. eigenvalues --   -0.29876  -0.29756  -0.27704  -0.27217  -0.25925
 Alpha  occ. eigenvalues --   -0.25846  -0.25749  -0.25523  -0.23188  -0.22507
 Alpha  occ. eigenvalues --   -0.20897  -0.18342
 Alpha virt. eigenvalues --   -0.07269  -0.04847  -0.04765  -0.02610  -0.01597
 Alpha virt. eigenvalues --   -0.01464  -0.00711  -0.00265   0.00404   0.01989
 Alpha virt. eigenvalues --    0.02898   0.03854   0.04090   0.04885   0.07437

 Mulliken charges:
               1
     1  N   -0.480150
     2  C    0.237043
     3  C    0.138757
     4  C   -0.138867
     5  C   -0.147751
     6  C    0.054719
     7  C   -0.005238
     8  C    0.106540
     9  N   -0.709105
    10  C    0.325920
    11  C   -0.170106
    12  C   -0.147435
    13  C   -0.117921
    14  C   -0.180819
    15  C   -0.131368
    16  S    0.176000
    17  C   -0.131365
    18  C   -0.180818
    19  C   -0.117921
    20  C   -0.147435
    21  C   -0.170101
    22  C    0.325915
    23  C    0.153182
    24  C   -0.320669
    25  C    0.154353
    26  C   -0.184839
    27  C   -0.139976
    28  C   -0.136151
    29  C   -0.191673
    30  C    0.158950
    31  C   -0.309995
    32  C    0.074534
    33  C    0.078471
    34  C   -0.197815
    35  C   -0.132475
    36  C   -0.126160
    37  C   -0.215997
    38  C    0.088507
    39  C   -0.147752
    40  C   -0.138867
    41  H    0.160607
    42  H    0.154372
    43  H    0.147718
    44  H    0.132775
    45  H    0.131028
    46  H    0.144691
    47  H    0.144691
    48  H    0.131027
    49  H    0.132774
    50  H    0.147717
    51  H    0.157648
    52  H    0.140200
    53  H    0.136130
    54  H    0.135025
    55  H    0.132433
    56  H    0.138885
    57  H    0.138644
    58  H    0.135944
    59  H    0.137644
    60  H    0.150943
    61  H    0.154377
    62  H    0.160608
 Sum of Mulliken charges =  -0.00000

 Dipole moment (field-independent basis, Debye):
    X=              7.0493    Y=              1.1942    Z=             -0.0000  Tot=              7.1497
 Quadrupole moment (field-independent basis, Debye-Ang):
   XX=           -262.6904   YY=           -217.7873   ZZ=           -220.7655
   XY=              8.9093   XZ=              0.0003   YZ=              0.0014

 Normal termination of Gaussian 16 at Sat Nov  5 01:15:14 2022.
