 Gaussian 16, Revision B.01,
 Gaussian 16:  ES64L-G16RevB.01 20-Dec-2017

 -------------------------------------------------------------------
 #p b3lyp/6-31g(d) 6D 10F nosymm GFInput td=(50-50,nstate=2) SCF=XQC
 -------------------------------------------------------------------

 ------------------------------
 Gaussian input prepared by ASE
 ------------------------------
 Symbolic Z-matrix:
 Charge =  0 Multiplicity = 1

                          Input orientation:
 ---------------------------------------------------------------------
 Center     Atomic      Atomic             Coordinates (Angstroms)
 Number     Number       Type             X           Y           Z
 ---------------------------------------------------------------------
      1          6           0       -5.802406    0.538857   -1.040115
      2          6           0       -4.521849    1.394424   -0.912731
      3          6           0       -4.814238    2.653061   -0.065140
      4          6           0       -3.965453    1.768275   -2.286218
      5          6           0       -4.564791    2.513691   -3.295419
      6          6           0       -3.865152    2.738541   -4.487143
      7          6           0       -2.577564    2.220499   -4.662566
      8          6           0       -1.970032    1.470852   -3.653169
      9          6           0       -2.668627    1.246142   -2.464412
     10          6           0       -2.287512    0.507765   -1.255242
     11          6           0       -1.110386   -0.179146   -0.961709
     12          6           0       -1.045199   -0.790039    0.290705
     13          6           0       -2.103273   -0.723098    1.234540
     14          6           0       -3.277870   -0.024782    0.911874
     15          6           0       -3.362509    0.583892   -0.330554
     16          6           0       -1.667424   -1.458176    2.404409
     17          6           0       -2.258916   -1.736724    3.642134
     18          6           0       -1.553691   -2.486283    4.579873
     19          6           0       -0.264378   -2.963294    4.290795
     20          6           0        0.349746   -2.705384    3.065730
     21          6           0       -0.362473   -1.949373    2.130637
     22          7           0       -0.007783   -1.544328    0.838847
     23          7           0        1.194190   -1.725020    0.159214
     24          6           0        1.820704   -3.025306    0.101169
     25          6           0        1.211620   -4.267575   -0.357567
     26          6           0        1.844575   -5.496803   -0.103560
     27          6           0        1.283634   -6.685916   -0.559535
     28          6           0        0.077389   -6.666624   -1.265945
     29          6           0       -0.561577   -5.450718   -1.515890
     30          6           0       -0.000659   -4.256165   -1.067383
     31          6           0        3.037921   -2.588316    0.497646
     32          6           0        2.504096   -1.193147    0.766802
     33          6           0        3.105601    0.001155    0.075108
     34          6           0        3.426415   -0.048120   -1.288603
     35          6           0        3.989642    1.062873   -1.910955
     36          6           0        4.241891    2.227713   -1.184600
     37          6           0        3.931523    2.302328    0.181771
     38          6           0        4.196143    3.538117    0.962908
     39          6           0        5.354829    4.300352    0.737138
     40          6           0        5.603789    5.460414    1.469096
     41          6           0        4.699570    5.883836    2.444858
     42          6           0        3.544030    5.136814    2.680713
     43          6           0        3.294977    3.977512    1.947516
     44          6           0        3.360581    1.172212    0.791896
     45          1           0       -6.607089    1.110625   -1.517435
     46          1           0       -6.156139    0.222329   -0.051822
     47          1           0       -5.618121   -0.358255   -1.639787
     48          1           0       -5.151049    2.372994    0.939944
     49          1           0       -5.602989    3.258892   -0.526748
     50          1           0       -3.919574    3.275656    0.035931
     51          1           0       -5.565268    2.921181   -3.168155
     52          1           0       -4.325627    3.320266   -5.281374
     53          1           0       -2.045245    2.403436   -5.592390
     54          1           0       -0.968732    1.071435   -3.793593
     55          1           0       -0.274665   -0.234498   -1.651241
     56          1           0       -4.096380    0.033415    1.625915
     57          1           0       -3.257187   -1.370343    3.867755
     58          1           0       -2.003711   -2.706748    5.543711
     59          1           0        0.268530   -3.549321    5.034734
     60          1           0        1.339341   -3.089905    2.846235
     61          1           0        2.771766   -5.511760    0.463114
     62          1           0        1.781956   -7.630152   -0.357316
     63          1           0       -0.363267   -7.596167   -1.615960
     64          1           0       -1.499506   -5.430694   -2.064005
     65          1           0       -0.493366   -3.311512   -1.274027
     66          1           0        4.041779   -2.986778    0.446198
     67          1           0        2.343575   -0.982336    1.829560
     68          1           0        3.230421   -0.956024   -1.852239
     69          1           0        4.229193    1.027190   -2.970534
     70          1           0        4.659039    3.096030   -1.686769
     71          1           0        6.078218    3.965332   -0.001177
     72          1           0        6.510758    6.029651    1.282480
     73          1           0        4.893469    6.787788    3.015900
     74          1           0        2.828398    5.461780    3.431436
     75          1           0        2.378742    3.419616    2.119858
     76          1           0        3.133625    1.201893    1.854895
 ---------------------------------------------------------------------

 SCF Done:  E(RB3LYP) =  -1729.22423013     A.U. after   16 cycles

 Excitation energies and oscillator strengths:

 Excited state symmetry could not be determined.
 Excited State   1:      Triplet-?Sym    2.7406 eV  452.40 nm  f=0.0000  <S**2>=2.000
     144 ->157        -0.12285
     148 ->151         0.28776
     149 ->150         0.10047
     149 ->151         0.57376
 This state for optimization and/or second-order correction.
 Total Energy, E(TD-HF/TD-DFT) =  -1729.12351554
 Copying the excited state density for this state as the 1-particle RhoCI density.

 Excited state symmetry could not be determined.
 Excited State   2:      Triplet-?Sym    2.7748 eV  446.83 nm  f=0.0000  <S**2>=2.000
     140 ->154        -0.11874
     146 ->150        -0.25922
     147 ->150         0.59704
     147 ->151        -0.10291
     147 ->161        -0.11538

 Excited state symmetry could not be determined.
 Excited State   3:      Singlet-?Sym    3.6117 eV  343.28 nm  f=0.0022  <S**2>=0.000
     148 ->150        -0.49043
     149 ->150         0.50416

 Excited state symmetry could not be determined.
 Excited State   4:      Singlet-?Sym    3.7200 eV  333.29 nm  f=0.0213  <S**2>=0.000
     148 ->150         0.42198
     148 ->151        -0.31381
     149 ->150         0.42562
     149 ->151         0.17904

 Alpha  occ. eigenvalues --  -14.39693 -14.38225 -10.23361 -10.23175 -10.22059
 Alpha  occ. eigenvalues --  -10.21763 -10.20652 -10.19988 -10.19970 -10.19811
 Alpha  occ. eigenvalues --  -10.19787 -10.19760 -10.19626 -10.19559 -10.19512
 Alpha  occ. eigenvalues --  -10.19412 -10.19134 -10.19073 -10.19028 -10.18952
 Alpha  occ. eigenvalues --  -10.18916 -10.18906 -10.18870 -10.18853 -10.18836
 Alpha  occ. eigenvalues --  -10.18787 -10.18585 -10.18570 -10.18558 -10.18515
 Alpha  occ. eigenvalues --  -10.18480 -10.18452 -10.18424 -10.18408 -10.18311
 Alpha  occ. eigenvalues --  -10.18273 -10.18242 -10.18218 -10.18181 -10.18128
 Alpha  occ. eigenvalues --  -10.17881 -10.17796 -10.17391 -10.17365  -1.03113
 Alpha  occ. eigenvalues --   -0.93329  -0.87771  -0.86677  -0.85991  -0.84642
 Alpha  occ. eigenvalues --   -0.84006  -0.83270  -0.80551  -0.78314  -0.77987
 Alpha  occ. eigenvalues --   -0.76819  -0.75929  -0.75042  -0.74879  -0.74234
 Alpha  occ. eigenvalues --   -0.74181  -0.73748  -0.72602  -0.71863  -0.69764
 Alpha  occ. eigenvalues --   -0.68638  -0.68062  -0.67452  -0.64160  -0.62617
 Alpha  occ. eigenvalues --   -0.62328  -0.61960  -0.61132  -0.60398  -0.60023
 Alpha  occ. eigenvalues --   -0.58828  -0.58523  -0.57643  -0.56736  -0.56384
 Alpha  occ. eigenvalues --   -0.54781  -0.54182  -0.53862  -0.52120  -0.51676
 Alpha  occ. eigenvalues --   -0.49754  -0.49522  -0.49074  -0.47909  -0.47830
 Alpha  occ. eigenvalues --   -0.47316  -0.46417  -0.46296  -0.45428  -0.45226
 Alpha  occ. eigenvalues --   -0.44754  -0.44582  -0.44089  -0.43666  -0.43205
 Alpha  occ. eigenvalues --   -0.43136  -0.42961  -0.42438  -0.42382  -0.42301
 Alpha  occ. eigenvalues --   -0.42166  -0.41922  -0.41648  -0.41203  -0.40795
 Alpha  occ. eigenvalues --   -0.40351  -0.40202  -0.39541  -0.38489  -0.38179
 Alpha  occ. eigenvalues --   -0.37819  -0.37635  -0.37082  -0.36442  -0.36346
 Alpha  occ. eigenvalues --   -0.36117  -0.35474  -0.35386  -0.34927  -0.34542
 Alpha  occ. eigenvalues --   -0.34501  -0.34108  -0.33877  -0.33701  -0.33531
 Alpha  occ. eigenvalues --   -0.33190  -0.33105  -0.31551  -0.31154  -0.31151
 Alpha  occ. eigenvalues --   -0.30842  -0.28373  -0.27233  -0.25755  -0.25491
 Alpha  occ. eigenvalues --   -0.25007  -0.24881  -0.24526  -0.24331  -0.23726
 Alpha  occ. eigenvalues --   -0.22518  -0.21587  -0.19598  -0.19224
 Alpha virt. eigenvalues --   -0.03909  -0.03619  -0.02810  -0.00832  -0.00439
 Alpha virt. eigenvalues --    0.00054   0.00189   0.01060   0.01597   0.02574
 Alpha virt. eigenvalues --    0.03409   0.05504   0.06621   0.08844   0.09194

 Mulliken charges:
               1
     1  C   -0.435716
     2  C   -0.060563
     3  C   -0.435963
     4  C    0.101773
     5  C   -0.203528
     6  C   -0.132505
     7  C   -0.136733
     8  C   -0.191226
     9  C    0.073876
    10  C    0.083919
    11  C   -0.261806
    12  C    0.344894
    13  C    0.072180
    14  C   -0.280837
    15  C    0.086645
    16  C    0.033868
    17  C   -0.198926
    18  C   -0.144473
    19  C   -0.144396
    20  C   -0.175491
    21  C    0.345334
    22  N   -0.564609
    23  N   -0.397126
    24  C    0.307414
    25  C    0.124332
    26  C   -0.167990
    27  C   -0.135724
    28  C   -0.122542
    29  C   -0.133821
    30  C   -0.174242
    31  C   -0.291833
    32  C   -0.077231
    33  C    0.219485
    34  C   -0.183115
    35  C   -0.135983
    36  C   -0.172543
    37  C    0.090417
    38  C    0.087853
    39  C   -0.174191
    40  C   -0.133629
    41  C   -0.126432
    42  C   -0.134299
    43  C   -0.172927
    44  C   -0.248860
    45  H    0.141044
    46  H    0.142018
    47  H    0.155351
    48  H    0.141716
    49  H    0.140985
    50  H    0.156884
    51  H    0.122221
    52  H    0.124369
    53  H    0.125096
    54  H    0.128884
    55  H    0.148340
    56  H    0.124729
    57  H    0.127849
    58  H    0.122815
    59  H    0.125499
    60  H    0.144407
    61  H    0.134972
    62  H    0.134276
    63  H    0.134447
    64  H    0.138340
    65  H    0.159378
    66  H    0.141716
    67  H    0.162836
    68  H    0.139373
    69  H    0.131821
    70  H    0.133972
    71  H    0.131433
    72  H    0.130207
    73  H    0.129751
    74  H    0.131863
    75  H    0.137169
    76  H    0.133511
 Sum of Mulliken charges =  -0.00000

 Dipole moment (field-independent basis, Debye):
    X=              1.0792    Y=             -0.8328    Z=             -0.0573  Tot=              1.3644
 Quadrupole moment (field-independent basis, Debye-Ang):
   XX=           -234.7955   YY=           -232.8382   ZZ=           -241.9967
   XY=             -2.9809   XZ=             -2.3086   YZ=              1.4597

 Normal termination of Gaussian 16 at Sat Nov  5 10:39:41 2022.
