 Gaussian 16, Revision B.01,
 Gaussian 16:  ES64L-G16RevB.01 20-Dec-2017

 -------------------------------------------------------------------
 #p b3lyp/6-31g(d) 6D 10F nosymm GFInput td=(50-50,nstate=2) SCF=XQC
 -------------------------------------------------------------------

 ------------------------------
 Gaussian input prepared by ASE
 ------------------------------
 Symbolic Z-matrix:
 Charge =  0 Multiplicity = 1

                          Input orientation:
 ---------------------------------------------------------------------
 Center     Atomic      Atomic             Coordinates (Angstroms)
 Number     Number       Type             X           Y           Z
 ---------------------------------------------------------------------
      1          6           0        7.309481    2.099330    1.987905
      2          6           0        8.136683    1.328920    1.149115
      3          6           0        7.587270    0.394530    0.289608
      4          6           0        6.189941    0.182607    0.226108
      5          6           0        5.358731    0.967436    1.075153
      6          6           0        5.941694    1.918141    1.946138
      7          6           0        3.938602    0.802060    1.024155
      8          6           0        3.325780   -0.090401    0.187915
      9          6           0        1.836812   -0.154251    0.176236
     10          6           0        1.095776    0.058030   -0.998381
     11          6           0       -0.296175    0.047018   -0.982619
     12          6           0       -1.010092   -0.166291    0.211001
     13          6           0       -2.481119   -0.173970    0.232718
     14          6           0       -3.336335   -1.110301    0.901099
     15          6           0       -3.061208   -2.260582    1.667443
     16          6           0       -4.110650   -2.969671    2.224517
     17          6           0       -5.442678   -2.544798    2.039584
     18          6           0       -5.749337   -1.431634    1.269936
     19          6           0       -4.691600   -0.723287    0.673827
     20          7           0       -4.671180    0.406675   -0.140766
     21          6           0       -3.323744    0.746858   -0.377790
     22          6           0       -3.057458    1.974743   -1.059560
     23          7           0       -3.972795    2.768531   -1.526503
     24          6           0       -5.297163    2.362380   -1.399152
     25          6           0       -6.283574    3.175740   -1.981810
     26          6           0       -7.624027    2.820851   -1.943268
     27          6           0       -7.996602    1.620900   -1.327667
     28          6           0       -7.044747    0.798394   -0.732170
     29          6           0       -5.691646    1.166916   -0.734046
     30          6           0       -0.267025   -0.376390    1.386216
     31          6           0        1.125211   -0.371693    1.366900
     32          6           0        4.141513   -0.941151   -0.662340
     33          6           0        3.562935   -1.942516   -1.480137
     34          6           0        4.337569   -2.752925   -2.287364
     35          6           0        5.733291   -2.593428   -2.301720
     36          6           0        6.326927   -1.640450   -1.495819
     37          6           0        5.565033   -0.798006   -0.652343
     38          1           0        7.745940    2.832076    2.661043
     39          1           0        9.214106    1.467927    1.174552
     40          1           0        8.253772   -0.180641   -0.343658
     41          1           0        5.288290    2.508334    2.584458
     42          1           0        3.329358    1.443506    1.656364
     43          1           0        1.617615    0.239135   -1.933864
     44          1           0       -0.842006    0.187079   -1.911412
     45          1           0       -2.034382   -2.580188    1.815117
     46          1           0       -3.909759   -3.856645    2.818687
     47          1           0       -6.250786   -3.096815    2.511054
     48          1           0       -6.779913   -1.118546    1.179186
     49          1           0       -2.018106    2.277665   -1.172547
     50          1           0       -5.946181    4.083679   -2.471534
     51          1           0       -8.374149    3.459478   -2.400003
     52          1           0       -9.038489    1.313471   -1.316327
     53          1           0       -7.358203   -0.143296   -0.306950
     54          1           0       -0.788701   -0.524472    2.327205
     55          1           0        1.675718   -0.541251    2.288299
     56          1           0        2.487794   -2.079907   -1.459548
     57          1           0        3.867399   -3.514731   -2.903230
     58          1           0        6.349281   -3.224852   -2.936288
     59          1           0        7.407305   -1.549324   -1.511587
 ---------------------------------------------------------------------

 SCF Done:  E(RB3LYP) =  -1456.53288388     A.U. after   15 cycles

 Excitation energies and oscillator strengths:

 Excited state symmetry could not be determined.
 Excited State   1:      Triplet-?Sym    2.0172 eV  614.62 nm  f=0.0000  <S**2>=2.000
     122 ->124        -0.14046
     123 ->124         0.66918
 This state for optimization and/or second-order correction.
 Total Energy, E(TD-HF/TD-DFT) =  -1456.45875144
 Copying the excited state density for this state as the 1-particle RhoCI density.

 Excited state symmetry could not be determined.
 Excited State   2:      Triplet-?Sym    2.6446 eV  468.82 nm  f=0.0000  <S**2>=2.000
     121 ->126         0.26880
     122 ->124        -0.15555
     122 ->125         0.52767
     123 ->125         0.27929

 Excited state symmetry could not be determined.
 Excited State   3:      Singlet-?Sym    2.9956 eV  413.89 nm  f=0.3534  <S**2>=0.000
     123 ->124         0.69495

 Excited state symmetry could not be determined.
 Excited State   4:      Singlet-?Sym    3.5871 eV  345.64 nm  f=0.0075  <S**2>=0.000
     122 ->124         0.69333

 Alpha  occ. eigenvalues --  -14.40957 -14.33412 -10.24910 -10.23560 -10.23415
 Alpha  occ. eigenvalues --  -10.23372 -10.22730 -10.20596 -10.20161 -10.20151
 Alpha  occ. eigenvalues --  -10.20117 -10.20104 -10.20083 -10.20045 -10.20028
 Alpha  occ. eigenvalues --  -10.19983 -10.19848 -10.19768 -10.19685 -10.19482
 Alpha  occ. eigenvalues --  -10.19467 -10.19410 -10.19369 -10.19353 -10.19294
 Alpha  occ. eigenvalues --  -10.19285 -10.19237 -10.19100 -10.19078 -10.19030
 Alpha  occ. eigenvalues --  -10.18997 -10.18996 -10.18963 -10.18919 -10.18912
 Alpha  occ. eigenvalues --  -10.18876 -10.18677  -1.01418  -0.93445  -0.88240
 Alpha  occ. eigenvalues --   -0.87025  -0.85887  -0.84826  -0.84480  -0.82049
 Alpha  occ. eigenvalues --   -0.80469  -0.77706  -0.76690  -0.75995  -0.75723
 Alpha  occ. eigenvalues --   -0.74952  -0.74583  -0.74115  -0.72287  -0.72084
 Alpha  occ. eigenvalues --   -0.70435  -0.66692  -0.64515  -0.63669  -0.62918
 Alpha  occ. eigenvalues --   -0.61993  -0.61669  -0.60598  -0.59963  -0.59094
 Alpha  occ. eigenvalues --   -0.57910  -0.57178  -0.54927  -0.54790  -0.53249
 Alpha  occ. eigenvalues --   -0.52808  -0.51368  -0.50772  -0.49758  -0.48720
 Alpha  occ. eigenvalues --   -0.48031  -0.47599  -0.46973  -0.46371  -0.45877
 Alpha  occ. eigenvalues --   -0.45471  -0.45087  -0.44683  -0.43906  -0.43384
 Alpha  occ. eigenvalues --   -0.43207  -0.43019  -0.42421  -0.42201  -0.42051
 Alpha  occ. eigenvalues --   -0.41883  -0.41775  -0.40779  -0.39690  -0.39484
 Alpha  occ. eigenvalues --   -0.39121  -0.37551  -0.37516  -0.36891  -0.36559
 Alpha  occ. eigenvalues --   -0.36163  -0.35943  -0.35684  -0.35463  -0.35144
 Alpha  occ. eigenvalues --   -0.34623  -0.34318  -0.33937  -0.32973  -0.31994
 Alpha  occ. eigenvalues --   -0.31227  -0.30042  -0.28173  -0.26495  -0.26226
 Alpha  occ. eigenvalues --   -0.26134  -0.25618  -0.25433  -0.24981  -0.22834
 Alpha  occ. eigenvalues --   -0.22216  -0.20965  -0.19026
 Alpha virt. eigenvalues --   -0.06484  -0.04170  -0.03162  -0.01923  -0.01093
 Alpha virt. eigenvalues --   -0.00650  -0.00435   0.01019   0.02261   0.03588
 Alpha virt. eigenvalues --    0.03980   0.07865   0.08086   0.09389   0.10024

 Mulliken charges:
               1
     1  C   -0.130239
     2  C   -0.137381
     3  C   -0.191651
     4  C    0.069558
     5  C    0.150817
     6  C   -0.204564
     7  C   -0.264270
     8  C    0.034611
     9  C    0.061946
    10  C   -0.175872
    11  C   -0.182263
    12  C    0.106952
    13  C   -0.072514
    14  C    0.059857
    15  C   -0.204547
    16  C   -0.138028
    17  C   -0.148998
    18  C   -0.151142
    19  C    0.305819
    20  N   -0.756132
    21  C    0.278763
    22  C    0.022898
    23  N   -0.488898
    24  C    0.230952
    25  C   -0.160826
    26  C   -0.132398
    27  C   -0.138969
    28  C   -0.177741
    29  C    0.367009
    30  C   -0.179755
    31  C   -0.172660
    32  C    0.103279
    33  C   -0.220050
    34  C   -0.128159
    35  C   -0.135595
    36  C   -0.190010
    37  C    0.049029
    38  H    0.130657
    39  H    0.129697
    40  H    0.134119
    41  H    0.131006
    42  H    0.134735
    43  H    0.144384
    44  H    0.139262
    45  H    0.141341
    46  H    0.130533
    47  H    0.131379
    48  H    0.146193
    49  H    0.161151
    50  H    0.149329
    51  H    0.135466
    52  H    0.136498
    53  H    0.147222
    54  H    0.141190
    55  H    0.137103
    56  H    0.146647
    57  H    0.130247
    58  H    0.129626
    59  H    0.133384
 Sum of Mulliken charges =  -0.00000

 Dipole moment (field-independent basis, Debye):
    X=             -0.8081    Y=             -1.3116    Z=              0.6161  Tot=              1.6592
 Quadrupole moment (field-independent basis, Debye-Ang):
   XX=           -171.9289   YY=           -208.4110   ZZ=           -204.5986
   XY=              4.4750   XZ=             -1.4295   YZ=              3.1736

 Normal termination of Gaussian 16 at Sat Nov  5 10:27:12 2022.
