 Gaussian 16, Revision B.01,
 Gaussian 16:  ES64L-G16RevB.01 20-Dec-2017

 -----------------------------
 #p b3lyp/6-31g(d) opt SCF=XQC
 -----------------------------

 ------------------------------
 Gaussian input prepared by ASE
 ------------------------------
 Symbolic Z-matrix:
 Charge =  0 Multiplicity = 1

 SCF Done:  E(RB3LYP) =  -1456.52591977     A.U. after   15 cycles
 SCF Done:  E(RB3LYP) =  -1456.53263511     A.U. after   12 cycles
 SCF Done:  E(RB3LYP) =  -1456.53282838     A.U. after   12 cycles
 SCF Done:  E(RB3LYP) =  -1456.53288419     A.U. after   10 cycles
 SCF Done:  E(RB3LYP) =  -1456.53288814     A.U. after    8 cycles
 SCF Done:  E(RB3LYP) =  -1456.53288889     A.U. after    8 cycles
 SCF Done:  E(RB3LYP) =  -1456.53288905     A.U. after    7 cycles
 SCF Done:  E(RB3LYP) =  -1456.53288911     A.U. after    7 cycles
 Optimization completed.
    -- Stationary point found.

                         Standard orientation:
 ---------------------------------------------------------------------
 Center     Atomic      Atomic             Coordinates (Angstroms)
 Number     Number       Type             X           Y           Z
 ---------------------------------------------------------------------
      1          6           0        7.347974   -1.797063   -2.490183
      2          6           0        8.191207   -1.405359   -1.433354
      3          6           0        7.671561   -0.764502   -0.322965
      4          6           0        6.289523   -0.482588   -0.213570
      5          6           0        5.441744   -0.884244   -1.284872
      6          6           0        5.994219   -1.539204   -2.410970
      7          6           0        4.034422   -0.640444   -1.202877
      8          6           0        3.449703   -0.026850   -0.129126
      9          6           0        1.968631    0.139150   -0.118552
     10          6           0        1.171647   -0.389341    0.910738
     11          6           0       -0.215073   -0.271335    0.879459
     12          6           0       -0.868160    0.371449   -0.188348
     13          6           0       -2.333725    0.494078   -0.227481
     14          6           0       -3.100607    1.657446   -0.564096
     15          6           0       -2.722761    2.971173   -0.906849
     16          6           0       -3.702257    3.898379   -1.215627
     17          6           0       -5.065061    3.535723   -1.199397
     18          6           0       -5.472066    2.258223   -0.841804
     19          6           0       -4.485722    1.318379   -0.495791
     20          7           0       -4.569353   -0.013690   -0.096553
     21          6           0       -3.256713   -0.510799    0.035154
     22          6           0       -3.096517   -1.909954    0.280352
     23          7           0       -4.078362   -2.742935    0.447987
     24          6           0       -5.367853   -2.221110    0.441841
     25          6           0       -6.426201   -3.105033    0.711343
     26          6           0       -7.738404   -2.659293    0.772045
     27          6           0       -8.008895   -1.300214    0.578664
     28          6           0       -6.983929   -0.400941    0.299537
     29          6           0       -5.658616   -0.848506    0.199911
     30          6           0       -0.069270    0.897929   -1.218889
     31          6           0        1.318011    0.784695   -1.182179
     32          6           0        4.286279    0.437679    0.964712
     33          6           0        3.743466    1.157405    2.057243
     34          6           0        4.538064    1.600969    3.096619
     35          6           0        5.918966    1.343199    3.077934
     36          6           0        6.479484    0.664089    2.012722
     37          6           0        5.696879    0.201214    0.928785
     38          1           0        7.761041   -2.300322   -3.360030
     39          1           0        9.257536   -1.607407   -1.487482
     40          1           0        8.349629   -0.477965    0.473396
     41          1           0        5.328429   -1.839217   -3.216843
     42          1           0        3.409112   -0.994006   -2.019150
     43          1           0        1.645015   -0.903465    1.742509
     44          1           0       -0.803453   -0.665982    1.703029
     45          1           0       -1.672532    3.244939   -0.926788
     46          1           0       -3.422007    4.913272   -1.483151
     47          1           0       -5.817317    4.269212   -1.475349
     48          1           0       -6.523467    2.009435   -0.873553
     49          1           0       -2.084001   -2.308819    0.302683
     50          1           0       -6.167109   -4.145265    0.881066
     51          1           0       -8.545050   -3.354874    0.983290
     52          1           0       -9.027477   -0.930057    0.653790
     53          1           0       -7.219394    0.648306    0.202155
     54          1           0       -0.544409    1.382713   -2.066688
     55          1           0        1.912689    1.204389   -1.989025
     56          1           0        2.681042    1.372769    2.067398
     57          1           0        4.095424    2.152772    3.921411
     58          1           0        6.550264    1.686049    3.893246
     59          1           0        7.550314    0.493516    2.013259
 ---------------------------------------------------------------------

 The electronic state is 1-A.
 Alpha  occ. eigenvalues --  -14.40956 -14.33412 -10.24910 -10.23560 -10.23415
 Alpha  occ. eigenvalues --  -10.23372 -10.22730 -10.20596 -10.20161 -10.20151
 Alpha  occ. eigenvalues --  -10.20117 -10.20104 -10.20083 -10.20045 -10.20027
 Alpha  occ. eigenvalues --  -10.19983 -10.19848 -10.19768 -10.19685 -10.19482
 Alpha  occ. eigenvalues --  -10.19467 -10.19410 -10.19369 -10.19353 -10.19294
 Alpha  occ. eigenvalues --  -10.19285 -10.19237 -10.19100 -10.19078 -10.19030
 Alpha  occ. eigenvalues --  -10.18997 -10.18996 -10.18963 -10.18919 -10.18912
 Alpha  occ. eigenvalues --  -10.18876 -10.18677  -1.01418  -0.93445  -0.88240
 Alpha  occ. eigenvalues --   -0.87025  -0.85887  -0.84826  -0.84480  -0.82049
 Alpha  occ. eigenvalues --   -0.80469  -0.77706  -0.76690  -0.75995  -0.75723
 Alpha  occ. eigenvalues --   -0.74952  -0.74583  -0.74115  -0.72287  -0.72084
 Alpha  occ. eigenvalues --   -0.70435  -0.66692  -0.64515  -0.63669  -0.62918
 Alpha  occ. eigenvalues --   -0.61993  -0.61669  -0.60598  -0.59963  -0.59094
 Alpha  occ. eigenvalues --   -0.57910  -0.57178  -0.54927  -0.54790  -0.53249
 Alpha  occ. eigenvalues --   -0.52808  -0.51368  -0.50772  -0.49758  -0.48720
 Alpha  occ. eigenvalues --   -0.48031  -0.47599  -0.46973  -0.46371  -0.45877
 Alpha  occ. eigenvalues --   -0.45471  -0.45087  -0.44683  -0.43906  -0.43384
 Alpha  occ. eigenvalues --   -0.43207  -0.43020  -0.42421  -0.42201  -0.42051
 Alpha  occ. eigenvalues --   -0.41883  -0.41775  -0.40779  -0.39690  -0.39484
 Alpha  occ. eigenvalues --   -0.39121  -0.37551  -0.37516  -0.36891  -0.36559
 Alpha  occ. eigenvalues --   -0.36163  -0.35943  -0.35684  -0.35463  -0.35144
 Alpha  occ. eigenvalues --   -0.34623  -0.34318  -0.33937  -0.32973  -0.31994
 Alpha  occ. eigenvalues --   -0.31227  -0.30042  -0.28173  -0.26495  -0.26226
 Alpha  occ. eigenvalues --   -0.26134  -0.25618  -0.25433  -0.24981  -0.22834
 Alpha  occ. eigenvalues --   -0.22216  -0.20965  -0.19026
 Alpha virt. eigenvalues --   -0.06484  -0.04170  -0.03162  -0.01923  -0.01093
 Alpha virt. eigenvalues --   -0.00650  -0.00435   0.01019   0.02260   0.03588
 Alpha virt. eigenvalues --    0.03980   0.07865   0.08086   0.09389   0.10024

 Mulliken charges:
               1
     1  C   -0.130236
     2  C   -0.137390
     3  C   -0.191646
     4  C    0.069559
     5  C    0.150800
     6  C   -0.204557
     7  C   -0.264263
     8  C    0.034602
     9  C    0.061941
    10  C   -0.175871
    11  C   -0.182258
    12  C    0.106937
    13  C   -0.072512
    14  C    0.059865
    15  C   -0.204557
    16  C   -0.138030
    17  C   -0.148998
    18  C   -0.151152
    19  C    0.305842
    20  N   -0.756118
    21  C    0.278761
    22  C    0.022905
    23  N   -0.488897
    24  C    0.230930
    25  C   -0.160826
    26  C   -0.132392
    27  C   -0.138969
    28  C   -0.177741
    29  C    0.367003
    30  C   -0.179751
    31  C   -0.172660
    32  C    0.103277
    33  C   -0.220048
    34  C   -0.128158
    35  C   -0.135594
    36  C   -0.190018
    37  C    0.049046
    38  H    0.130658
    39  H    0.129697
    40  H    0.134119
    41  H    0.131006
    42  H    0.134735
    43  H    0.144384
    44  H    0.139262
    45  H    0.141343
    46  H    0.130534
    47  H    0.131379
    48  H    0.146194
    49  H    0.161153
    50  H    0.149330
    51  H    0.135465
    52  H    0.136497
    53  H    0.147222
    54  H    0.141191
    55  H    0.137104
    56  H    0.146648
    57  H    0.130247
    58  H    0.129627
    59  H    0.133384
 Sum of Mulliken charges =  -0.00000

 Dipole moment (field-independent basis, Debye):
    X=             -0.6975    Y=              1.4965    Z=             -0.1635  Tot=              1.6592
 Quadrupole moment (field-independent basis, Debye-Ang):
   XX=           -172.9989   YY=           -208.8546   ZZ=           -203.0297
   XY=             -7.3266   XZ=              0.4211   YZ=              1.1595

 1\1\GINC-NODE48\FOpt\RB3LYP\6-31G(d)\C35H22N2\WYKGROUP\05-Nov-2022\0\\
 #p b3lyp/6-31g(d) opt SCF=XQC\\Gaussian input prepared by ASE\\0,1\C,7
 .309481495,2.0993304963,1.9879045115\C,8.136682705,1.3289200693,1.1491
 151646\C,7.5872701462,0.3945299216,0.2896079233\C,6.1899405077,0.18260
 67605,0.2261083574\C,5.358731102,0.9674360748,1.0751528879\C,5.9416936
 345,1.9181407692,1.9461380919\C,3.9386023145,0.8020595458,1.0241549167
 \C,3.3257802832,-0.0904012292,0.1879146411\C,1.8368116062,-0.154250691
 4,0.1762356606\C,1.0957755038,0.0580300039,-0.9983814522\C,-0.29617491

 Normal termination of Gaussian 16 at Sat Nov  5 00:50:57 2022.
