 Gaussian 16, Revision B.01,
 Gaussian 16:  ES64L-G16RevB.01 20-Dec-2017

 -------------------------------------------------------------------
 #p b3lyp/6-31g(d) 6D 10F nosymm GFInput td=(50-50,nstate=2) SCF=XQC
 -------------------------------------------------------------------

 ------------------------------
 Gaussian input prepared by ASE
 ------------------------------
 Symbolic Z-matrix:
 Charge =  0 Multiplicity = 1

                          Input orientation:
 ---------------------------------------------------------------------
 Center     Atomic      Atomic             Coordinates (Angstroms)
 Number     Number       Type             X           Y           Z
 ---------------------------------------------------------------------
      1          6           0       -4.111136    1.771417   -5.525712
      2          6           0       -3.055445    1.095565   -4.910055
      3          6           0       -2.925547    1.097123   -3.522502
      4          6           0       -3.868076    1.764440   -2.723731
      5          7           0       -3.745519    1.762454   -1.306244
      6          6           0       -3.977109    2.960293   -0.574817
      7          6           0       -4.708746    2.935355    0.623539
      8          6           0       -4.925599    4.111106    1.339607
      9          6           0       -4.436300    5.331026    0.867870
     10          6           0       -3.716524    5.360217   -0.328511
     11          6           0       -3.478567    4.187073   -1.042035
     12          6           0       -3.394245    0.569027   -0.624533
     13          6           0       -2.506297    0.598232    0.464296
     14          6           0       -2.176042   -0.566830    1.147223
     15          6           0       -2.700444   -1.798759    0.738239
     16          7           0       -2.358825   -2.995558    1.426995
     17          6           0       -3.258142   -3.967241    1.894470
     18          6           0       -4.654075   -3.962325    1.877247
     19          6           0       -5.316684   -5.056579    2.432989
     20          6           0       -4.609792   -6.130035    2.997978
     21          6           0       -3.217317   -6.123533    3.026461
     22          6           0       -2.528878   -5.036989    2.476613
     23          6           0       -1.127794   -4.697425    2.362927
     24          6           0        0.069911   -5.312725    2.726263
     25          6           0        1.250542   -4.633920    2.425553
     26          6           0        2.659554   -4.894953    2.620038
     27          6           0        3.376380   -5.960567    3.174551
     28          6           0        4.768304   -5.912119    3.181563
     29          6           0        5.446526   -4.812672    2.631615
     30          6           0        4.755293   -3.737232    2.074005
     31          6           0        3.360039   -3.783276    2.082860
     32          7           0        2.435657   -2.855926    1.575867
     33          6           0        2.744868   -1.591764    1.001673
     34          6           0        3.596362   -0.702685    1.668523
     35          6           0        3.923827    0.524112    1.099295
     36          6           0        3.374597    0.909809   -0.134369
     37          7           0        3.693613    2.166479   -0.709988
     38          6           0        3.801111    3.321601    0.113706
     39          6           0        2.863952    3.562207    1.131321
     40          6           0        2.979123    4.691122    1.940313
     41          6           0        4.014226    5.606794    1.739303
     42          6           0        4.941969    5.375018    0.721577
     43          6           0        4.845890    4.239374   -0.080470
     44          6           0        3.908154    2.275431   -2.111970
     45          6           0        3.379412    3.359781   -2.830603
     46          6           0        3.600672    3.469096   -4.202135
     47          6           0        4.333615    2.495260   -4.883820
     48          6           0        4.853031    1.411052   -4.173289
     49          6           0        4.652901    1.302723   -2.798377
     50          6           0        2.498138    0.023764   -0.783680
     51          6           0        2.199534   -1.216942   -0.232025
     52          6           0        1.154714   -3.367824    1.772411
     53          7           0        0.036031   -2.744503    1.408433
     54          6           0       -1.065419   -3.426858    1.714436
     55          6           0       -3.563295   -1.839919   -0.363567
     56          6           0       -3.922311   -0.669270   -1.024622
     57          6           0       -4.933435    2.435747   -3.344982
     58          6           0       -5.044453    2.444134   -4.734153
     59          1           0       -4.205012    1.774040   -6.607907
     60          1           0       -2.316314    0.574200   -5.512733
     61          1           0       -2.094684    0.583102   -3.049712
     62          1           0       -5.103902    1.992245    0.987505
     63          1           0       -5.494114    4.072788    2.265212
     64          1           0       -4.613559    6.246523    1.425005
     65          1           0       -3.322768    6.300726   -0.705085
     66          1           0       -2.906449    4.213194   -1.963972
     67          1           0       -2.079998    1.544796    0.779614
     68          1           0       -1.487588   -0.529492    1.983314
     69          1           0       -5.208047   -3.131957    1.453066
     70          1           0       -6.403159   -5.073267    2.429215
     71          1           0       -5.154523   -6.969394    3.420783
     72          1           0       -2.671521   -6.949525    3.475256
     73          1           0        0.082668   -6.279814    3.222507
     74          1           0        2.852788   -6.818001    3.589559
     75          1           0        5.334947   -6.733447    3.610928
     76          1           0        6.533009   -4.796619    2.635762
     77          1           0        5.287230   -2.897049    1.641034
     78          1           0        4.007860   -0.975807    2.635116
     79          1           0        4.598612    1.196190    1.619095
     80          1           0        2.048812    2.861504    1.281804
     81          1           0        2.244429    4.861684    2.722930
     82          1           0        4.096543    6.489360    2.367210
     83          1           0        5.757193    6.074881    0.557158
     84          1           0        5.577219    4.056647   -0.861393
     85          1           0        2.797085    4.111974   -2.308039
     86          1           0        3.183575    4.315101   -4.742242
     87          1           0        4.497846    2.580131   -5.954231
     88          1           0        5.432061    0.648701   -4.688038
     89          1           0        5.071329    0.465478   -2.248817
     90          1           0        2.055757    0.310394   -1.731984
     91          1           0        1.519578   -1.888740   -0.742675
     92          1           0       -3.958822   -2.792810   -0.700878
     93          1           0       -4.605508   -0.713773   -1.866335
     94          1           0       -5.668962    2.948681   -2.733454
     95          1           0       -5.875539    2.968957   -5.198146
 ---------------------------------------------------------------------

 SCF Done:  E(RB3LYP) =  -2315.73892323     A.U. after   15 cycles

 Excitation energies and oscillator strengths:

 Excited state symmetry could not be determined.
 Excited State   1:      Triplet-?Sym    2.8849 eV  429.76 nm  f=0.0000  <S**2>=2.000
     190 ->196        -0.17863
     192 ->196         0.39884
     193 ->197        -0.10479
     193 ->203         0.12654
     194 ->197         0.16203
     195 ->196         0.45220
 This state for optimization and/or second-order correction.
 Total Energy, E(TD-HF/TD-DFT) =  -2315.63290397
 Copying the excited state density for this state as the 1-particle RhoCI density.

 Excited state symmetry could not be determined.
 Excited State   2:      Triplet-?Sym    2.8937 eV  428.46 nm  f=0.0000  <S**2>=2.000
     193 ->196         0.47803
     194 ->196        -0.45249
     195 ->197        -0.10164

 Excited state symmetry could not be determined.
 Excited State   3:      Singlet-?Sym    3.3789 eV  366.94 nm  f=0.0150  <S**2>=0.000
     192 ->196         0.14153
     195 ->196         0.68680

 Excited state symmetry could not be determined.
 Excited State   4:      Singlet-?Sym    3.4331 eV  361.14 nm  f=0.1713  <S**2>=0.000
     194 ->196         0.68497

 Alpha  occ. eigenvalues --  -14.38121 -14.38121 -14.36490 -14.36490 -14.32621
 Alpha  occ. eigenvalues --  -10.25297 -10.25295 -10.23143 -10.23142 -10.22950
 Alpha  occ. eigenvalues --  -10.22950 -10.22941 -10.22941 -10.22912 -10.22912
 Alpha  occ. eigenvalues --  -10.22353 -10.22352 -10.20477 -10.19477 -10.19477
 Alpha  occ. eigenvalues --  -10.19188 -10.19188 -10.19117 -10.19117 -10.19074
 Alpha  occ. eigenvalues --  -10.19074 -10.19072 -10.19072 -10.19062 -10.19062
 Alpha  occ. eigenvalues --  -10.19062 -10.19061 -10.19030 -10.19028 -10.18983
 Alpha  occ. eigenvalues --  -10.18983 -10.18911 -10.18911 -10.18780 -10.18780
 Alpha  occ. eigenvalues --  -10.18771 -10.18770 -10.18768 -10.18767 -10.18753
 Alpha  occ. eigenvalues --  -10.18753 -10.18748 -10.18748 -10.18684 -10.18684
 Alpha  occ. eigenvalues --  -10.18648 -10.18647 -10.18640 -10.18640 -10.18576
 Alpha  occ. eigenvalues --  -10.18576 -10.18078 -10.18078  -1.00511  -0.98864
 Alpha  occ. eigenvalues --   -0.96432  -0.96428  -0.92020  -0.86424  -0.86254
 Alpha  occ. eigenvalues --   -0.85333  -0.85333  -0.84513  -0.84358  -0.83223
 Alpha  occ. eigenvalues --   -0.83010  -0.81248  -0.79146  -0.76353  -0.75820
 Alpha  occ. eigenvalues --   -0.75782  -0.75474  -0.74796  -0.74758  -0.74463
 Alpha  occ. eigenvalues --   -0.74391  -0.74272  -0.74263  -0.74014  -0.73450
 Alpha  occ. eigenvalues --   -0.72479  -0.71757  -0.70258  -0.69679  -0.66377
 Alpha  occ. eigenvalues --   -0.63674  -0.63322  -0.63000  -0.62587  -0.62247
 Alpha  occ. eigenvalues --   -0.61144  -0.60832  -0.60533  -0.60352  -0.60072
 Alpha  occ. eigenvalues --   -0.60024  -0.59180  -0.58238  -0.57886  -0.57688
 Alpha  occ. eigenvalues --   -0.56999  -0.56561  -0.53967  -0.53857  -0.53382
 Alpha  occ. eigenvalues --   -0.53302  -0.53049  -0.52835  -0.52515  -0.50167
 Alpha  occ. eigenvalues --   -0.49476  -0.49160  -0.49059  -0.48343  -0.48230
 Alpha  occ. eigenvalues --   -0.47401  -0.46991  -0.46842  -0.45565  -0.45521
 Alpha  occ. eigenvalues --   -0.45364  -0.45013  -0.44903  -0.44481  -0.44315
 Alpha  occ. eigenvalues --   -0.44034  -0.44011  -0.43761  -0.43299  -0.43189
 Alpha  occ. eigenvalues --   -0.43078  -0.42956  -0.42892  -0.42706  -0.42469
 Alpha  occ. eigenvalues --   -0.42331  -0.42129  -0.42123  -0.41983  -0.41983
 Alpha  occ. eigenvalues --   -0.41931  -0.41252  -0.40433  -0.39584  -0.39152
 Alpha  occ. eigenvalues --   -0.39070  -0.37769  -0.37539  -0.36830  -0.36818
 Alpha  occ. eigenvalues --   -0.36586  -0.36583  -0.36447  -0.36323  -0.36229
 Alpha  occ. eigenvalues --   -0.36164  -0.35879  -0.35817  -0.35621  -0.35206
 Alpha  occ. eigenvalues --   -0.35063  -0.34462  -0.34399  -0.34314  -0.34202
 Alpha  occ. eigenvalues --   -0.34162  -0.33331  -0.33137  -0.32459  -0.30505
 Alpha  occ. eigenvalues --   -0.30442  -0.29059  -0.27836  -0.27004  -0.25935
 Alpha  occ. eigenvalues --   -0.25917  -0.25829  -0.25793  -0.25700  -0.25594
 Alpha  occ. eigenvalues --   -0.24751  -0.24711  -0.24634  -0.24625  -0.23875
 Alpha  occ. eigenvalues --   -0.22405  -0.20016  -0.19691  -0.18079  -0.17974
 Alpha virt. eigenvalues --   -0.03867  -0.02013  -0.01507  -0.01472  -0.01417
 Alpha virt. eigenvalues --   -0.01098  -0.01094  -0.01058   0.00474   0.00499
 Alpha virt. eigenvalues --    0.00711   0.00713   0.01370   0.02294   0.02845

 Mulliken charges:
               1
     1  C   -0.128317
     2  C   -0.140017
     3  C   -0.162373
     4  C    0.273637
     5  N   -0.654505
     6  C    0.275356
     7  C   -0.162385
     8  C   -0.140083
     9  C   -0.128518
    10  C   -0.139897
    11  C   -0.162166
    12  C    0.296253
    13  C   -0.184726
    14  C   -0.134153
    15  C    0.282025
    16  N   -0.726111
    17  C    0.325191
    18  C   -0.178399
    19  C   -0.142192
    20  C   -0.144770
    21  C   -0.197880
    22  C    0.034576
    23  C    0.053501
    24  C   -0.200795
    25  C    0.053491
    26  C    0.034586
    27  C   -0.197884
    28  C   -0.144765
    29  C   -0.142192
    30  C   -0.178403
    31  C    0.325176
    32  N   -0.726099
    33  C    0.281989
    34  C   -0.167218
    35  C   -0.184414
    36  C    0.296311
    37  N   -0.654512
    38  C    0.273635
    39  C   -0.162380
    40  C   -0.139998
    41  C   -0.128314
    42  C   -0.140117
    43  C   -0.162205
    44  C    0.275364
    45  C   -0.162176
    46  C   -0.139884
    47  C   -0.128527
    48  C   -0.140078
    49  C   -0.162390
    50  C   -0.184742
    51  C   -0.134145
    52  C    0.494535
    53  N   -0.620286
    54  C    0.494481
    55  C   -0.167237
    56  C   -0.184388
    57  C   -0.162188
    58  C   -0.140126
    59  H    0.127920
    60  H    0.132630
    61  H    0.145277
    62  H    0.142892
    63  H    0.131846
    64  H    0.127749
    65  H    0.131695
    66  H    0.144767
    67  H    0.148785
    68  H    0.155836
    69  H    0.142126
    70  H    0.126750
    71  H    0.124168
    72  H    0.127489
    73  H    0.142040
    74  H    0.127489
    75  H    0.124168
    76  H    0.126750
    77  H    0.142124
    78  H    0.150376
    79  H    0.148855
    80  H    0.145277
    81  H    0.132635
    82  H    0.127924
    83  H    0.131555
    84  H    0.144194
    85  H    0.144766
    86  H    0.131696
    87  H    0.127749
    88  H    0.131846
    89  H    0.142892
    90  H    0.148787
    91  H    0.155823
    92  H    0.150378
    93  H    0.148859
    94  H    0.144188
    95  H    0.131549
 Sum of Mulliken charges =  -0.00000

 Dipole moment (field-independent basis, Debye):
    X=             -0.0217    Y=              1.7197    Z=             -0.8818  Tot=              1.9328
 Quadrupole moment (field-independent basis, Debye-Ang):
   XX=           -311.3692   YY=           -310.0300   ZZ=           -314.5379
   XY=             -0.0501   XZ=             -0.0315   YZ=             -3.1337

 Normal termination of Gaussian 16 at Sat Nov  5 11:27:47 2022.
