 Gaussian 16, Revision B.01,
 Gaussian 16:  ES64L-G16RevB.01 20-Dec-2017

 -----------------------------
 #p b3lyp/6-31g(d) opt SCF=XQC
 -----------------------------

 ------------------------------
 Gaussian input prepared by ASE
 ------------------------------
 Symbolic Z-matrix:
 Charge =  0 Multiplicity = 1

 SCF Done:  E(RB3LYP) =  -2315.71238386     A.U. after   16 cycles
 SCF Done:  E(RB3LYP) =  -2315.72769987     A.U. after   14 cycles
 SCF Done:  E(RB3LYP) =  -2315.73672004     A.U. after   14 cycles
 SCF Done:  E(RB3LYP) =  -2315.73832585     A.U. after   12 cycles
 SCF Done:  E(RB3LYP) =  -2315.73860499     A.U. after   12 cycles
 SCF Done:  E(RB3LYP) =  -2315.73875822     A.U. after   11 cycles
 SCF Done:  E(RB3LYP) =  -2315.73885275     A.U. after   11 cycles
 SCF Done:  E(RB3LYP) =  -2315.73889636     A.U. after   10 cycles
 SCF Done:  E(RB3LYP) =  -2315.73890765     A.U. after   10 cycles
 SCF Done:  E(RB3LYP) =  -2315.73891556     A.U. after   10 cycles
 SCF Done:  E(RB3LYP) =  -2315.73891931     A.U. after   10 cycles
 SCF Done:  E(RB3LYP) =  -2315.73892054     A.U. after    9 cycles
 SCF Done:  E(RB3LYP) =  -2315.73892100     A.U. after    9 cycles
 SCF Done:  E(RB3LYP) =  -2315.73892103     A.U. after    7 cycles
 SCF Done:  E(RB3LYP) =  -2315.73892100     A.U. after    7 cycles
 Optimization completed.
    -- Stationary point found.

                         Standard orientation:
 ---------------------------------------------------------------------
 Center     Atomic      Atomic             Coordinates (Angstroms)
 Number     Number       Type             X           Y           Z
 ---------------------------------------------------------------------
      1          6           0        4.369895    4.403854   -3.740949
      2          6           0        3.475510    3.341555   -3.592999
      3          6           0        2.841984    3.112598   -2.372998
      4          6           0        3.081787    3.961185   -1.280248
      5          7           0        2.431527    3.737571   -0.034676
      6          6           0        3.165926    3.856447    1.177746
      7          6           0        2.605044    4.500624    2.292384
      8          6           0        3.326636    4.607016    3.479884
      9          6           0        4.621692    4.092909    3.573034
     10          6           0        5.185592    3.460197    2.463102
     11          6           0        4.464917    3.332470    1.277219
     12          6           0        1.054579    3.397936   -0.002227
     13          6           0        0.573356    2.433859    0.899901
     14          6           0       -0.778672    2.113670    0.948119
     15          6           0       -1.681957    2.726482    0.071505
     16          7           0       -3.065011    2.396128    0.109504
     17          6           0       -4.132593    3.306688    0.160694
     18          6           0       -4.104404    4.698298    0.268283
     19          6           0       -5.324031    5.372801    0.321654
     20          6           0       -6.545027    4.681322    0.274320
     21          6           0       -6.568159    3.291783    0.182198
     22          6           0       -5.358377    2.591508    0.128322
     23          6           0       -5.020399    1.187070    0.060571
     24          6           0       -5.747352   -0.001614   -0.000029
     25          6           0       -5.019672   -1.189852   -0.060590
     26          6           0       -5.356785   -2.594500   -0.128372
     27          6           0       -6.566137   -3.295513   -0.182296
     28          6           0       -6.542144   -4.685044   -0.274369
     29          6           0       -5.320720   -5.375773   -0.321593
     30          6           0       -4.101506   -4.700520   -0.268168
     31          6           0       -4.130566   -3.308929   -0.160644
     32          7           0       -3.063543   -2.397701   -0.109407
     33          6           0       -1.680296   -2.727253   -0.071473
     34          6           0       -1.203482   -3.667398    0.849922
     35          6           0        0.144047   -4.013637    0.873721
     36          6           0        1.056634   -3.397179    0.002224
     37          7           0        2.433755   -3.736025    0.034646
     38          6           0        3.084155   -3.959442    1.280198
     39          6           0        2.844371   -3.110736    2.372855
     40          6           0        3.478081   -3.339443    3.592809
     41          6           0        4.372638   -4.401598    3.740767
     42          6           0        4.620435   -5.241355    2.652833
     43          6           0        3.977351   -5.031831    1.434335
     44          6           0        3.168246   -3.854640   -1.177750
     45          6           0        4.467037   -3.330159   -1.277121
     46          6           0        5.187874   -3.457668   -2.462930
     47          6           0        4.624322   -4.090663   -3.572876
     48          6           0        3.329461   -4.605282   -3.479820
     49          6           0        2.607717   -4.499112   -2.292393
     50          6           0        0.574799   -2.433572   -0.900082
     51          6           0       -0.777413   -2.114133   -0.948273
     52          6           0       -3.594035   -1.110342   -0.056788
     53          7           0       -2.860557   -0.000730    0.000055
     54          6           0       -3.594716    1.108424    0.056854
     55          6           0       -1.205732    3.667080   -0.849726
     56          6           0        0.141611    4.014076   -0.873528
     57          6           0        3.974794    5.033741   -1.434387
     58          6           0        4.617690    5.243513   -2.652940
     59          1           0        4.867331    4.574827   -4.691365
     60          1           0        3.278358    2.674296   -4.428017
     61          1           0        2.159359    2.276490   -2.258854
     62          1           0        1.604373    4.914946    2.221183
     63          1           0        2.876499    5.108908    4.332470
     64          1           0        5.183851    4.184157    4.498024
     65          1           0        6.189722    3.048302    2.522063
     66          1           0        4.902488    2.827330    0.422037
     67          1           0        1.266647    1.939642    1.572386
     68          1           0       -1.135004    1.366044    1.647043
     69          1           0       -3.165698    5.239399    0.316925
     70          1           0       -5.324737    6.456239    0.404620
     71          1           0       -7.478548    5.235287    0.315321
     72          1           0       -7.514116    2.756846    0.158076
     73          1           0       -6.834404   -0.001947   -0.000059
     74          1           0       -7.512420   -2.761152   -0.158240
     75          1           0       -7.475319   -5.239587   -0.315406
     76          1           0       -5.320749   -6.459214   -0.404518
     77          1           0       -3.162466   -5.241052   -0.316706
     78          1           0       -1.892423   -4.133083    1.547578
     79          1           0        0.496956   -4.756444    1.581471
     80          1           0        2.161612   -2.274743    2.258665
     81          1           0        3.280947   -2.672110    4.427771
     82          1           0        4.870225   -4.572379    4.691139
     83          1           0        5.308807   -6.076391    2.754277
     84          1           0        4.162927   -5.695330    0.595643
     85          1           0        4.904325   -2.824809   -0.421916
     86          1           0        6.191849   -3.045387   -2.521823
     87          1           0        5.186600   -4.181737   -4.497811
     88          1           0        2.879608   -5.107403   -4.332420
     89          1           0        1.607205   -4.913832   -2.221255
     90          1           0        1.267761   -1.939101   -1.572719
     91          1           0       -1.134189   -1.366845   -1.647335
     92          1           0       -1.894964    4.132533   -1.547248
     93          1           0        0.494074    4.757223   -1.581144
     94          1           0        4.160363    5.697193   -0.595660
     95          1           0        5.305911    6.078677   -2.754359
 ---------------------------------------------------------------------

 The electronic state is 1-A.
 Alpha  occ. eigenvalues --  -14.38121 -14.38121 -14.36490 -14.36490 -14.32621
 Alpha  occ. eigenvalues --  -10.25297 -10.25295 -10.23143 -10.23142 -10.22950
 Alpha  occ. eigenvalues --  -10.22950 -10.22941 -10.22941 -10.22912 -10.22912
 Alpha  occ. eigenvalues --  -10.22352 -10.22352 -10.20477 -10.19477 -10.19477
 Alpha  occ. eigenvalues --  -10.19188 -10.19188 -10.19117 -10.19117 -10.19074
 Alpha  occ. eigenvalues --  -10.19074 -10.19073 -10.19072 -10.19063 -10.19062
 Alpha  occ. eigenvalues --  -10.19062 -10.19061 -10.19029 -10.19028 -10.18983
 Alpha  occ. eigenvalues --  -10.18983 -10.18911 -10.18911 -10.18780 -10.18780
 Alpha  occ. eigenvalues --  -10.18771 -10.18770 -10.18768 -10.18767 -10.18753
 Alpha  occ. eigenvalues --  -10.18753 -10.18748 -10.18748 -10.18684 -10.18684
 Alpha  occ. eigenvalues --  -10.18648 -10.18647 -10.18640 -10.18640 -10.18576
 Alpha  occ. eigenvalues --  -10.18576 -10.18078 -10.18078  -1.00511  -0.98864
 Alpha  occ. eigenvalues --   -0.96432  -0.96428  -0.92020  -0.86424  -0.86254
 Alpha  occ. eigenvalues --   -0.85333  -0.85333  -0.84513  -0.84358  -0.83223
 Alpha  occ. eigenvalues --   -0.83010  -0.81248  -0.79146  -0.76353  -0.75820
 Alpha  occ. eigenvalues --   -0.75782  -0.75474  -0.74796  -0.74758  -0.74463
 Alpha  occ. eigenvalues --   -0.74391  -0.74272  -0.74263  -0.74013  -0.73450
 Alpha  occ. eigenvalues --   -0.72479  -0.71757  -0.70258  -0.69679  -0.66377
 Alpha  occ. eigenvalues --   -0.63674  -0.63322  -0.63000  -0.62587  -0.62247
 Alpha  occ. eigenvalues --   -0.61144  -0.60832  -0.60533  -0.60352  -0.60072
 Alpha  occ. eigenvalues --   -0.60024  -0.59180  -0.58238  -0.57886  -0.57688
 Alpha  occ. eigenvalues --   -0.56999  -0.56561  -0.53967  -0.53857  -0.53382
 Alpha  occ. eigenvalues --   -0.53302  -0.53049  -0.52835  -0.52515  -0.50167
 Alpha  occ. eigenvalues --   -0.49476  -0.49160  -0.49059  -0.48343  -0.48230
 Alpha  occ. eigenvalues --   -0.47401  -0.46991  -0.46842  -0.45565  -0.45521
 Alpha  occ. eigenvalues --   -0.45364  -0.45013  -0.44903  -0.44481  -0.44315
 Alpha  occ. eigenvalues --   -0.44034  -0.44011  -0.43761  -0.43299  -0.43189
 Alpha  occ. eigenvalues --   -0.43078  -0.42956  -0.42892  -0.42706  -0.42468
 Alpha  occ. eigenvalues --   -0.42331  -0.42129  -0.42123  -0.41983  -0.41983
 Alpha  occ. eigenvalues --   -0.41931  -0.41252  -0.40433  -0.39584  -0.39152
 Alpha  occ. eigenvalues --   -0.39070  -0.37769  -0.37539  -0.36830  -0.36818
 Alpha  occ. eigenvalues --   -0.36586  -0.36583  -0.36447  -0.36323  -0.36229
 Alpha  occ. eigenvalues --   -0.36164  -0.35879  -0.35817  -0.35621  -0.35206
 Alpha  occ. eigenvalues --   -0.35063  -0.34462  -0.34399  -0.34314  -0.34202
 Alpha  occ. eigenvalues --   -0.34162  -0.33331  -0.33137  -0.32459  -0.30505
 Alpha  occ. eigenvalues --   -0.30442  -0.29059  -0.27836  -0.27004  -0.25935
 Alpha  occ. eigenvalues --   -0.25917  -0.25829  -0.25793  -0.25700  -0.25594
 Alpha  occ. eigenvalues --   -0.24751  -0.24711  -0.24634  -0.24625  -0.23875
 Alpha  occ. eigenvalues --   -0.22405  -0.20016  -0.19691  -0.18079  -0.17974
 Alpha virt. eigenvalues --   -0.03867  -0.02013  -0.01507  -0.01472  -0.01417
 Alpha virt. eigenvalues --   -0.01098  -0.01094  -0.01058   0.00474   0.00499
 Alpha virt. eigenvalues --    0.00711   0.00713   0.01370   0.02294   0.02845

 Mulliken charges:
               1
     1  C   -0.128315
     2  C   -0.140019
     3  C   -0.162380
     4  C    0.273628
     5  N   -0.654493
     6  C    0.275351
     7  C   -0.162382
     8  C   -0.140084
     9  C   -0.128517
    10  C   -0.139896
    11  C   -0.162174
    12  C    0.296242
    13  C   -0.184704
    14  C   -0.134166
    15  C    0.281995
    16  N   -0.726093
    17  C    0.325204
    18  C   -0.178400
    19  C   -0.142194
    20  C   -0.144770
    21  C   -0.197883
    22  C    0.034566
    23  C    0.053503
    24  C   -0.200794
    25  C    0.053497
    26  C    0.034576
    27  C   -0.197882
    28  C   -0.144771
    29  C   -0.142194
    30  C   -0.178402
    31  C    0.325195
    32  N   -0.726083
    33  C    0.281970
    34  C   -0.167214
    35  C   -0.184410
    36  C    0.296292
    37  N   -0.654490
    38  C    0.273569
    39  C   -0.162342
    40  C   -0.140022
    41  C   -0.128309
    42  C   -0.140133
    43  C   -0.162158
    44  C    0.275354
    45  C   -0.162175
    46  C   -0.139894
    47  C   -0.128517
    48  C   -0.140086
    49  C   -0.162387
    50  C   -0.184720
    51  C   -0.134160
    52  C    0.494515
    53  N   -0.620296
    54  C    0.494506
    55  C   -0.167229
    56  C   -0.184389
    57  C   -0.162176
    58  C   -0.140130
    59  H    0.127921
    60  H    0.132630
    61  H    0.145282
    62  H    0.142891
    63  H    0.131847
    64  H    0.127749
    65  H    0.131695
    66  H    0.144769
    67  H    0.148785
    68  H    0.155835
    69  H    0.142124
    70  H    0.126750
    71  H    0.124169
    72  H    0.127489
    73  H    0.142040
    74  H    0.127489
    75  H    0.124169
    76  H    0.126750
    77  H    0.142125
    78  H    0.150374
    79  H    0.148857
    80  H    0.145279
    81  H    0.132637
    82  H    0.127927
    83  H    0.131556
    84  H    0.144192
    85  H    0.144770
    86  H    0.131696
    87  H    0.127749
    88  H    0.131847
    89  H    0.142893
    90  H    0.148787
    91  H    0.155825
    92  H    0.150377
    93  H    0.148859
    94  H    0.144188
    95  H    0.131550
 Sum of Mulliken charges =  -0.00000

 Dipole moment (field-independent basis, Debye):
    X=              1.9328    Y=             -0.0005    Z=              0.0005  Tot=              1.9328
 Quadrupole moment (field-independent basis, Debye-Ang):
   XX=           -307.5558   YY=           -311.4137   ZZ=           -316.0994
   XY=             -0.0039   XZ=              0.0041   YZ=              0.4614

 1\1\GINC-NODE93\FOpt\RB3LYP\6-31G(d)\C53H37N5\WYKGROUP\04-Nov-2022\0\\
 #p b3lyp/6-31g(d) opt SCF=XQC\\Gaussian input prepared by ASE\\0,1\C,-
 4.1111364603,1.7714173779,-5.5257120157\C,-3.0554450982,1.0955652993,-
 4.9100549909\C,-2.9255467581,1.0971232718,-3.5225017194\C,-3.86807613,
 1.7644397035,-2.7237305454\N,-3.7455187895,1.7624535352,-1.306244185\C
 ,-3.9771087397,2.9602930168,-0.5748169816\C,-4.7087460128,2.9353547739
 ,0.6235386817\C,-4.9255992953,4.1111062426,1.339606512\C,-4.4362995959
 ,5.3310257869,0.8678699827\C,-3.7165237783,5.3602166312,-0.3285108948\

 Normal termination of Gaussian 16 at Fri Nov  4 12:57:41 2022.
