 Gaussian 16, Revision B.01,
 Gaussian 16:  ES64L-G16RevB.01 20-Dec-2017

 -------------------------------------------------------------------
 #p b3lyp/6-31g(d) 6D 10F nosymm GFInput td=(50-50,nstate=2) SCF=XQC
 -------------------------------------------------------------------

 ------------------------------
 Gaussian input prepared by ASE
 ------------------------------
 Symbolic Z-matrix:
 Charge =  0 Multiplicity = 1

                          Input orientation:
 ---------------------------------------------------------------------
 Center     Atomic      Atomic             Coordinates (Angstroms)
 Number     Number       Type             X           Y           Z
 ---------------------------------------------------------------------
      1          6           0       -4.335278    7.567476   -5.311329
      2          7           0       -4.300947    6.805980   -4.408559
      3          6           0       -4.260591    5.914406   -3.350145
      4          6           0       -5.008085    6.167546   -2.192942
      5          6           0       -4.961087    5.268444   -1.133741
      6          6           0       -4.178040    4.101505   -1.196018
      7          6           0       -4.132416    3.148738   -0.059574
      8          6           0       -5.297738    2.884109    0.698693
      9          6           0       -5.284938    1.989864    1.762426
     10          6           0       -4.093030    1.339714    2.099936
     11          6           0       -3.722473    0.372096    3.109503
     12          6           0       -4.419131   -0.264551    4.143558
     13          6           0       -3.738998   -1.152172    4.971935
     14          6           0       -2.369279   -1.404054    4.780558
     15          6           0       -1.651730   -0.783047    3.760405
     16          6           0       -2.343017    0.097794    2.925766
     17          7           0       -1.867808    0.859302    1.854014
     18          6           0       -0.536022    0.864134    1.358790
     19          6           0        0.226790    2.027762    1.513812
     20          6           0        1.547695    2.080026    1.084249
     21          6           0        2.140726    0.950837    0.503857
     22          6           0        3.554099    0.985231    0.050308
     23          7           0        4.238716    2.122351    0.234111
     24          6           0        5.514903    2.108146   -0.186105
     25          6           0        6.320639    3.338332   -0.003776
     26          6           0        7.656078    3.382440   -0.435099
     27          6           0        8.411870    4.539208   -0.263593
     28          6           0        7.845236    5.664765    0.339800
     29          6           0        6.516998    5.628275    0.771514
     30          6           0        5.757960    4.473373    0.601506
     31          7           0        6.103575    1.048484   -0.761517
     32          6           0        5.338608   -0.043902   -0.907804
     33          6           0        5.944264   -1.237296   -1.544816
     34          6           0        5.176601   -2.391651   -1.766927
     35          6           0        5.747118   -3.510435   -2.368424
     36          6           0        7.089997   -3.491691   -2.753541
     37          6           0        7.860320   -2.346739   -2.535288
     38          6           0        7.292620   -1.225379   -1.935968
     39          7           0        4.056916   -0.122440   -0.512591
     40          6           0        1.375743   -0.211930    0.351023
     41          6           0        0.037062   -0.275693    0.753082
     42          6           0       -0.731738   -1.525513    0.484452
     43          6           0       -0.180496   -2.777175    0.770383
     44          6           0       -0.938777   -3.909965    0.443444
     45          6           0       -0.457637   -5.291933    0.700113
     46          6           0       -1.380400   -6.348403    0.768078
     47          6           0       -0.951715   -7.649262    1.019290
     48          6           0        0.406891   -7.920336    1.198100
     49          6           0        1.334648   -6.879920    1.121845
     50          6           0        0.906200   -5.576663    0.876276
     51          7           0       -2.156088   -3.776394   -0.105277
     52          6           0       -2.613457   -2.535851   -0.338522
     53          6           0       -3.959122   -2.405731   -0.954745
     54          6           0       -4.679001   -3.547540   -1.340931
     55          6           0       -5.940456   -3.423544   -1.918254
     56          6           0       -6.501462   -2.159484   -2.116374
     57          6           0       -5.791028   -1.019029   -1.734756
     58          6           0       -4.527907   -1.138639   -1.159579
     59          7           0       -1.944089   -1.400868   -0.070720
     60          6           0       -2.924993    1.613822    1.343573
     61          6           0       -2.932110    2.501187    0.268754
     62          6           0       -3.438962    3.868632   -2.370133
     63          6           0       -3.472898    4.759379   -3.436842
     64          1           0       -5.607906    7.069737   -2.132352
     65          1           0       -5.522114    5.487385   -0.230414
     66          1           0       -6.229877    3.365869    0.419779
     67          1           0       -6.197779    1.789758    2.317026
     68          1           0       -5.476527   -0.066102    4.297552
     69          1           0       -4.268824   -1.654102    5.776361
     70          1           0       -1.855685   -2.096155    5.442272
     71          1           0       -0.592656   -0.975934    3.623599
     72          1           0       -0.228801    2.886849    1.996480
     73          1           0        2.134718    2.982515    1.207632
     74          1           0        8.085068    2.503697   -0.902701
     75          1           0        9.444348    4.563918   -0.601214
     76          1           0        8.436339    6.567019    0.472732
     77          1           0        6.072613    6.501631    1.240935
     78          1           0        4.726555    4.434475    0.932506
     79          1           0        4.135093   -2.394754   -1.466567
     80          1           0        5.143766   -4.397828   -2.539220
     81          1           0        7.534060   -4.365517   -3.222987
     82          1           0        8.904950   -2.328107   -2.833634
     83          1           0        7.880405   -0.331246   -1.763031
     84          1           0        1.832957   -1.070423   -0.127091
     85          1           0        0.781994   -2.856112    1.260809
     86          1           0       -2.432502   -6.128105    0.626499
     87          1           0       -1.679593   -8.454114    1.076894
     88          1           0        0.740988   -8.936081    1.391851
     89          1           0        2.394617   -7.083137    1.247950
     90          1           0        1.644164   -4.783940    0.797148
     91          1           0       -4.234547   -4.524050   -1.185762
     92          1           0       -6.486959   -4.314829   -2.215363
     93          1           0       -7.486468   -2.064221   -2.566157
     94          1           0       -6.221300   -0.032136   -1.882122
     95          1           0       -3.971958   -0.257514   -0.861172
     96          1           0       -2.023471    2.706992   -0.286915
     97          1           0       -2.848695    2.961657   -2.458638
     98          1           0       -2.906301    4.566783   -4.341953
 ---------------------------------------------------------------------

 SCF Done:  E(RB3LYP) =  -2538.35680676     A.U. after   16 cycles

 Excitation energies and oscillator strengths:

 Excited state symmetry could not be determined.
 Excited State   1:      Triplet-?Sym    2.6873 eV  461.38 nm  f=0.0000  <S**2>=2.000
     197 -> 211        0.14362
     202 -> 211        0.10803
     210 -> 211        0.63841
 This state for optimization and/or second-order correction.
 Total Energy, E(TD-HF/TD-DFT) =  -2538.25805120
 Copying the excited state density for this state as the 1-particle RhoCI density.

 Excited state symmetry could not be determined.
 Excited State   2:      Triplet-?Sym    2.8235 eV  439.12 nm  f=0.0000  <S**2>=2.000
     196 -> 219        0.10356
     204 -> 215       -0.13110
     204 -> 218        0.12385
     209 -> 211        0.10071
     209 -> 214        0.12881
     209 -> 215        0.58917
     209 -> 218        0.11505
     210 -> 223       -0.13270

 Excited state symmetry could not be determined.
 Excited State   3:      Singlet-?Sym    2.8464 eV  435.58 nm  f=0.0913  <S**2>=0.000
     210 -> 211        0.69269

 Excited state symmetry could not be determined.
 Excited State   4:      Singlet-?Sym    3.0764 eV  403.02 nm  f=0.0005  <S**2>=0.000
     209 -> 211        0.70055

 Alpha  occ. eigenvalues --  -14.38575 -14.36979 -14.34560 -14.34534 -14.34415
 Alpha  occ. eigenvalues --  -14.33382 -14.33357 -10.28550 -10.28365 -10.28346
 Alpha  occ. eigenvalues --  -10.26283 -10.25577 -10.25468 -10.25210 -10.25008
 Alpha  occ. eigenvalues --  -10.22975 -10.22761 -10.22243 -10.21777 -10.21583
 Alpha  occ. eigenvalues --  -10.21262 -10.21239 -10.21181 -10.21123 -10.20863
 Alpha  occ. eigenvalues --  -10.20836 -10.20751 -10.20682 -10.20664 -10.20532
 Alpha  occ. eigenvalues --  -10.20530 -10.20378 -10.20370 -10.20335 -10.20297
 Alpha  occ. eigenvalues --  -10.20176 -10.20016 -10.20008 -10.19979 -10.19953
 Alpha  occ. eigenvalues --  -10.19929 -10.19923 -10.19913 -10.19893 -10.19866
 Alpha  occ. eigenvalues --  -10.19856 -10.19692 -10.19490 -10.19488 -10.19473
 Alpha  occ. eigenvalues --  -10.19328 -10.19135 -10.19122 -10.19119 -10.19068
 Alpha  occ. eigenvalues --  -10.19019 -10.18893 -10.18800 -10.18493 -10.18378
 Alpha  occ. eigenvalues --  -10.18368 -10.18335 -10.18139  -1.02842  -0.99717
 Alpha  occ. eigenvalues --   -0.98678  -0.95841  -0.91518  -0.91387  -0.90021
 Alpha  occ. eigenvalues --   -0.88027  -0.87302  -0.86104  -0.86041  -0.85963
 Alpha  occ. eigenvalues --   -0.84960  -0.84867  -0.84599  -0.81333  -0.80324
 Alpha  occ. eigenvalues --   -0.78137  -0.77614  -0.77112  -0.76675  -0.76387
 Alpha  occ. eigenvalues --   -0.76065  -0.75518  -0.75370  -0.75310  -0.75279
 Alpha  occ. eigenvalues --   -0.75246  -0.73823  -0.73737  -0.72813  -0.72147
 Alpha  occ. eigenvalues --   -0.68662  -0.68532  -0.67031  -0.66697  -0.66386
 Alpha  occ. eigenvalues --   -0.64563  -0.63084  -0.62927  -0.62262  -0.61742
 Alpha  occ. eigenvalues --   -0.61419  -0.61060  -0.60706  -0.60359  -0.59925
 Alpha  occ. eigenvalues --   -0.59103  -0.58852  -0.58004  -0.57852  -0.57382
 Alpha  occ. eigenvalues --   -0.56883  -0.55161  -0.55010  -0.54076  -0.53271
 Alpha  occ. eigenvalues --   -0.52559  -0.52116  -0.51910  -0.51243  -0.51027
 Alpha  occ. eigenvalues --   -0.50103  -0.48597  -0.48464  -0.48407  -0.47568
 Alpha  occ. eigenvalues --   -0.47338  -0.47050  -0.46505  -0.46436  -0.46190
 Alpha  occ. eigenvalues --   -0.46034  -0.45686  -0.45424  -0.45192  -0.44979
 Alpha  occ. eigenvalues --   -0.44593  -0.44486  -0.44011  -0.43868  -0.43517
 Alpha  occ. eigenvalues --   -0.43460  -0.43387  -0.43305  -0.43190  -0.42889
 Alpha  occ. eigenvalues --   -0.42795  -0.42693  -0.42609  -0.42404  -0.42258
 Alpha  occ. eigenvalues --   -0.41849  -0.41642  -0.41330  -0.41098  -0.39818
 Alpha  occ. eigenvalues --   -0.39522  -0.38995  -0.38822  -0.37878  -0.37765
 Alpha  occ. eigenvalues --   -0.37571  -0.37263  -0.37138  -0.36847  -0.36428
 Alpha  occ. eigenvalues --   -0.36276  -0.36096  -0.35859  -0.35741  -0.35644
 Alpha  occ. eigenvalues --   -0.35291  -0.35125  -0.34968  -0.34793  -0.34471
 Alpha  occ. eigenvalues --   -0.34302  -0.34025  -0.33920  -0.33547  -0.33520
 Alpha  occ. eigenvalues --   -0.33362  -0.32690  -0.31957  -0.30443  -0.30016
 Alpha  occ. eigenvalues --   -0.29727  -0.28782  -0.27149  -0.26998  -0.26926
 Alpha  occ. eigenvalues --   -0.26683  -0.26294  -0.26003  -0.25949  -0.25869
 Alpha  occ. eigenvalues --   -0.25506  -0.25384  -0.25210  -0.25103  -0.24968
 Alpha  occ. eigenvalues --   -0.24758  -0.24351  -0.23089  -0.20913  -0.20410
 Alpha virt. eigenvalues --   -0.08054  -0.07557  -0.06244  -0.05341  -0.05197
 Alpha virt. eigenvalues --   -0.02862  -0.02111  -0.01840  -0.01582  -0.00797
 Alpha virt. eigenvalues --   -0.00717  -0.00705   0.00256   0.00609   0.01235

 Mulliken charges:
               1
     1  C   -0.081426
     2  N   -0.320768
     3  C    0.287975
     4  C   -0.125395
     5  C   -0.190702
     6  C    0.098749
     7  C    0.085845
     8  C   -0.199312
     9  C   -0.199178
    10  C    0.068147
    11  C    0.061574
    12  C   -0.195407
    13  C   -0.143734
    14  C   -0.140949
    15  C   -0.172498
    16  C    0.318941
    17  N   -0.742151
    18  C    0.228602
    19  C   -0.155241
    20  C   -0.171459
    21  C    0.093583
    22  C    0.455638
    23  N   -0.542880
    24  C    0.451047
    25  C    0.076203
    26  C   -0.155511
    27  C   -0.139677
    28  C   -0.114981
    29  C   -0.139567
    30  C   -0.155442
    31  N   -0.537837
    32  C    0.450066
    33  C    0.076853
    34  C   -0.156787
    35  C   -0.140340
    36  C   -0.115210
    37  C   -0.139690
    38  C   -0.155536
    39  N   -0.544000
    40  C   -0.245114
    41  C    0.106020
    42  C    0.249808
    43  C   -0.215526
    44  C    0.281612
    45  C    0.092098
    46  C   -0.154822
    47  C   -0.136287
    48  C   -0.119496
    49  C   -0.139025
    50  C   -0.173793
    51  N   -0.552513
    52  C    0.443468
    53  C    0.071552
    54  C   -0.160818
    55  C   -0.139290
    56  C   -0.118890
    57  C   -0.143131
    58  C   -0.163423
    59  N   -0.523525
    60  C    0.339922
    61  C   -0.238364
    62  C   -0.191274
    63  C   -0.125516
    64  H    0.155899
    65  H    0.145081
    66  H    0.128763
    67  H    0.135495
    68  H    0.131629
    69  H    0.126073
    70  H    0.129070
    71  H    0.134671
    72  H    0.159082
    73  H    0.171698
    74  H    0.162173
    75  H    0.136413
    76  H    0.137072
    77  H    0.136756
    78  H    0.159885
    79  H    0.159061
    80  H    0.136812
    81  H    0.136946
    82  H    0.136626
    83  H    0.162672
    84  H    0.174185
    85  H    0.153479
    86  H    0.162592
    87  H    0.136279
    88  H    0.134994
    89  H    0.134528
    90  H    0.132739
    91  H    0.154308
    92  H    0.128694
    93  H    0.129145
    94  H    0.133472
    95  H    0.169962
    96  H    0.144289
    97  H    0.150845
    98  H    0.157393
 Sum of Mulliken charges =  -0.00000

 Dipole moment (field-independent basis, Debye):
    X=              3.9663    Y=             -3.8435    Z=              3.7140  Tot=              6.6556
 Quadrupole moment (field-independent basis, Debye-Ang):
   XX=           -317.0882   YY=           -349.2601   ZZ=           -376.0692
   XY=             11.9051   XZ=            -20.4893   YZ=             30.3414

 Normal termination of Gaussian 16 at Sat Nov  5 11:28:08 2022.
