 Gaussian 16, Revision B.01,
 Gaussian 16:  ES64L-G16RevB.01 20-Dec-2017

 -----------------------------
 #p b3lyp/6-31g(d) opt SCF=XQC
 -----------------------------

 ------------------------------
 Gaussian input prepared by ASE
 ------------------------------
 Symbolic Z-matrix:
 Charge =  0 Multiplicity = 1

 SCF Done:  E(RB3LYP) =  -2538.33241955     A.U. after   16 cycles
 SCF Done:  E(RB3LYP) =  -2538.34766595     A.U. after   15 cycles
 SCF Done:  E(RB3LYP) =  -2538.34996576     A.U. after   15 cycles
 SCF Done:  E(RB3LYP) =  -2538.35544812     A.U. after   15 cycles
 SCF Done:  E(RB3LYP) =  -2538.35630763     A.U. after   12 cycles
 SCF Done:  E(RB3LYP) =  -2538.35662866     A.U. after   12 cycles
 SCF Done:  E(RB3LYP) =  -2538.35674253     A.U. after   11 cycles
 SCF Done:  E(RB3LYP) =  -2538.35678674     A.U. after   11 cycles
 SCF Done:  E(RB3LYP) =  -2538.35679545     A.U. after   10 cycles
 SCF Done:  E(RB3LYP) =  -2538.35679898     A.U. after    9 cycles
 SCF Done:  E(RB3LYP) =  -2538.35680082     A.U. after    8 cycles
 SCF Done:  E(RB3LYP) =  -2538.35680146     A.U. after    7 cycles
 SCF Done:  E(RB3LYP) =  -2538.35680165     A.U. after    7 cycles
 SCF Done:  E(RB3LYP) =  -2538.35680170     A.U. after    6 cycles
 SCF Done:  E(RB3LYP) =  -2538.35680172     A.U. after    6 cycles
 SCF Done:  E(RB3LYP) =  -2538.35680171     A.U. after    6 cycles
 SCF Done:  E(RB3LYP) =  -2538.35680170     A.U. after    6 cycles
 Optimization completed.
    -- Stationary point found.

                         Standard orientation:
 ---------------------------------------------------------------------
 Center     Atomic      Atomic             Coordinates (Angstroms)
 Number     Number       Type             X           Y           Z
 ---------------------------------------------------------------------
      1          6           0       -4.044577    8.299688   -4.027050
      2          7           0       -4.052808    7.387139   -3.276561
      3          6           0       -4.062350    6.318449   -2.396457
      4          6           0       -4.861695    6.365376   -1.247201
      5          6           0       -4.864650    5.289075   -0.367389
      6          6           0       -4.081353    4.145041   -0.604914
      7          6           0       -4.089301    3.002002    0.340999
      8          6           0       -5.288545    2.615995    0.985813
      9          6           0       -5.325862    1.543985    1.869424
     10          6           0       -4.151664    0.831857    2.136600
     11          6           0       -3.829230   -0.306019    2.969727
     12          6           0       -4.573507   -1.112372    3.839075
     13          6           0       -3.933399   -2.141828    4.522553
     14          6           0       -2.556735   -2.368343    4.350249
     15          6           0       -1.792250   -1.580090    3.492659
     16          6           0       -2.443224   -0.556059    2.801303
     17          7           0       -1.918246    0.382079    1.907622
     18          6           0       -0.565161    0.463370    1.481618
     19          6           0        0.191520    1.572222    1.878890
     20          6           0        1.530798    1.688388    1.525500
     21          6           0        2.148077    0.677073    0.777292
     22          6           0        3.580798    0.779098    0.401240
     23          7           0        4.258007    1.857440    0.818484
     24          6           0        5.552085    1.906985    0.460232
     25          6           0        6.350496    3.075932    0.898312
     26          6           0        7.704361    3.184254    0.542366
     27          6           0        8.453264    4.283445    0.954276
     28          6           0        7.861295    5.286770    1.725605
     29          6           0        6.514616    5.185799    2.083638
     30          6           0        5.762406    4.088203    1.673392
     31          7           0        6.164888    0.963187   -0.270683
     32          6           0        5.405762   -0.077160   -0.646564
     33          6           0        6.038148   -1.141500   -1.461463
     34          6           0        5.279709   -2.229048   -1.923184
     35          6           0        5.875481   -3.226092   -2.691249
     36          6           0        7.234623   -3.151146   -3.006062
     37          6           0        7.995882   -2.072174   -2.549717
     38          6           0        7.403028   -1.072231   -1.783197
     39          7           0        4.107189   -0.213337   -0.329924
     40          6           0        1.389128   -0.431307    0.382228
     41          6           0        0.033335   -0.553632    0.705718
     42          6           0       -0.724254   -1.726638    0.180951
     43          6           0       -0.188601   -3.014715    0.259786
     44          6           0       -0.932833   -4.062183   -0.300593
     45          6           0       -0.466067   -5.472429   -0.277251
     46          6           0       -1.392585   -6.514669   -0.443205
     47          6           0       -0.977845   -7.843648   -0.412879
     48          6           0        0.370726   -8.155897   -0.225474
     49          6           0        1.302589   -7.127995   -0.070351
     50          6           0        0.887831   -5.797681   -0.094687
     51          7           0       -2.123517   -3.819626   -0.869994
     52          6           0       -2.567826   -2.552935   -0.894879
     53          6           0       -3.883643   -2.300302   -1.536970
     54          6           0       -4.586811   -3.346297   -2.155470
     55          6           0       -5.820298   -3.107550   -2.756681
     56          6           0       -6.369709   -1.823069   -2.747441
     57          6           0       -5.675768   -0.777486   -2.134097
     58          6           0       -4.440512   -1.011549   -1.534124
     59          7           0       -1.909702   -1.491741   -0.396183
     60          6           0       -2.949780    1.226815    1.495495
     61          6           0       -2.906288    2.294008    0.600000
     62          6           0       -3.289609    4.121186   -1.767491
     63          6           0       -3.273274    5.190501   -2.655606
     64          1           0       -5.462286    7.247554   -1.051091
     65          1           0       -5.466144    5.346471    0.534606
     66          1           0       -6.206189    3.149374    0.757331
     67          1           0       -6.263460    1.255804    2.337146
     68          1           0       -5.636544   -0.934704    3.978960
     69          1           0       -4.500292   -2.775787    5.198185
     70          1           0       -2.075056   -3.173733    4.897954
     71          1           0       -0.728316   -1.755414    3.370744
     72          1           0       -0.284398    2.334238    2.488313
     73          1           0        2.112927    2.547869    1.836507
     74          1           0        8.152985    2.400442   -0.057007
     75          1           0        9.500163    4.358708    0.673303
     76          1           0        8.447061    6.144253    2.046132
     77          1           0        6.050522    5.964135    2.683132
     78          1           0        4.716859    4.000176    1.945338
     79          1           0        4.225529   -2.276231   -1.675306
     80          1           0        5.279236   -4.061989   -3.046831
     81          1           0        7.698396   -3.929937   -3.605682
     82          1           0        9.053111   -2.010114   -2.792661
     83          1           0        7.983634   -0.229939   -1.424987
     84          1           0        1.866459   -1.193579   -0.222540
     85          1           0        0.750285   -3.190500    0.770401
     86          1           0       -2.436757   -6.262095   -0.589505
     87          1           0       -1.708824   -8.638469   -0.534698
     88          1           0        0.694046   -9.193158   -0.204184
     89          1           0        2.355355   -7.361050    0.064195
     90          1           0        1.629854   -5.010994    0.004241
     91          1           0       -4.151424   -4.339073   -2.160033
     92          1           0       -6.353972   -3.924979   -3.234518
     93          1           0       -7.332925   -1.638361   -3.216178
     94          1           0       -6.097331    0.223951   -2.119351
     95          1           0       -3.897477   -0.204438   -1.056430
     96          1           0       -1.972830    2.588028    0.132073
     97          1           0       -2.697291    3.239447   -1.992319
     98          1           0       -2.666095    5.159282   -3.554332
 ---------------------------------------------------------------------

 The electronic state is 1-A.
 Alpha  occ. eigenvalues --  -14.38575 -14.36979 -14.34560 -14.34534 -14.34415
 Alpha  occ. eigenvalues --  -14.33382 -14.33357 -10.28550 -10.28365 -10.28346
 Alpha  occ. eigenvalues --  -10.26283 -10.25577 -10.25468 -10.25210 -10.25008
 Alpha  occ. eigenvalues --  -10.22975 -10.22761 -10.22243 -10.21777 -10.21583
 Alpha  occ. eigenvalues --  -10.21262 -10.21239 -10.21181 -10.21123 -10.20863
 Alpha  occ. eigenvalues --  -10.20836 -10.20751 -10.20682 -10.20664 -10.20531
 Alpha  occ. eigenvalues --  -10.20530 -10.20378 -10.20370 -10.20335 -10.20297
 Alpha  occ. eigenvalues --  -10.20176 -10.20016 -10.20008 -10.19979 -10.19953
 Alpha  occ. eigenvalues --  -10.19929 -10.19923 -10.19913 -10.19893 -10.19866
 Alpha  occ. eigenvalues --  -10.19856 -10.19692 -10.19490 -10.19488 -10.19473
 Alpha  occ. eigenvalues --  -10.19328 -10.19135 -10.19122 -10.19119 -10.19068
 Alpha  occ. eigenvalues --  -10.19019 -10.18893 -10.18800 -10.18493 -10.18378
 Alpha  occ. eigenvalues --  -10.18368 -10.18335 -10.18139  -1.02842  -0.99717
 Alpha  occ. eigenvalues --   -0.98678  -0.95841  -0.91518  -0.91387  -0.90021
 Alpha  occ. eigenvalues --   -0.88027  -0.87302  -0.86104  -0.86041  -0.85963
 Alpha  occ. eigenvalues --   -0.84960  -0.84867  -0.84600  -0.81333  -0.80324
 Alpha  occ. eigenvalues --   -0.78137  -0.77614  -0.77112  -0.76675  -0.76387
 Alpha  occ. eigenvalues --   -0.76065  -0.75518  -0.75370  -0.75310  -0.75279
 Alpha  occ. eigenvalues --   -0.75246  -0.73823  -0.73736  -0.72813  -0.72147
 Alpha  occ. eigenvalues --   -0.68662  -0.68532  -0.67031  -0.66697  -0.66386
 Alpha  occ. eigenvalues --   -0.64563  -0.63084  -0.62927  -0.62262  -0.61742
 Alpha  occ. eigenvalues --   -0.61419  -0.61060  -0.60706  -0.60359  -0.59925
 Alpha  occ. eigenvalues --   -0.59103  -0.58852  -0.58004  -0.57852  -0.57382
 Alpha  occ. eigenvalues --   -0.56883  -0.55161  -0.55010  -0.54076  -0.53271
 Alpha  occ. eigenvalues --   -0.52560  -0.52116  -0.51910  -0.51243  -0.51027
 Alpha  occ. eigenvalues --   -0.50103  -0.48597  -0.48464  -0.48407  -0.47568
 Alpha  occ. eigenvalues --   -0.47338  -0.47050  -0.46505  -0.46436  -0.46190
 Alpha  occ. eigenvalues --   -0.46034  -0.45686  -0.45424  -0.45192  -0.44979
 Alpha  occ. eigenvalues --   -0.44593  -0.44486  -0.44011  -0.43868  -0.43517
 Alpha  occ. eigenvalues --   -0.43460  -0.43387  -0.43305  -0.43190  -0.42889
 Alpha  occ. eigenvalues --   -0.42795  -0.42693  -0.42609  -0.42404  -0.42258
 Alpha  occ. eigenvalues --   -0.41849  -0.41642  -0.41330  -0.41098  -0.39818
 Alpha  occ. eigenvalues --   -0.39522  -0.38995  -0.38822  -0.37878  -0.37765
 Alpha  occ. eigenvalues --   -0.37571  -0.37263  -0.37138  -0.36847  -0.36428
 Alpha  occ. eigenvalues --   -0.36276  -0.36096  -0.35859  -0.35741  -0.35644
 Alpha  occ. eigenvalues --   -0.35291  -0.35125  -0.34968  -0.34793  -0.34471
 Alpha  occ. eigenvalues --   -0.34303  -0.34025  -0.33920  -0.33547  -0.33520
 Alpha  occ. eigenvalues --   -0.33362  -0.32690  -0.31957  -0.30443  -0.30016
 Alpha  occ. eigenvalues --   -0.29727  -0.28782  -0.27149  -0.26998  -0.26926
 Alpha  occ. eigenvalues --   -0.26683  -0.26294  -0.26003  -0.25949  -0.25869
 Alpha  occ. eigenvalues --   -0.25506  -0.25384  -0.25210  -0.25103  -0.24968
 Alpha  occ. eigenvalues --   -0.24758  -0.24351  -0.23089  -0.20913  -0.20410
 Alpha virt. eigenvalues --   -0.08054  -0.07557  -0.06244  -0.05340  -0.05197
 Alpha virt. eigenvalues --   -0.02862  -0.02110  -0.01840  -0.01582  -0.00797
 Alpha virt. eigenvalues --   -0.00717  -0.00705   0.00256   0.00609   0.01235

 Mulliken charges:
               1
     1  C   -0.081426
     2  N   -0.320765
     3  C    0.287967
     4  C   -0.125404
     5  C   -0.190692
     6  C    0.098751
     7  C    0.085846
     8  C   -0.199304
     9  C   -0.199182
    10  C    0.068151
    11  C    0.061585
    12  C   -0.195405
    13  C   -0.143734
    14  C   -0.140945
    15  C   -0.172493
    16  C    0.318923
    17  N   -0.742155
    18  C    0.228584
    19  C   -0.155233
    20  C   -0.171460
    21  C    0.093573
    22  C    0.455664
    23  N   -0.542890
    24  C    0.451059
    25  C    0.076198
    26  C   -0.155511
    27  C   -0.139676
    28  C   -0.114982
    29  C   -0.139564
    30  C   -0.155443
    31  N   -0.537854
    32  C    0.450074
    33  C    0.076860
    34  C   -0.156792
    35  C   -0.140338
    36  C   -0.115208
    37  C   -0.139692
    38  C   -0.155536
    39  N   -0.544012
    40  C   -0.245123
    41  C    0.106045
    42  C    0.249805
    43  C   -0.215514
    44  C    0.281596
    45  C    0.092096
    46  C   -0.154828
    47  C   -0.136278
    48  C   -0.119500
    49  C   -0.139027
    50  C   -0.173787
    51  N   -0.552497
    52  C    0.443496
    53  C    0.071513
    54  C   -0.160828
    55  C   -0.139278
    56  C   -0.118896
    57  C   -0.143135
    58  C   -0.163389
    59  N   -0.523544
    60  C    0.339918
    61  C   -0.238369
    62  C   -0.191292
    63  C   -0.125499
    64  H    0.155902
    65  H    0.145079
    66  H    0.128764
    67  H    0.135494
    68  H    0.131629
    69  H    0.126073
    70  H    0.129070
    71  H    0.134669
    72  H    0.159083
    73  H    0.171699
    74  H    0.162174
    75  H    0.136413
    76  H    0.137072
    77  H    0.136755
    78  H    0.159886
    79  H    0.159062
    80  H    0.136811
    81  H    0.136945
    82  H    0.136626
    83  H    0.162672
    84  H    0.174185
    85  H    0.153480
    86  H    0.162591
    87  H    0.136278
    88  H    0.134995
    89  H    0.134528
    90  H    0.132737
    91  H    0.154309
    92  H    0.128692
    93  H    0.129145
    94  H    0.133472
    95  H    0.169955
    96  H    0.144287
    97  H    0.150850
    98  H    0.157391
 Sum of Mulliken charges =  -0.00000

 Dipole moment (field-independent basis, Debye):
    X=              3.7860    Y=             -4.4905    Z=              3.1301  Tot=              6.6556
 Quadrupole moment (field-independent basis, Debye-Ang):
   XX=           -315.0679   YY=           -359.9226   ZZ=           -365.7916
   XY=             12.7835   XZ=            -15.3199   YZ=             33.4173

 1\1\GINC-NODE29\FOpt\RB3LYP\6-31G(d)\C56H35N7\WYKGROUP\05-Nov-2022\0\\
 #p b3lyp/6-31g(d) opt SCF=XQC\\Gaussian input prepared by ASE\\0,1\C,-
 4.3352782464,7.5674762054,-5.3113285013\N,-4.3009468516,6.8059799441,-
 4.4085590903\C,-4.2605907811,5.9144064729,-3.3501447633\C,-5.008084906
 4,6.1675455752,-2.1929422766\C,-4.9610867499,5.2684443474,-1.133740578
 3\C,-4.1780403801,4.1015048263,-1.196018129\C,-4.1324163418,3.14873814
 16,-0.059573661\C,-5.2977376763,2.8841093251,0.6986926091\C,-5.2849375
 882,1.9898639421,1.7624258415\C,-4.0930304479,1.3397139175,2.099936050

 Normal termination of Gaussian 16 at Sat Nov  5 02:08:23 2022.
