 Gaussian 16, Revision B.01,
 Gaussian 16:  ES64L-G16RevB.01 20-Dec-2017

 -------------------------------------------------------------------
 #p b3lyp/6-31g(d) 6D 10F nosymm GFInput td=(50-50,nstate=2) SCF=XQC
 -------------------------------------------------------------------

 ------------------------------
 Gaussian input prepared by ASE
 ------------------------------
 Symbolic Z-matrix:
 Charge =  0 Multiplicity = 1

                          Input orientation:
 ---------------------------------------------------------------------
 Center     Atomic      Atomic             Coordinates (Angstroms)
 Number     Number       Type             X           Y           Z
 ---------------------------------------------------------------------
      1          6           0       -0.449440    4.835751   -5.018314
      2          6           0       -1.293347    3.775516   -4.682492
      3          6           0       -1.119929    3.093806   -3.478901
      4          6           0       -0.098236    3.459458   -2.586857
      5          6           0        0.083197    2.732686   -1.303787
      6          6           0        0.394021    3.423618   -0.121581
      7          6           0        0.549843    2.764029    1.108383
      8          6           0        0.861975    3.523284    2.346833
      9          6           0        0.268120    3.176345    3.571736
     10          6           0        0.559740    3.888827    4.733857
     11          6           0        1.450979    4.962682    4.695383
     12          6           0        2.048317    5.318284    3.484767
     13          6           0        1.756479    4.605991    2.322604
     14          6           0        0.386948    1.370202    1.141889
     15          6           0        0.079340    0.670227   -0.025285
     16          7           0       -0.073774   -0.747277    0.022964
     17          6           0        0.977919   -1.681691   -0.014380
     18          6           0        0.402669   -2.972665    0.077713
     19          6           0        1.188296   -4.135730    0.089830
     20          6           0        2.564502   -4.036327    0.022774
     21          6           0        3.130734   -2.755661   -0.076324
     22          6           0        2.387978   -1.539100   -0.130715
     23          6           0        3.374486   -0.475615   -0.317597
     24          6           0        3.336525    0.918998   -0.485486
     25          6           0        4.518866    1.636965   -0.635915
     26          6           0        5.765753    0.994064   -0.620724
     27          6           0        5.845855   -0.385793   -0.473294
     28          6           0        4.652745   -1.101566   -0.340232
     29          7           0        4.492664   -2.474301   -0.190365
     30          6           0        5.543626   -3.432676   -0.163754
     31          6           0        6.397376   -3.568127   -1.265401
     32          6           0        7.435872   -4.498784   -1.230823
     33          6           0        7.617538   -5.310130   -0.109112
     34          6           0        6.759860   -5.180819    0.985284
     35          6           0        5.730744   -4.239653    0.965375
     36          6           0       -1.025382   -2.811424    0.149690
     37          6           0       -2.046512   -3.771290    0.226004
     38          6           0       -3.367222   -3.368293    0.269379
     39          6           0       -3.638952   -1.991220    0.254413
     40          6           0       -2.647669   -0.966118    0.216376
     41          6           0       -3.376911    0.299345    0.299763
     42          6           0       -3.035142    1.661967    0.350719
     43          6           0       -4.031495    2.631129    0.420913
     44          6           0       -5.388647    2.276106    0.440794
     45          6           0       -5.768470    0.939218    0.410286
     46          6           0       -4.761209   -0.028355    0.356572
     47          7           0       -4.905923   -1.410583    0.325837
     48          6           0       -6.141274   -2.114956    0.364868
     49          6           0       -7.000093   -1.964511    1.460628
     50          6           0       -8.217336   -2.645143    1.489595
     51          6           0       -8.576297   -3.491439    0.438679
     52          6           0       -7.714983   -3.648171   -0.649256
     53          6           0       -6.504670   -2.956504   -0.693883
     54          6           0       -1.303596   -1.422847    0.128384
     55          6           0       -0.070034    1.338838   -1.240758
     56          6           0        0.742483    4.529012   -2.936116
     57          6           0        0.569130    5.210122   -4.140000
     58          1           0       -0.584569    5.366365   -5.956895
     59          1           0       -2.095430    3.482747   -5.354757
     60          1           0       -1.800065    2.289980   -3.211475
     61          1           0        0.466116    4.506652   -0.150157
     62          1           0       -0.447513    2.359673    3.606804
     63          1           0        0.082828    3.608958    5.669395
     64          1           0        1.678586    5.517581    5.601464
     65          1           0        2.750709    6.146683    3.445681
     66          1           0        2.247250    4.873127    1.390800
     67          1           0        0.519815    0.820382    2.067674
     68          1           0        0.713564   -5.110789    0.155653
     69          1           0        3.194219   -4.918724    0.029714
     70          1           0        2.398008    1.448936   -0.508333
     71          1           0        4.470375    2.714604   -0.766465
     72          1           0        6.677758    1.575018   -0.728915
     73          1           0        6.803393   -0.895925   -0.462162
     74          1           0        6.236291   -2.948449   -2.142073
     75          1           0        8.096005   -4.597446   -2.088258
     76          1           0        8.422810   -6.039106   -0.087832
     77          1           0        6.898256   -5.805279    1.863688
     78          1           0        5.072265   -4.118621    1.819930
     79          1           0       -1.797101   -4.828554    0.246547
     80          1           0       -4.174676   -4.089204    0.328587
     81          1           0       -2.003931    1.975968    0.345146
     82          1           0       -3.747329    3.678994    0.460195
     83          1           0       -6.151424    3.048856    0.484996
     84          1           0       -6.814326    0.650860    0.428193
     85          1           0       -6.704151   -1.321325    2.283566
     86          1           0       -8.879996   -2.522334    2.341942
     87          1           0       -9.521726   -4.025899    0.467279
     88          1           0       -7.989835   -4.301263   -1.473038
     89          1           0       -5.838650   -3.057284   -1.545214
     90          1           0       -0.286017    0.765717   -2.136246
     91          1           0        1.553924    4.810565   -2.270498
     92          1           0        1.236525    6.028826   -4.395874
 ---------------------------------------------------------------------

 SCF Done:  E(RB3LYP) =  -2243.16368871     A.U. after   16 cycles

 Excitation energies and oscillator strengths:

 Excited state symmetry could not be determined.
 Excited State   1:      Triplet-?Sym    2.8724 eV  431.64 nm  f=0.0000  <S**2>=2.000
     187 ->193        -0.19969
     188 ->194         0.15798
     189 ->191         0.12956
     189 ->194         0.32964
     190 ->193         0.42435
     190 ->196        -0.14803
     190 ->202         0.15124
 This state for optimization and/or second-order correction.
 Total Energy, E(TD-HF/TD-DFT) =  -2243.05813070
 Copying the excited state density for this state as the 1-particle RhoCI density.

 Excited state symmetry could not be determined.
 Excited State   2:      Triplet-?Sym    2.9894 eV  414.75 nm  f=0.0000  <S**2>=2.000
     188 ->193         0.11505
     190 ->191         0.54430
     190 ->194         0.35660

 Excited state symmetry could not be determined.
 Excited State   3:      Singlet-?Sym    3.0902 eV  401.21 nm  f=0.0035  <S**2>=0.000
     190 ->191         0.70561

 Excited state symmetry could not be determined.
 Excited State   4:      Singlet-?Sym    3.2982 eV  375.91 nm  f=0.0008  <S**2>=0.000
     189 ->191         0.13666
     190 ->192         0.69007

 Alpha  occ. eigenvalues --  -14.37624 -14.37333 -14.37248 -10.23558 -10.23478
 Alpha  occ. eigenvalues --  -10.23373 -10.22100 -10.22067 -10.21676 -10.21607
 Alpha  occ. eigenvalues --  -10.21461 -10.21364 -10.21004 -10.20981 -10.20228
 Alpha  occ. eigenvalues --  -10.20189 -10.19930 -10.19883 -10.19875 -10.19809
 Alpha  occ. eigenvalues --  -10.19801 -10.19771 -10.19764 -10.19750 -10.19734
 Alpha  occ. eigenvalues --  -10.19698 -10.19693 -10.19687 -10.19627 -10.19259
 Alpha  occ. eigenvalues --  -10.19248 -10.19216 -10.19200 -10.19192 -10.19162
 Alpha  occ. eigenvalues --  -10.19153 -10.19119 -10.19119 -10.19062 -10.18968
 Alpha  occ. eigenvalues --  -10.18891 -10.18478 -10.18355 -10.17967 -10.17922
 Alpha  occ. eigenvalues --  -10.17832 -10.17745 -10.17739 -10.17673 -10.17444
 Alpha  occ. eigenvalues --  -10.17397 -10.17394 -10.17304 -10.17194 -10.17146
 Alpha  occ. eigenvalues --  -10.17014 -10.16975  -0.98501  -0.98332  -0.97632
 Alpha  occ. eigenvalues --   -0.88052  -0.86509  -0.86401  -0.85876  -0.85069
 Alpha  occ. eigenvalues --   -0.83350  -0.83203  -0.82945  -0.82869  -0.79132
 Alpha  occ. eigenvalues --   -0.78926  -0.77551  -0.77496  -0.75438  -0.75355
 Alpha  occ. eigenvalues --   -0.74784  -0.74694  -0.74623  -0.74588  -0.74181
 Alpha  occ. eigenvalues --   -0.73300  -0.72621  -0.72167  -0.71581  -0.70941
 Alpha  occ. eigenvalues --   -0.69881  -0.69232  -0.64412  -0.63704  -0.63664
 Alpha  occ. eigenvalues --   -0.63468  -0.62287  -0.61687  -0.61558  -0.60851
 Alpha  occ. eigenvalues --   -0.60524  -0.60387  -0.60045  -0.59160  -0.58035
 Alpha  occ. eigenvalues --   -0.57646  -0.57226  -0.57155  -0.55698  -0.55533
 Alpha  occ. eigenvalues --   -0.54015  -0.53875  -0.52318  -0.51267  -0.51144
 Alpha  occ. eigenvalues --   -0.51021  -0.49994  -0.49785  -0.49716  -0.49201
 Alpha  occ. eigenvalues --   -0.48370  -0.47645  -0.47170  -0.46637  -0.46598
 Alpha  occ. eigenvalues --   -0.46547  -0.45848  -0.45703  -0.45122  -0.45020
 Alpha  occ. eigenvalues --   -0.44738  -0.44213  -0.44014  -0.43935  -0.43396
 Alpha  occ. eigenvalues --   -0.42955  -0.42869  -0.42736  -0.42649  -0.42473
 Alpha  occ. eigenvalues --   -0.42142  -0.42094  -0.41984  -0.41730  -0.41458
 Alpha  occ. eigenvalues --   -0.41244  -0.41141  -0.40808  -0.40051  -0.39500
 Alpha  occ. eigenvalues --   -0.39111  -0.37973  -0.37695  -0.37531  -0.37234
 Alpha  occ. eigenvalues --   -0.36981  -0.36889  -0.36626  -0.36474  -0.35942
 Alpha  occ. eigenvalues --   -0.35675  -0.35560  -0.35504  -0.35243  -0.35180
 Alpha  occ. eigenvalues --   -0.34831  -0.34526  -0.34263  -0.33911  -0.33830
 Alpha  occ. eigenvalues --   -0.33716  -0.33563  -0.32910  -0.32376  -0.31939
 Alpha  occ. eigenvalues --   -0.30868  -0.30152  -0.28495  -0.27456  -0.27073
 Alpha  occ. eigenvalues --   -0.26935  -0.25869  -0.25794  -0.25544  -0.25337
 Alpha  occ. eigenvalues --   -0.25177  -0.25149  -0.23767  -0.23437  -0.23158
 Alpha  occ. eigenvalues --   -0.22571  -0.20375  -0.20221  -0.18022  -0.16993
 Alpha virt. eigenvalues --   -0.03875  -0.03048  -0.01800  -0.01645  -0.01223
 Alpha virt. eigenvalues --   -0.01069  -0.00916  -0.00840  -0.00303  -0.00245
 Alpha virt. eigenvalues --    0.00752   0.01588   0.02606   0.03262   0.03439

 Mulliken charges:
               1
     1  C   -0.124546
     2  C   -0.134261
     3  C   -0.173302
     4  C    0.088639
     5  C    0.090820
     6  C   -0.232816
     7  C    0.090958
     8  C    0.091223
     9  C   -0.172732
    10  C   -0.133924
    11  C   -0.124527
    12  C   -0.133926
    13  C   -0.169530
    14  C   -0.183938
    15  C    0.210862
    16  N   -0.786611
    17  C    0.214025
    18  C    0.065663
    19  C   -0.215349
    20  C   -0.198677
    21  C    0.309983
    22  C    0.043011
    23  C    0.065605
    24  C   -0.180611
    25  C   -0.155090
    26  C   -0.142585
    27  C   -0.180288
    28  C    0.302140
    29  N   -0.727377
    30  C    0.250294
    31  C   -0.143315
    32  C   -0.143551
    33  C   -0.120613
    34  C   -0.143469
    35  C   -0.141687
    36  C    0.065529
    37  C   -0.215278
    38  C   -0.199231
    39  C    0.309634
    40  C    0.042292
    41  C    0.064329
    42  C   -0.190037
    43  C   -0.156689
    44  C   -0.143643
    45  C   -0.180739
    46  C    0.301518
    47  N   -0.726950
    48  C    0.250620
    49  C   -0.143347
    50  C   -0.143491
    51  C   -0.120610
    52  C   -0.143443
    53  C   -0.141885
    54  C    0.213613
    55  C   -0.186557
    56  C   -0.170405
    57  C   -0.134099
    58  H    0.131779
    59  H    0.134708
    60  H    0.146928
    61  H    0.143874
    62  H    0.142152
    63  H    0.134304
    64  H    0.131942
    65  H    0.132379
    66  H    0.131461
    67  H    0.154348
    68  H    0.125924
    69  H    0.136498
    70  H    0.141033
    71  H    0.112528
    72  H    0.121201
    73  H    0.135703
    74  H    0.152889
    75  H    0.137505
    76  H    0.134107
    77  H    0.137590
    78  H    0.152817
    79  H    0.126257
    80  H    0.136507
    81  H    0.143334
    82  H    0.120529
    83  H    0.122399
    84  H    0.135902
    85  H    0.152471
    86  H    0.137659
    87  H    0.134365
    88  H    0.137760
    89  H    0.152534
    90  H    0.154087
    91  H    0.130766
    92  H    0.132128
 Sum of Mulliken charges =  -0.00000

 Dipole moment (field-independent basis, Debye):
    X=             -0.1166    Y=             -0.1612    Z=              0.0602  Tot=              0.2079
 Quadrupole moment (field-independent basis, Debye-Ang):
   XX=           -280.4031   YY=           -290.0146   ZZ=           -307.5037
   XY=              4.0462   XZ=             -1.6430   YZ=             -1.5176

 Normal termination of Gaussian 16 at Sat Nov  5 11:10:43 2022.
