 Gaussian 16, Revision B.01,
 Gaussian 16:  ES64L-G16RevB.01 20-Dec-2017

 -----------------------------
 #p b3lyp/6-31g(d) opt SCF=XQC
 -----------------------------

 ------------------------------
 Gaussian input prepared by ASE
 ------------------------------
 Symbolic Z-matrix:
 Charge =  0 Multiplicity = 1

 SCF Done:  E(RB3LYP) =  -2243.14763116     A.U. after   16 cycles
 SCF Done:  E(RB3LYP) =  -2243.15863527     A.U. after   14 cycles
 SCF Done:  E(RB3LYP) =  -2243.15994911     A.U. after   14 cycles
 SCF Done:  E(RB3LYP) =  -2243.16270948     A.U. after   13 cycles
 SCF Done:  E(RB3LYP) =  -2243.16210034     A.U. after   13 cycles
 SCF Done:  E(RB3LYP) =  -2243.16345030     A.U. after   12 cycles
 SCF Done:  E(RB3LYP) =  -2243.16360008     A.U. after   11 cycles
 SCF Done:  E(RB3LYP) =  -2243.16365721     A.U. after   11 cycles
 SCF Done:  E(RB3LYP) =  -2243.16366987     A.U. after   11 cycles
 SCF Done:  E(RB3LYP) =  -2243.16367581     A.U. after   11 cycles
 SCF Done:  E(RB3LYP) =  -2243.16367758     A.U. after   10 cycles
 SCF Done:  E(RB3LYP) =  -2243.16367856     A.U. after   10 cycles
 SCF Done:  E(RB3LYP) =  -2243.16367916     A.U. after    8 cycles
 SCF Done:  E(RB3LYP) =  -2243.16367925     A.U. after    7 cycles
 SCF Done:  E(RB3LYP) =  -2243.16367926     A.U. after    6 cycles
 SCF Done:  E(RB3LYP) =  -2243.16367925     A.U. after    6 cycles
 Optimization completed.
    -- Stationary point found.

                         Standard orientation:
 ---------------------------------------------------------------------
 Center     Atomic      Atomic             Coordinates (Angstroms)
 Number     Number       Type             X           Y           Z
 ---------------------------------------------------------------------
      1          6           0       -0.798139    5.068840   -4.847474
      2          6           0       -1.539343    3.916914   -4.577776
      3          6           0       -1.331144    3.208518   -3.395295
      4          6           0       -0.376765    3.638718   -2.458604
      5          6           0       -0.158231    2.883153   -1.198148
      6          6           0        0.048256    3.554014    0.017960
      7          6           0        0.235987    2.864796    1.227045
      8          6           0        0.435303    3.601468    2.501894
      9          6           0       -0.154013    3.148247    3.693831
     10          6           0        0.031748    3.839412    4.890068
     11          6           0        0.810425    4.997754    4.919361
     12          6           0        1.401933    5.459366    3.742123
     13          6           0        1.215936    4.768370    2.545844
     14          6           0        0.214162    1.461443    1.203939
     15          6           0        0.011374    0.781314    0.002613
     16          7           0        0.001265   -0.645188   -0.006333
     17          6           0        1.142773   -1.467408   -0.044967
     18          6           0        0.698838   -2.812117   -0.018757
     19          6           0        1.597529   -3.890262   -0.024813
     20          6           0        2.957928   -3.651018   -0.044744
     21          6           0        3.394132   -2.317181   -0.078616
     22          6           0        2.533829   -1.179874   -0.111458
     23          6           0        3.412400   -0.016386   -0.227778
     24          6           0        3.238114    1.373006   -0.345199
     25          6           0        4.345407    2.211134   -0.431687
     26          6           0        5.650070    1.696171   -0.400937
     27          6           0        5.865336    0.326483   -0.302079
     28          6           0        4.747592   -0.509850   -0.233196
     29          7           0        4.723214   -1.896594   -0.139211
     30          6           0        5.864653   -2.745260   -0.114873
     31          6           0        6.757854   -2.750525   -1.193310
     32          6           0        7.883870   -3.573201   -1.160385
     33          6           0        8.115658   -4.406387   -0.064211
     34          6           0        7.219373   -4.407330    1.006633
     35          6           0        6.101215   -3.573853    0.989043
     36          6           0       -0.739641   -2.797620    0.014073
     37          6           0       -1.660076   -3.857147    0.022688
     38          6           0       -3.015488   -3.590417    0.039256
     39          6           0       -3.424705   -2.247961    0.066562
     40          6           0       -2.541614   -1.128091    0.097646
     41          6           0       -3.397237    0.053688    0.204650
     42          6           0       -3.196701    1.440553    0.316605
     43          6           0       -4.287601    2.301548    0.391077
     44          6           0       -5.601870    1.811962    0.355055
     45          6           0       -5.843421    0.446056    0.263274
     46          6           0       -4.742289   -0.412924    0.205665
     47          7           0       -4.745432   -1.800364    0.119395
     48          6           0       -5.903739   -2.625839    0.093448
     49          6           0       -6.803335   -2.605940    1.166398
     50          6           0       -7.945760   -3.405599    1.131845
     51          6           0       -8.188019   -4.240975    0.039621
     52          6           0       -7.285520   -4.267186   -1.025667
     53          6           0       -6.150673   -3.456626   -1.006567
     54          6           0       -1.156294   -1.444123    0.035268
     55          6           0       -0.171260    1.479568   -1.191462
     56          6           0        0.360697    4.800125   -2.741481
     57          6           0        0.152631    5.507942   -3.924274
     58          1           0       -0.960290    5.620281   -5.769627
     59          1           0       -2.288777    3.572387   -5.285334
     60          1           0       -1.933546    2.330628   -3.179286
     61          1           0        0.011107    4.639098    0.031658
     62          1           0       -0.783993    2.263304    3.676162
     63          1           0       -0.440060    3.476119    5.799144
     64          1           0        0.955557    5.536060    5.852027
     65          1           0        2.017670    6.354805    3.755794
     66          1           0        1.702713    5.120243    1.640466
     67          1           0        0.376362    0.891192    2.112530
     68          1           0        1.222303   -4.909786   -0.010015
     69          1           0        3.673301   -4.465527   -0.050527
     70          1           0        2.251765    1.806834   -0.378044
     71          1           0        4.191704    3.282854   -0.523842
     72          1           0        6.501221    2.369341   -0.458815
     73          1           0        6.868920   -0.085284   -0.279604
     74          1           0        6.559162   -2.115606   -2.051157
     75          1           0        8.574048   -3.571012   -1.999643
     76          1           0        8.989689   -5.051368   -0.044476
     77          1           0        7.395938   -5.049344    1.865319
     78          1           0        5.410498   -3.553522    1.826302
     79          1           0       -1.305584   -4.884112    0.012051
     80          1           0       -3.747144   -4.390310    0.046339
     81          1           0       -2.202814    1.856162    0.355129
     82          1           0       -4.112164    3.370188    0.477939
     83          1           0       -6.439883    2.502103    0.403680
     84          1           0       -6.854808    0.053984    0.237553
     85          1           0       -6.596885   -1.969706    2.021431
     86          1           0       -8.640754   -3.383832    1.966833
     87          1           0       -9.074915   -4.868092    0.018664
     88          1           0       -7.469971   -4.911124   -1.881243
     89          1           0       -5.454595   -3.456196   -1.839621
     90          1           0       -0.303280    0.923888   -2.113853
     91          1           0        1.120757    5.134703   -2.040680
     92          1           0        0.740538    6.398888   -4.128597
 ---------------------------------------------------------------------

 The electronic state is 1-A.
 Alpha  occ. eigenvalues --  -14.37624 -14.37333 -14.37248 -10.23558 -10.23478
 Alpha  occ. eigenvalues --  -10.23373 -10.22099 -10.22067 -10.21676 -10.21607
 Alpha  occ. eigenvalues --  -10.21461 -10.21364 -10.21004 -10.20981 -10.20228
 Alpha  occ. eigenvalues --  -10.20189 -10.19930 -10.19883 -10.19875 -10.19810
 Alpha  occ. eigenvalues --  -10.19801 -10.19771 -10.19764 -10.19750 -10.19734
 Alpha  occ. eigenvalues --  -10.19698 -10.19693 -10.19687 -10.19627 -10.19259
 Alpha  occ. eigenvalues --  -10.19248 -10.19216 -10.19200 -10.19192 -10.19162
 Alpha  occ. eigenvalues --  -10.19153 -10.19119 -10.19119 -10.19062 -10.18968
 Alpha  occ. eigenvalues --  -10.18891 -10.18478 -10.18355 -10.17966 -10.17922
 Alpha  occ. eigenvalues --  -10.17832 -10.17745 -10.17739 -10.17673 -10.17444
 Alpha  occ. eigenvalues --  -10.17397 -10.17394 -10.17304 -10.17193 -10.17146
 Alpha  occ. eigenvalues --  -10.17014 -10.16975  -0.98501  -0.98332  -0.97631
 Alpha  occ. eigenvalues --   -0.88052  -0.86509  -0.86401  -0.85876  -0.85069
 Alpha  occ. eigenvalues --   -0.83350  -0.83203  -0.82945  -0.82869  -0.79132
 Alpha  occ. eigenvalues --   -0.78926  -0.77551  -0.77496  -0.75438  -0.75355
 Alpha  occ. eigenvalues --   -0.74784  -0.74694  -0.74623  -0.74588  -0.74181
 Alpha  occ. eigenvalues --   -0.73300  -0.72621  -0.72167  -0.71581  -0.70941
 Alpha  occ. eigenvalues --   -0.69881  -0.69232  -0.64412  -0.63704  -0.63664
 Alpha  occ. eigenvalues --   -0.63468  -0.62287  -0.61687  -0.61558  -0.60851
 Alpha  occ. eigenvalues --   -0.60524  -0.60387  -0.60045  -0.59160  -0.58035
 Alpha  occ. eigenvalues --   -0.57646  -0.57226  -0.57155  -0.55698  -0.55533
 Alpha  occ. eigenvalues --   -0.54015  -0.53875  -0.52318  -0.51267  -0.51144
 Alpha  occ. eigenvalues --   -0.51021  -0.49994  -0.49785  -0.49716  -0.49201
 Alpha  occ. eigenvalues --   -0.48370  -0.47645  -0.47170  -0.46637  -0.46598
 Alpha  occ. eigenvalues --   -0.46547  -0.45848  -0.45703  -0.45122  -0.45020
 Alpha  occ. eigenvalues --   -0.44738  -0.44213  -0.44014  -0.43935  -0.43396
 Alpha  occ. eigenvalues --   -0.42955  -0.42869  -0.42736  -0.42649  -0.42473
 Alpha  occ. eigenvalues --   -0.42142  -0.42094  -0.41984  -0.41730  -0.41458
 Alpha  occ. eigenvalues --   -0.41244  -0.41141  -0.40808  -0.40051  -0.39500
 Alpha  occ. eigenvalues --   -0.39111  -0.37973  -0.37695  -0.37531  -0.37234
 Alpha  occ. eigenvalues --   -0.36981  -0.36889  -0.36626  -0.36474  -0.35942
 Alpha  occ. eigenvalues --   -0.35675  -0.35560  -0.35504  -0.35243  -0.35180
 Alpha  occ. eigenvalues --   -0.34831  -0.34526  -0.34263  -0.33911  -0.33830
 Alpha  occ. eigenvalues --   -0.33716  -0.33563  -0.32910  -0.32376  -0.31939
 Alpha  occ. eigenvalues --   -0.30868  -0.30152  -0.28495  -0.27456  -0.27073
 Alpha  occ. eigenvalues --   -0.26935  -0.25869  -0.25794  -0.25544  -0.25337
 Alpha  occ. eigenvalues --   -0.25177  -0.25149  -0.23767  -0.23437  -0.23158
 Alpha  occ. eigenvalues --   -0.22571  -0.20375  -0.20221  -0.18022  -0.16993
 Alpha virt. eigenvalues --   -0.03875  -0.03048  -0.01800  -0.01645  -0.01223
 Alpha virt. eigenvalues --   -0.01069  -0.00917  -0.00840  -0.00303  -0.00245
 Alpha virt. eigenvalues --    0.00752   0.01588   0.02606   0.03262   0.03439

 Mulliken charges:
               1
     1  C   -0.124553
     2  C   -0.134248
     3  C   -0.173308
     4  C    0.088642
     5  C    0.090807
     6  C   -0.232819
     7  C    0.090982
     8  C    0.091204
     9  C   -0.172726
    10  C   -0.133931
    11  C   -0.124526
    12  C   -0.133922
    13  C   -0.169528
    14  C   -0.183974
    15  C    0.210875
    16  N   -0.786658
    17  C    0.214084
    18  C    0.065668
    19  C   -0.215352
    20  C   -0.198657
    21  C    0.309959
    22  C    0.042982
    23  C    0.065585
    24  C   -0.180578
    25  C   -0.155093
    26  C   -0.142594
    27  C   -0.180276
    28  C    0.302120
    29  N   -0.727339
    30  C    0.250256
    31  C   -0.143309
    32  C   -0.143563
    33  C   -0.120587
    34  C   -0.143503
    35  C   -0.141664
    36  C    0.065549
    37  C   -0.215294
    38  C   -0.199226
    39  C    0.309633
    40  C    0.042264
    41  C    0.064347
    42  C   -0.190042
    43  C   -0.156689
    44  C   -0.143625
    45  C   -0.180740
    46  C    0.301487
    47  N   -0.726931
    48  C    0.250613
    49  C   -0.143348
    50  C   -0.143499
    51  C   -0.120593
    52  C   -0.143474
    53  C   -0.141863
    54  C    0.213658
    55  C   -0.186534
    56  C   -0.170400
    57  C   -0.134098
    58  H    0.131779
    59  H    0.134707
    60  H    0.146928
    61  H    0.143873
    62  H    0.142153
    63  H    0.134305
    64  H    0.131941
    65  H    0.132379
    66  H    0.131460
    67  H    0.154353
    68  H    0.125923
    69  H    0.136494
    70  H    0.141026
    71  H    0.112528
    72  H    0.121202
    73  H    0.135703
    74  H    0.152891
    75  H    0.137505
    76  H    0.134106
    77  H    0.137594
    78  H    0.152816
    79  H    0.126257
    80  H    0.136504
    81  H    0.143328
    82  H    0.120525
    83  H    0.122397
    84  H    0.135902
    85  H    0.152475
    86  H    0.137658
    87  H    0.134365
    88  H    0.137763
    89  H    0.152534
    90  H    0.154085
    91  H    0.130764
    92  H    0.132128
 Sum of Mulliken charges =  -0.00000

 Dipole moment (field-independent basis, Debye):
    X=             -0.1014    Y=             -0.1743    Z=              0.0505  Tot=              0.2079
 Quadrupole moment (field-independent basis, Debye-Ang):
   XX=           -281.2545   YY=           -289.0443   ZZ=           -307.6585
   XY=              4.9914   XZ=             -0.5561   YZ=             -0.7928

 1\1\GINC-NODE63\FOpt\RB3LYP\6-31G(d)\C54H35N3\WYKGROUP\05-Nov-2022\0\\
 #p b3lyp/6-31g(d) opt SCF=XQC\\Gaussian input prepared by ASE\\0,1\C,-
 0.4494400884,4.8357512793,-5.0183136794\C,-1.2933470281,3.7755155248,-
 4.6824924906\C,-1.1199292436,3.0938060227,-3.4789013091\C,-0.098236214
 2,3.4594583828,-2.586857052\C,0.0831969435,2.7326862566,-1.3037869649\
 C,0.3940214478,3.4236183428,-0.1215811646\C,0.5498429902,2.7640290054,
 1.1083828015\C,0.8619753821,3.5232836131,2.3468331078\C,0.268119575,3.
 1763445751,3.5717356901\C,0.5597395303,3.88882677,4.733856838\C,1.4509

 Normal termination of Gaussian 16 at Sat Nov  5 02:15:33 2022.
