 Gaussian 16, Revision B.01,
 Gaussian 16:  ES64L-G16RevB.01 20-Dec-2017

 -------------------------------------------------------------------
 #p b3lyp/6-31g(d) 6D 10F nosymm GFInput td=(50-50,nstate=2) SCF=XQC
 -------------------------------------------------------------------

 ------------------------------
 Gaussian input prepared by ASE
 ------------------------------
 Symbolic Z-matrix:
 Charge =  0 Multiplicity = 1

                          Input orientation:
 ---------------------------------------------------------------------
 Center     Atomic      Atomic             Coordinates (Angstroms)
 Number     Number       Type             X           Y           Z
 ---------------------------------------------------------------------
      1          6           0       11.729718   -0.206823   -1.731691
      2          6           0       10.741802    0.336901   -2.574000
      3          6           0        9.432357    0.439653   -2.141094
      4          6           0        9.046503    0.005957   -0.850844
      5          6           0       10.053139   -0.542952   -0.000415
      6          6           0       11.384983   -0.637954   -0.465982
      7          6           0        9.704292   -0.992843    1.317027
      8          6           0        8.428449   -0.903111    1.777984
      9          6           0        7.383310   -0.354645    0.961021
     10          6           0        6.063378   -0.260657    1.455321
     11          6           0        5.030308    0.251396    0.681546
     12          6           0        3.625760    0.302442    1.166591
     13          7           0        2.708916   -0.085796    0.295899
     14          6           0        1.410477   -0.119498    0.691647
     15          7           0        0.487204   -0.521389   -0.279149
     16          6           0        0.785685   -1.117667   -1.539517
     17          6           0        2.003909   -1.509305   -2.104722
     18          6           0        1.980950   -2.103645   -3.367728
     19          6           0        0.785205   -2.311167   -4.067565
     20          6           0       -0.426069   -1.928373   -3.499559
     21          6           0       -0.425464   -1.336111   -2.234629
     22          6           0       -1.507622   -0.866434   -1.394300
     23          6           0       -2.872291   -0.831428   -1.586447
     24          6           0       -3.713224   -0.303960   -0.577486
     25          6           0       -5.123636   -0.233260   -0.735624
     26          6           0       -5.925234    0.278797    0.262682
     27          7           0       -7.337894    0.324074    0.106155
     28          6           0       -8.132462    1.470380    0.207848
     29          6           0       -7.750247    2.797252    0.426216
     30          6           0       -8.754072    3.762561    0.466559
     31          6           0      -10.106176    3.422159    0.287459
     32          6           0      -10.478996    2.101138    0.056442
     33          6           0       -9.490735    1.110766    0.011772
     34          6           0       -9.516188   -0.318635   -0.217569
     35          6           0      -10.541796   -1.241020   -0.456691
     36          6           0      -10.221108   -2.585444   -0.619877
     37          6           0       -8.885241   -3.016048   -0.540168
     38          6           0       -7.845191   -2.119374   -0.305396
     39          6           0       -8.172323   -0.769049   -0.153248
     40          6           0       -5.340695    0.756171    1.468913
     41          6           0       -3.978095    0.715983    1.639368
     42          6           0       -3.118814    0.188353    0.635237
     43          6           0       -1.713315    0.141342    0.823375
     44          6           0       -0.922568   -0.377965   -0.181536
     45          7           0        0.958723    0.177452    1.895959
     46          6           0        1.870174    0.632986    2.796505
     47          6           0        1.422027    1.014118    4.088409
     48          6           0        2.309407    1.529245    5.006396
     49          6           0        3.675262    1.697631    4.675178
     50          6           0        4.141380    1.316431    3.435503
     51          6           0        3.259098    0.749363    2.479642
     52          6           0        5.322703    0.670749   -0.638526
     53          6           0        6.608323    0.603783   -1.133913
     54          6           0        7.678964    0.095559   -0.359595
     55          1           0       12.756892   -0.285489   -2.076728
     56          1           0       11.007612    0.678971   -3.570408
     57          1           0        8.694602    0.865128   -2.812738
     58          1           0       12.138459   -1.059347    0.195269
     59          1           0       10.489144   -1.409369    1.943631
     60          1           0        8.176049   -1.246298    2.778273
     61          1           0        5.861166   -0.635689    2.454616
     62          1           0        2.935065   -1.350524   -1.583817
     63          1           0        2.923015   -2.410901   -3.814036
     64          1           0        0.803848   -2.773788   -5.050213
     65          1           0       -1.362486   -2.090971   -4.026463
     66          1           0       -3.312238   -1.202619   -2.508728
     67          1           0       -5.572099   -0.580910   -1.662034
     68          1           0       -6.707447    3.068551    0.554154
     69          1           0       -8.482059    4.800951    0.636283
     70          1           0      -10.864614    4.199022    0.325225
     71          1           0      -11.524020    1.841149   -0.091828
     72          1           0      -11.575985   -0.910408   -0.509758
     73          1           0      -11.008406   -3.310174   -0.807202
     74          1           0       -8.655371   -4.071176   -0.662346
     75          1           0       -6.817022   -2.459149   -0.238267
     76          1           0       -5.987887    1.138100    2.252095
     77          1           0       -3.535907    1.080116    2.563411
     78          1           0       -1.280337    0.495897    1.746388
     79          1           0        0.367251    0.898255    4.316063
     80          1           0        1.957092    1.826434    5.990558
     81          1           0        4.355295    2.136713    5.399280
     82          1           0        5.182918    1.468498    3.176407
     83          1           0        4.516561    1.052522   -1.256159
     84          1           0        6.787956    0.948417   -2.146373
 ---------------------------------------------------------------------

 SCF Done:  E(RB3LYP) =  -2142.51555254     A.U. after   16 cycles

 Excitation energies and oscillator strengths:

 Excited state symmetry could not be determined.
 Excited State   1:      Triplet-?Sym    2.3221 eV  533.93 nm  f=0.0000  <S**2>=2.000
     176 ->180         0.14733
     176 ->181         0.12014
     178 ->180        -0.25587
     178 ->181         0.26949
     179 ->180         0.39829
     179 ->181        -0.31349
 This state for optimization and/or second-order correction.
 Total Energy, E(TD-HF/TD-DFT) =  -2142.43021614
 Copying the excited state density for this state as the 1-particle RhoCI density.

 Excited state symmetry could not be determined.
 Excited State   2:      Triplet-?Sym    2.4091 eV  514.66 nm  f=0.0000  <S**2>=2.000
     174 ->180         0.13777
     176 ->180         0.13459
     176 ->181        -0.15525
     178 ->180        -0.24065
     178 ->181        -0.31070
     179 ->180         0.32375
     179 ->181         0.34713

 Excited state symmetry could not be determined.
 Excited State   3:      Singlet-?Sym    2.6125 eV  474.59 nm  f=0.0592  <S**2>=0.000
     178 ->180        -0.20394
     179 ->180         0.67298

 Excited state symmetry could not be determined.
 Excited State   4:      Singlet-?Sym    2.9474 eV  420.66 nm  f=0.0069  <S**2>=0.000
     178 ->180         0.67216
     179 ->180         0.20453

 Alpha  occ. eigenvalues --  -14.39537 -14.37464 -14.34269 -14.33396 -10.30099
 Alpha  occ. eigenvalues --  -10.26210 -10.24340 -10.23054 -10.23046 -10.23028
 Alpha  occ. eigenvalues --  -10.21697 -10.21682 -10.21550 -10.21370 -10.21345
 Alpha  occ. eigenvalues --  -10.21077 -10.21071 -10.21047 -10.20970 -10.20777
 Alpha  occ. eigenvalues --  -10.20678 -10.20548 -10.20227 -10.20161 -10.20134
 Alpha  occ. eigenvalues --  -10.20111 -10.20057 -10.19982 -10.19952 -10.19903
 Alpha  occ. eigenvalues --  -10.19896 -10.19867 -10.19808 -10.19662 -10.19257
 Alpha  occ. eigenvalues --  -10.19231 -10.19218 -10.19192 -10.19187 -10.19076
 Alpha  occ. eigenvalues --  -10.18777 -10.18518 -10.18507 -10.18413 -10.18198
 Alpha  occ. eigenvalues --  -10.18172 -10.18165 -10.18112 -10.18103 -10.18087
 Alpha  occ. eigenvalues --  -10.18056 -10.18048 -10.17536 -10.17499  -1.02042
 Alpha  occ. eigenvalues --   -0.98195  -0.96589  -0.90782  -0.89023  -0.87534
 Alpha  occ. eigenvalues --   -0.86767  -0.85588  -0.84577  -0.84429  -0.83577
 Alpha  occ. eigenvalues --   -0.82028  -0.81633  -0.79466  -0.78499  -0.77658
 Alpha  occ. eigenvalues --   -0.76857  -0.76704  -0.76483  -0.75619  -0.74348
 Alpha  occ. eigenvalues --   -0.74121  -0.73652  -0.73237  -0.72692  -0.71240
 Alpha  occ. eigenvalues --   -0.70814  -0.70668  -0.68051  -0.66542  -0.64738
 Alpha  occ. eigenvalues --   -0.63817  -0.63494  -0.63317  -0.62338  -0.61526
 Alpha  occ. eigenvalues --   -0.60877  -0.60600  -0.59792  -0.59151  -0.58990
 Alpha  occ. eigenvalues --   -0.57961  -0.57751  -0.56659  -0.55495  -0.55183
 Alpha  occ. eigenvalues --   -0.53827  -0.53410  -0.53041  -0.51836  -0.51458
 Alpha  occ. eigenvalues --   -0.50848  -0.50556  -0.50227  -0.49626  -0.48753
 Alpha  occ. eigenvalues --   -0.48618  -0.47947  -0.47171  -0.46451  -0.46236
 Alpha  occ. eigenvalues --   -0.45584  -0.45316  -0.44927  -0.44781  -0.44607
 Alpha  occ. eigenvalues --   -0.44499  -0.44254  -0.43912  -0.43744  -0.43434
 Alpha  occ. eigenvalues --   -0.43232  -0.42896  -0.42765  -0.42291  -0.41967
 Alpha  occ. eigenvalues --   -0.41906  -0.41736  -0.41638  -0.41214  -0.40859
 Alpha  occ. eigenvalues --   -0.40666  -0.40417  -0.40197  -0.38778  -0.38398
 Alpha  occ. eigenvalues --   -0.38264  -0.37970  -0.37278  -0.37105  -0.36916
 Alpha  occ. eigenvalues --   -0.36759  -0.36443  -0.35960  -0.35713  -0.35562
 Alpha  occ. eigenvalues --   -0.34578  -0.34422  -0.34357  -0.34187  -0.33580
 Alpha  occ. eigenvalues --   -0.33500  -0.33278  -0.33103  -0.32714  -0.32131
 Alpha  occ. eigenvalues --   -0.31970  -0.30978  -0.30768  -0.29204  -0.28547
 Alpha  occ. eigenvalues --   -0.27416  -0.27139  -0.27022  -0.26356  -0.25510
 Alpha  occ. eigenvalues --   -0.25064  -0.24382  -0.23742  -0.22945  -0.22248
 Alpha  occ. eigenvalues --   -0.21593  -0.20526  -0.19913  -0.18633
 Alpha virt. eigenvalues --   -0.07724  -0.04856  -0.04848  -0.03912  -0.03499
 Alpha virt. eigenvalues --   -0.01946  -0.01204  -0.00341   0.00476   0.01412
 Alpha virt. eigenvalues --    0.01596   0.01824   0.03261   0.03911   0.04629

 Mulliken charges:
               1
     1  C   -0.126006
     2  C   -0.138412
     3  C   -0.184689
     4  C    0.057021
     5  C    0.144881
     6  C   -0.206450
     7  C   -0.193930
     8  C   -0.190745
     9  C    0.142375
    10  C   -0.272922
    11  C    0.109675
    12  C    0.202372
    13  N   -0.553254
    14  C    0.695070
    15  N   -0.773432
    16  C    0.310059
    17  C   -0.149777
    18  C   -0.143705
    19  C   -0.140177
    20  C   -0.192769
    21  C    0.049994
    22  C    0.072496
    23  C   -0.292298
    24  C    0.137237
    25  C   -0.233505
    26  C    0.260155
    27  N   -0.733288
    28  C    0.311987
    29  C   -0.177066
    30  C   -0.142481
    31  C   -0.145164
    32  C   -0.197780
    33  C    0.059248
    34  C    0.059063
    35  C   -0.197794
    36  C   -0.145219
    37  C   -0.142591
    38  C   -0.176272
    39  C    0.312695
    40  C   -0.155133
    41  C   -0.208616
    42  C    0.147660
    43  C   -0.236731
    44  C    0.319636
    45  N   -0.581653
    46  C    0.279140
    47  C   -0.158152
    48  C   -0.127813
    49  C   -0.139342
    50  C   -0.198056
    51  C    0.106764
    52  C   -0.161524
    53  C   -0.196934
    54  C    0.068370
    55  H    0.134690
    56  H    0.134270
    57  H    0.137263
    58  H    0.133374
    59  H    0.134764
    60  H    0.133986
    61  H    0.147726
    62  H    0.175583
    63  H    0.129159
    64  H    0.127612
    65  H    0.132504
    66  H    0.134841
    67  H    0.146771
    68  H    0.140610
    69  H    0.124768
    70  H    0.121749
    71  H    0.127893
    72  H    0.127701
    73  H    0.121688
    74  H    0.124989
    75  H    0.140044
    76  H    0.148277
    77  H    0.133456
    78  H    0.173419
    79  H    0.147627
    80  H    0.142398
    81  H    0.139376
    82  H    0.155627
    83  H    0.153994
    84  H    0.141623
 Sum of Mulliken charges =  -0.00000

 Dipole moment (field-independent basis, Debye):
    X=              6.6256    Y=              0.6843    Z=              1.3337  Tot=              6.7931
 Quadrupole moment (field-independent basis, Debye-Ang):
   XX=           -275.3704   YY=           -302.1015   ZZ=           -279.3000
   XY=              0.5516   XZ=              4.2500   YZ=              7.8698

 Normal termination of Gaussian 16 at Sat Nov  5 11:02:54 2022.
