 Gaussian 16, Revision B.01,
 Gaussian 16:  ES64L-G16RevB.01 20-Dec-2017

 -----------------------------
 #p b3lyp/6-31g(d) opt SCF=XQC
 -----------------------------

 ------------------------------
 Gaussian input prepared by ASE
 ------------------------------
 Symbolic Z-matrix:
 Charge =  0 Multiplicity = 1

 SCF Done:  E(RB3LYP) =  -2142.50475372     A.U. after   16 cycles
 SCF Done:  E(RB3LYP) =  -2142.51486050     A.U. after   12 cycles
 SCF Done:  E(RB3LYP) =  -2142.51530475     A.U. after   12 cycles
 SCF Done:  E(RB3LYP) =  -2142.51538863     A.U. after   12 cycles
 SCF Done:  E(RB3LYP) =  -2142.51549768     A.U. after   10 cycles
 SCF Done:  E(RB3LYP) =  -2142.51552090     A.U. after   11 cycles
 SCF Done:  E(RB3LYP) =  -2142.51553419     A.U. after   10 cycles
 SCF Done:  E(RB3LYP) =  -2142.51554405     A.U. after   10 cycles
 SCF Done:  E(RB3LYP) =  -2142.51554958     A.U. after   10 cycles
 SCF Done:  E(RB3LYP) =  -2142.51555076     A.U. after    9 cycles
 SCF Done:  E(RB3LYP) =  -2142.51555127     A.U. after    9 cycles
 SCF Done:  E(RB3LYP) =  -2142.51555133     A.U. after    7 cycles
 Optimization completed.
    -- Stationary point found.

                         Standard orientation:
 ---------------------------------------------------------------------
 Center     Atomic      Atomic             Coordinates (Angstroms)
 Number     Number       Type             X           Y           Z
 ---------------------------------------------------------------------
      1          6           0      -11.765493   -1.599844    0.972435
      2          6           0      -10.762069   -2.086259    1.831294
      3          6           0       -9.451977   -1.668431    1.684016
      4          6           0       -9.080879   -0.748058    0.675591
      5          6           0      -10.103169   -0.256848   -0.191290
      6          6           0      -11.435360   -0.699416   -0.021032
      7          6           0       -9.769545    0.679922   -1.226135
      8          6           0       -8.493450    1.116398   -1.397538
      9          6           0       -7.432789    0.654002   -0.547980
     10          6           0       -6.112626    1.121391   -0.732653
     11          6           0       -5.065045    0.679507    0.064513
     12          6           0       -3.661288    1.117438   -0.155285
     13          7           0       -2.751128    0.159411   -0.098482
     14          6           0       -1.455181    0.479243   -0.347337
     15          7           0       -0.538589   -0.573208   -0.254597
     16          6           0       -0.847092   -1.962488   -0.165727
     17          6           0       -2.072466   -2.635818   -0.210339
     18          6           0       -2.059566   -4.029241   -0.125761
     19          6           0       -0.866825   -4.753045    0.001204
     20          6           0        0.351381   -4.081443    0.036872
     21          6           0        0.360772   -2.687520   -0.050956
     22          6           0        1.451079   -1.734216   -0.066908
     23          6           0        2.816822   -1.897698    0.025213
     24          6           0        3.666802   -0.766651   -0.015562
     25          6           0        5.079016   -0.883560    0.090501
     26          6           0        5.889338    0.231082    0.042213
     27          7           0        7.303187    0.103364    0.125159
     28          6           0        8.124623    0.735953    1.063653
     29          6           0        7.773557    1.567672    2.131059
     30          6           0        8.800061    2.057767    2.935553
     31          6           0       10.144214    1.725651    2.692480
     32          6           0       10.486070    0.885723    1.636488
     33          6           0        9.474540    0.379668    0.811741
     34          6           0        9.466532   -0.507824   -0.332255
     35          6           0       10.470553   -1.169131   -1.049513
     36          6           0       10.118319   -1.954828   -2.142928
     37          6           0        8.772272   -2.080108   -2.528644
     38          6           0        7.753211   -1.434833   -1.831520
     39          6           0        8.112066   -0.656042   -0.727776
     40          6           0        5.312410    1.523385   -0.105000
     41          6           0        3.948684    1.665332   -0.191299
     42          6           0        3.080341    0.538603   -0.152570
     43          6           0        1.673507    0.693156   -0.252372
     44          6           0        0.873881   -0.430852   -0.207516
     45          7           0       -1.000432    1.674357   -0.675256
     46          6           0       -1.903688    2.690828   -0.687496
     47          6           0       -1.450819    4.003219   -0.983557
     48          6           0       -2.328642    5.063388   -0.952454
     49          6           0       -3.688974    4.865389   -0.614943
     50          6           0       -4.159985    3.598938   -0.343607
     51          6           0       -3.288375    2.480658   -0.401964
     52          6           0       -5.342955   -0.274713    1.072566
     53          6           0       -6.628167   -0.730380    1.280682
     54          6           0       -7.713218   -0.285860    0.487462
     55          1           0      -12.793111   -1.931456    1.092279
     56          1           0      -11.016321   -2.793873    2.615599
     57          1           0       -8.702034   -2.059739    2.362898
     58          1           0      -12.200887   -0.315129   -0.690990
     59          1           0      -10.566208    1.036421   -1.874484
     60          1           0       -8.252643    1.826995   -2.184383
     61          1           0       -5.922751    1.816263   -1.545813
     62          1           0       -3.001271   -2.094648   -0.300126
     63          1           0       -3.007236   -4.560142   -0.159687
     64          1           0       -0.893288   -5.836949    0.067647
     65          1           0        1.285374   -4.629753    0.126074
     66          1           0        3.250804   -2.888701    0.132501
     67          1           0        5.522089   -1.866958    0.220223
     68          1           0        6.737132    1.819082    2.331108
     69          1           0        8.552421    2.707402    3.770838
     70          1           0       10.920900    2.125143    3.338495
     71          1           0       11.525056    0.621886    1.456068
     72          1           0       11.512529   -1.065881   -0.757462
     73          1           0       10.888660   -2.473779   -2.706336
     74          1           0        8.517618   -2.691755   -3.390099
     75          1           0        6.716989   -1.530197   -2.138492
     76          1           0        5.965967    2.388179   -0.160647
     77          1           0        3.512287    2.654513   -0.305571
     78          1           0        1.246092    1.676757   -0.374757
     79          1           0       -0.399876    4.138250   -1.218268
     80          1           0       -1.972569    6.066348   -1.172235
     81          1           0       -4.360692    5.717193   -0.562136
     82          1           0       -5.196722    3.453588   -0.062353
     83          1           0       -4.525871   -0.640206    1.685651
     84          1           0       -6.796153   -1.451586    2.072995
 ---------------------------------------------------------------------

 The electronic state is 1-A.
 Alpha  occ. eigenvalues --  -14.39537 -14.37464 -14.34269 -14.33396 -10.30099
 Alpha  occ. eigenvalues --  -10.26210 -10.24340 -10.23054 -10.23046 -10.23028
 Alpha  occ. eigenvalues --  -10.21697 -10.21682 -10.21550 -10.21370 -10.21345
 Alpha  occ. eigenvalues --  -10.21077 -10.21071 -10.21047 -10.20970 -10.20777
 Alpha  occ. eigenvalues --  -10.20678 -10.20548 -10.20226 -10.20161 -10.20134
 Alpha  occ. eigenvalues --  -10.20111 -10.20057 -10.19982 -10.19952 -10.19904
 Alpha  occ. eigenvalues --  -10.19896 -10.19867 -10.19808 -10.19663 -10.19258
 Alpha  occ. eigenvalues --  -10.19231 -10.19219 -10.19192 -10.19188 -10.19076
 Alpha  occ. eigenvalues --  -10.18777 -10.18518 -10.18507 -10.18414 -10.18198
 Alpha  occ. eigenvalues --  -10.18172 -10.18165 -10.18112 -10.18103 -10.18087
 Alpha  occ. eigenvalues --  -10.18056 -10.18048 -10.17536 -10.17499  -1.02042
 Alpha  occ. eigenvalues --   -0.98195  -0.96589  -0.90782  -0.89023  -0.87534
 Alpha  occ. eigenvalues --   -0.86767  -0.85588  -0.84577  -0.84429  -0.83577
 Alpha  occ. eigenvalues --   -0.82028  -0.81633  -0.79466  -0.78499  -0.77658
 Alpha  occ. eigenvalues --   -0.76857  -0.76704  -0.76483  -0.75619  -0.74348
 Alpha  occ. eigenvalues --   -0.74121  -0.73652  -0.73237  -0.72692  -0.71240
 Alpha  occ. eigenvalues --   -0.70814  -0.70668  -0.68050  -0.66542  -0.64738
 Alpha  occ. eigenvalues --   -0.63817  -0.63494  -0.63317  -0.62338  -0.61526
 Alpha  occ. eigenvalues --   -0.60877  -0.60600  -0.59792  -0.59151  -0.58990
 Alpha  occ. eigenvalues --   -0.57961  -0.57751  -0.56659  -0.55495  -0.55183
 Alpha  occ. eigenvalues --   -0.53827  -0.53410  -0.53041  -0.51836  -0.51458
 Alpha  occ. eigenvalues --   -0.50848  -0.50556  -0.50227  -0.49626  -0.48753
 Alpha  occ. eigenvalues --   -0.48618  -0.47947  -0.47171  -0.46451  -0.46236
 Alpha  occ. eigenvalues --   -0.45584  -0.45316  -0.44927  -0.44781  -0.44607
 Alpha  occ. eigenvalues --   -0.44499  -0.44254  -0.43912  -0.43744  -0.43434
 Alpha  occ. eigenvalues --   -0.43232  -0.42896  -0.42765  -0.42291  -0.41967
 Alpha  occ. eigenvalues --   -0.41906  -0.41736  -0.41638  -0.41214  -0.40859
 Alpha  occ. eigenvalues --   -0.40666  -0.40417  -0.40197  -0.38778  -0.38398
 Alpha  occ. eigenvalues --   -0.38264  -0.37970  -0.37278  -0.37106  -0.36916
 Alpha  occ. eigenvalues --   -0.36759  -0.36443  -0.35960  -0.35713  -0.35562
 Alpha  occ. eigenvalues --   -0.34578  -0.34422  -0.34357  -0.34187  -0.33580
 Alpha  occ. eigenvalues --   -0.33500  -0.33278  -0.33103  -0.32714  -0.32131
 Alpha  occ. eigenvalues --   -0.31970  -0.30978  -0.30768  -0.29204  -0.28547
 Alpha  occ. eigenvalues --   -0.27416  -0.27139  -0.27022  -0.26356  -0.25510
 Alpha  occ. eigenvalues --   -0.25063  -0.24382  -0.23742  -0.22946  -0.22248
 Alpha  occ. eigenvalues --   -0.21593  -0.20526  -0.19913  -0.18633
 Alpha virt. eigenvalues --   -0.07724  -0.04856  -0.04848  -0.03912  -0.03499
 Alpha virt. eigenvalues --   -0.01946  -0.01204  -0.00341   0.00476   0.01412
 Alpha virt. eigenvalues --    0.01596   0.01824   0.03261   0.03911   0.04629

 Mulliken charges:
               1
     1  C   -0.126014
     2  C   -0.138414
     3  C   -0.184675
     4  C    0.056990
     5  C    0.144903
     6  C   -0.206450
     7  C   -0.193924
     8  C   -0.190754
     9  C    0.142394
    10  C   -0.272949
    11  C    0.109693
    12  C    0.202390
    13  N   -0.553257
    14  C    0.695116
    15  N   -0.773476
    16  C    0.310059
    17  C   -0.149771
    18  C   -0.143711
    19  C   -0.140174
    20  C   -0.192758
    21  C    0.049993
    22  C    0.072491
    23  C   -0.292297
    24  C    0.137237
    25  C   -0.233503
    26  C    0.260128
    27  N   -0.733291
    28  C    0.312011
    29  C   -0.177082
    30  C   -0.142480
    31  C   -0.145163
    32  C   -0.197780
    33  C    0.059248
    34  C    0.059072
    35  C   -0.197789
    36  C   -0.145225
    37  C   -0.142592
    38  C   -0.176266
    39  C    0.312686
    40  C   -0.155117
    41  C   -0.208623
    42  C    0.147667
    43  C   -0.236744
    44  C    0.319629
    45  N   -0.581657
    46  C    0.279147
    47  C   -0.158150
    48  C   -0.127814
    49  C   -0.139342
    50  C   -0.198047
    51  C    0.106739
    52  C   -0.161528
    53  C   -0.196943
    54  C    0.068378
    55  H    0.134691
    56  H    0.134270
    57  H    0.137263
    58  H    0.133373
    59  H    0.134764
    60  H    0.133987
    61  H    0.147727
    62  H    0.175585
    63  H    0.129160
    64  H    0.127611
    65  H    0.132504
    66  H    0.134843
    67  H    0.146770
    68  H    0.140613
    69  H    0.124768
    70  H    0.121749
    71  H    0.127893
    72  H    0.127700
    73  H    0.121689
    74  H    0.124989
    75  H    0.140044
    76  H    0.148276
    77  H    0.133454
    78  H    0.173427
    79  H    0.147626
    80  H    0.142398
    81  H    0.139375
    82  H    0.155624
    83  H    0.153995
    84  H    0.141623
 Sum of Mulliken charges =  -0.00000

 Dipole moment (field-independent basis, Debye):
    X=             -6.6117    Y=              1.5553    Z=              0.1095  Tot=              6.7931
 Quadrupole moment (field-independent basis, Debye-Ang):
   XX=           -274.8571   YY=           -278.1128   ZZ=           -303.5171
   XY=             -3.6529   XZ=              0.4899   YZ=             -5.1986

 1\1\GINC-NODE75\FOpt\RB3LYP\6-31G(d)\C50H30N4\WYKGROUP\05-Nov-2022\0\\
 #p b3lyp/6-31g(d) opt SCF=XQC\\Gaussian input prepared by ASE\\0,1\C,1
 1.729717932,-0.2068231471,-1.7316909284\C,10.7418020633,0.3369010446,-
 2.573999816\C,9.4323569097,0.4396525028,-2.1410941568\C,9.0465031607,0
 .005957334,-0.8508435718\C,10.0531391741,-0.542952176,-0.0004151039\C,
 11.384983014,-0.6379542544,-0.4659820188\C,9.704292459,-0.9928428962,1
 .3170265406\C,8.4284494509,-0.9031105168,1.7779841914\C,7.3833101148,-
 0.3546448254,0.961021279\C,6.0633775785,-0.2606569538,1.455321301\C,5.

 Normal termination of Gaussian 16 at Sat Nov  5 01:26:11 2022.
