 Gaussian 16, Revision B.01,
 Gaussian 16:  ES64L-G16RevB.01 20-Dec-2017

 -----------------------------
 #p b3lyp/6-31g(d) opt SCF=XQC
 -----------------------------

 ------------------------------
 Gaussian input prepared by ASE
 ------------------------------
 Symbolic Z-matrix:
 Charge =  0 Multiplicity = 1

 SCF Done:  E(RB3LYP) =  -2506.30578492     A.U. after   16 cycles
 SCF Done:  E(RB3LYP) =  -2506.31789696     A.U. after   13 cycles
 SCF Done:  E(RB3LYP) =  -2506.31813499     A.U. after   12 cycles
 SCF Done:  E(RB3LYP) =  -2506.31922564     A.U. after   12 cycles
 SCF Done:  E(RB3LYP) =  -2506.31934059     A.U. after   12 cycles
 SCF Done:  E(RB3LYP) =  -2506.31943815     A.U. after   11 cycles
 SCF Done:  E(RB3LYP) =  -2506.31945313     A.U. after   10 cycles
 SCF Done:  E(RB3LYP) =  -2506.31945700     A.U. after    9 cycles
 SCF Done:  E(RB3LYP) =  -2506.31945774     A.U. after    9 cycles
 SCF Done:  E(RB3LYP) =  -2506.31945803     A.U. after    7 cycles
 SCF Done:  E(RB3LYP) =  -2506.31945816     A.U. after    7 cycles
 SCF Done:  E(RB3LYP) =  -2506.31945818     A.U. after    7 cycles
 SCF Done:  E(RB3LYP) =  -2506.31945820     A.U. after    7 cycles
 SCF Done:  E(RB3LYP) =  -2506.31945820     A.U. after    7 cycles
 SCF Done:  E(RB3LYP) =  -2506.31945820     A.U. after    7 cycles
 SCF Done:  E(RB3LYP) =  -2506.31945821     A.U. after    6 cycles
 SCF Done:  E(RB3LYP) =  -2506.31945821     A.U. after    5 cycles
 Optimization completed on the basis of negligible forces.
    -- Stationary point found.

                         Standard orientation:
 ---------------------------------------------------------------------
 Center     Atomic      Atomic             Coordinates (Angstroms)
 Number     Number       Type             X           Y           Z
 ---------------------------------------------------------------------
      1          6           0       -0.672639    6.349052   -1.252398
      2          6           0        0.684139    6.480745   -0.946472
      3          6           0        1.479785    5.348221   -0.793670
      4          6           0        0.925979    4.067140   -0.945802
      5          6           0        1.771737    2.860431   -0.783522
      6          7           0        1.193185    1.659701   -0.940272
      7          6           0        1.996420    0.596326   -0.785232
      8          6           0        1.406499   -0.754870   -0.948715
      9          6           0        2.204097   -1.899409   -0.797754
     10          6           0        1.639511   -3.161545   -0.959229
     11          6           0        0.286644   -3.295028   -1.269377
     12          6           0       -0.531806   -2.163017   -1.427514
     13          6           0       -1.973237   -2.304486   -1.761762
     14          6           0       -2.414849   -3.302500   -2.644301
     15          6           0       -3.769222   -3.427697   -2.953366
     16          6           0       -4.706053   -2.566776   -2.386428
     17          6           0       -4.293375   -1.564926   -1.493984
     18          6           0       -5.281419   -0.581771   -0.946790
     19          6           0       -5.159423    0.715280   -1.439369
     20          6           0       -6.102128    1.710442   -1.154359
     21          6           0       -7.194225    1.402032   -0.371297
     22          6           0       -7.336954    0.116518    0.197908
     23          6           0       -8.515139   -0.219205    0.987709
     24          6           0       -9.548644    0.798575    1.351807
     25          6           0      -10.904778    0.495611    1.155954
     26          6           0      -11.896975    1.397380    1.534731
     27          6           0      -11.552060    2.611194    2.134066
     28          6           0      -10.207877    2.913661    2.355093
     29          6           0       -9.213138    2.016153    1.964600
     30          7           0       -8.764220   -1.431180    1.405752
     31          6           0       -7.815010   -2.412354    1.236076
     32          6           0       -8.109860   -3.668439    1.814178
     33          6           0       -7.173886   -4.682106    1.817333
     34          6           0       -5.905439   -4.448871    1.256037
     35          6           0       -5.608171   -3.236190    0.658542
     36          6           0       -6.563706   -2.192852    0.588314
     37          6           0       -6.361988   -0.900906   -0.062282
     38          6           0       -2.930007   -1.441122   -1.200864
     39          6           0        0.048218   -0.898303   -1.262763
     40          7           0        3.303691    0.677571   -0.490776
     41          6           0        3.793664    1.917629   -0.350920
     42          6           0        5.235610    2.059405   -0.024688
     43          6           0        5.814934    3.330297    0.105153
     44          6           0        7.168121    3.449948    0.412482
     45          6           0        7.959179    2.313885    0.582664
     46          6           0        7.384048    1.040746    0.466460
     47          7           0        8.180532   -0.120747    0.648757
     48          6           0        8.968732   -0.405785    1.770680
     49          6           0        9.129613    0.323261    2.952298
     50          6           0        9.969025   -0.204717    3.931137
     51          6           0       10.630533   -1.430811    3.745926
     52          6           0       10.455239   -2.159021    2.572861
     53          6           0        9.616690   -1.651808    1.573427
     54          6           0        9.202483   -2.139968    0.274603
     55          6           0        9.508903   -3.286136   -0.468252
     56          6           0        8.940477   -3.450209   -1.727998
     57          6           0        8.074384   -2.475850   -2.253301
     58          6           0        7.752094   -1.326271   -1.534929
     59          6           0        8.316524   -1.173196   -0.265485
     60          6           0        6.024942    0.917639    0.169062
     61          7           0        3.069748    3.037494   -0.487964
     62          6           0       -0.438180    3.942537   -1.253064
     63          6           0       -1.230685    5.077365   -1.404913
     64          1           0       -1.292556    7.233807   -1.371222
     65          1           0        1.122168    7.467897   -0.826727
     66          1           0        2.533409    5.438648   -0.555822
     67          1           0        3.254116   -1.785147   -0.555667
     68          1           0        2.254297   -4.048516   -0.833730
     69          1           0       -0.147255   -4.286253   -1.366783
     70          1           0       -1.691668   -3.963466   -3.113480
     71          1           0       -4.093808   -4.194308   -3.651937
     72          1           0       -5.759762   -2.666299   -2.630161
     73          1           0       -4.332621    0.935540   -2.108929
     74          1           0       -5.994123    2.702645   -1.583305
     75          1           0       -7.964536    2.144148   -0.202798
     76          1           0      -11.167253   -0.458042    0.709223
     77          1           0      -12.941977    1.150825    1.365991
     78          1           0      -12.326230    3.312800    2.433198
     79          1           0       -9.930440    3.846469    2.838963
     80          1           0       -8.170800    2.251009    2.160769
     81          1           0       -9.083956   -3.782810    2.279118
     82          1           0       -7.402860   -5.641273    2.273721
     83          1           0       -5.143949   -5.223118    1.294852
     84          1           0       -4.615844   -3.088091    0.259160
     85          1           0       -2.611720   -0.679307   -0.494703
     86          1           0       -0.547144   -0.003127   -1.399266
     87          1           0        5.196000    4.207905   -0.038919
     88          1           0        7.616926    4.434844    0.505470
     89          1           0        9.019925    2.403497    0.794830
     90          1           0        8.614084    1.265036    3.109012
     91          1           0       10.110253    0.344686    4.857987
     92          1           0       11.279726   -1.813867    4.528095
     93          1           0       10.958934   -3.112320    2.435143
     94          1           0       10.186014   -4.035660   -0.066744
     95          1           0        9.169952   -4.336057   -2.313364
     96          1           0        7.646465   -2.617435   -3.242075
     97          1           0        7.088496   -0.576117   -1.951952
     98          1           0        5.569281   -0.062144    0.094798
     99          1           0       -0.860512    2.950993   -1.368735
    100          1           0       -2.285673    4.970793   -1.642308
 ---------------------------------------------------------------------

 The electronic state is 1-A.
 Alpha  occ. eigenvalues --  -14.38260 -14.34212 -14.34201 -14.34164 -14.32223
 Alpha  occ. eigenvalues --  -10.28171 -10.28080 -10.28072 -10.24349 -10.23378
 Alpha  occ. eigenvalues --  -10.22395 -10.22369 -10.21699 -10.21644 -10.21198
 Alpha  occ. eigenvalues --  -10.20969 -10.20757 -10.20741 -10.20730 -10.20662
 Alpha  occ. eigenvalues --  -10.20587 -10.20573 -10.20529 -10.20493 -10.20318
 Alpha  occ. eigenvalues --  -10.20220 -10.20192 -10.20184 -10.20096 -10.19951
 Alpha  occ. eigenvalues --  -10.19814 -10.19796 -10.19764 -10.19750 -10.19738
 Alpha  occ. eigenvalues --  -10.19731 -10.19716 -10.19714 -10.19669 -10.19666
 Alpha  occ. eigenvalues --  -10.19660 -10.19561 -10.19498 -10.19435 -10.19119
 Alpha  occ. eigenvalues --  -10.19050 -10.18998 -10.18904 -10.18866 -10.18824
 Alpha  occ. eigenvalues --  -10.18803 -10.18772 -10.18754 -10.18736 -10.18708
 Alpha  occ. eigenvalues --  -10.18694 -10.18693 -10.18674 -10.18648 -10.18634
 Alpha  occ. eigenvalues --  -10.18318 -10.18098 -10.18080  -1.02537  -0.98981
 Alpha  occ. eigenvalues --   -0.94251  -0.91147  -0.91098  -0.87866  -0.87287
 Alpha  occ. eigenvalues --   -0.86566  -0.85857  -0.85643  -0.84926  -0.84200
 Alpha  occ. eigenvalues --   -0.84091  -0.84007  -0.79453  -0.78739  -0.78090
 Alpha  occ. eigenvalues --   -0.77890  -0.77177  -0.76994  -0.76517  -0.76069
 Alpha  occ. eigenvalues --   -0.75544  -0.75164  -0.74717  -0.74372  -0.73518
 Alpha  occ. eigenvalues --   -0.73023  -0.72742  -0.71878  -0.71591  -0.71400
 Alpha  occ. eigenvalues --   -0.68489  -0.68188  -0.64712  -0.64696  -0.64258
 Alpha  occ. eigenvalues --   -0.63365  -0.63085  -0.62555  -0.61892  -0.61451
 Alpha  occ. eigenvalues --   -0.60715  -0.60394  -0.60039  -0.59654  -0.59278
 Alpha  occ. eigenvalues --   -0.58835  -0.58527  -0.57620  -0.57251  -0.56470
 Alpha  occ. eigenvalues --   -0.54753  -0.54644  -0.53949  -0.53379  -0.52527
 Alpha  occ. eigenvalues --   -0.52183  -0.51379  -0.51218  -0.50958  -0.50006
 Alpha  occ. eigenvalues --   -0.49275  -0.49089  -0.48656  -0.47983  -0.47591
 Alpha  occ. eigenvalues --   -0.47394  -0.46988  -0.46447  -0.46137  -0.46040
 Alpha  occ. eigenvalues --   -0.45465  -0.45201  -0.45065  -0.44987  -0.44783
 Alpha  occ. eigenvalues --   -0.44464  -0.44225  -0.44016  -0.43460  -0.43450
 Alpha  occ. eigenvalues --   -0.43157  -0.43087  -0.42952  -0.42607  -0.42572
 Alpha  occ. eigenvalues --   -0.42347  -0.42203  -0.42006  -0.41905  -0.41843
 Alpha  occ. eigenvalues --   -0.41539  -0.41295  -0.41277  -0.40678  -0.39017
 Alpha  occ. eigenvalues --   -0.38793  -0.38198  -0.37931  -0.37660  -0.37559
 Alpha  occ. eigenvalues --   -0.37281  -0.37211  -0.36689  -0.36663  -0.36441
 Alpha  occ. eigenvalues --   -0.36262  -0.36083  -0.36027  -0.36007  -0.35668
 Alpha  occ. eigenvalues --   -0.35442  -0.35019  -0.34974  -0.34717  -0.34496
 Alpha  occ. eigenvalues --   -0.34302  -0.34236  -0.33938  -0.33612  -0.33343
 Alpha  occ. eigenvalues --   -0.33246  -0.33035  -0.32626  -0.32122  -0.28699
 Alpha  occ. eigenvalues --   -0.28022  -0.27756  -0.26957  -0.26777  -0.26701
 Alpha  occ. eigenvalues --   -0.26438  -0.26032  -0.26015  -0.25819  -0.25243
 Alpha  occ. eigenvalues --   -0.25169  -0.25156  -0.24945  -0.24693  -0.24475
 Alpha  occ. eigenvalues --   -0.23372  -0.22329  -0.21495  -0.21132  -0.19785
 Alpha virt. eigenvalues --   -0.07457  -0.07298  -0.05437  -0.03999  -0.03372
 Alpha virt. eigenvalues --   -0.02544  -0.02352  -0.01720  -0.01263  -0.00603
 Alpha virt. eigenvalues --   -0.00557   0.00115   0.00809   0.01143   0.01864

 Mulliken charges:
               1
     1  C   -0.115189
     2  C   -0.139736
     3  C   -0.155669
     4  C    0.076295
     5  C    0.451104
     6  N   -0.540691
     7  C    0.454951
     8  C    0.076190
     9  C   -0.158414
    10  C   -0.142444
    11  C   -0.162903
    12  C    0.084771
    13  C    0.094841
    14  C   -0.175574
    15  C   -0.136207
    16  C   -0.137988
    17  C    0.012875
    18  C    0.018537
    19  C   -0.162774
    20  C   -0.131534
    21  C   -0.206837
    22  C    0.082491
    23  C    0.160801
    24  C    0.099444
    25  C   -0.142544
    26  C   -0.137875
    27  C   -0.123643
    28  C   -0.136496
    29  C   -0.173309
    30  N   -0.556180
    31  C    0.230726
    32  C   -0.154751
    33  C   -0.132064
    34  C   -0.139960
    35  C   -0.196526
    36  C    0.075751
    37  C    0.062353
    38  C   -0.216614
    39  C   -0.214844
    40  N   -0.542857
    41  C    0.454614
    42  C    0.067068
    43  C   -0.152220
    44  C   -0.151003
    45  C   -0.141031
    46  C    0.271126
    47  N   -0.738199
    48  C    0.312713
    49  C   -0.176718
    50  C   -0.141838
    51  C   -0.144612
    52  C   -0.197032
    53  C    0.059141
    54  C    0.059517
    55  C   -0.197350
    56  C   -0.144871
    57  C   -0.142770
    58  C   -0.176027
    59  C    0.312371
    60  C   -0.193731
    61  N   -0.542015
    62  C   -0.155562
    63  C   -0.139229
    64  H    0.135691
    65  H    0.135590
    66  H    0.160908
    67  H    0.166423
    68  H    0.139255
    69  H    0.137449
    70  H    0.134651
    71  H    0.136080
    72  H    0.141942
    73  H    0.139840
    74  H    0.134561
    75  H    0.156295
    76  H    0.144339
    77  H    0.131933
    78  H    0.130390
    79  H    0.130953
    80  H    0.139969
    81  H    0.142018
    82  H    0.131636
    83  H    0.130976
    84  H    0.158871
    85  H    0.142415
    86  H    0.164580
    87  H    0.164672
    88  H    0.141790
    89  H    0.156455
    90  H    0.138542
    91  H    0.127049
    92  H    0.124354
    93  H    0.129946
    94  H    0.129701
    95  H    0.123881
    96  H    0.127570
    97  H    0.142513
    98  H    0.182359
    99  H    0.161386
   100  H    0.133165
 Sum of Mulliken charges =  -0.00000

 Dipole moment (field-independent basis, Debye):
    X=              0.1759    Y=              1.9287    Z=             -1.3999  Tot=              2.3896
 Quadrupole moment (field-independent basis, Debye-Ang):
   XX=           -357.9826   YY=           -312.5516   ZZ=           -355.9075
   XY=             -5.9503   XZ=             12.9182   YZ=              7.2358

 Normal termination of Gaussian 16 at Sat Nov  5 02:00:17 2022.
