 Gaussian 16, Revision B.01,
 Gaussian 16:  ES64L-G16RevB.01 20-Dec-2017

 -------------------------------------------------------------------
 #p b3lyp/6-31g(d) 6D 10F nosymm GFInput td=(50-50,nstate=2) SCF=XQC
 -------------------------------------------------------------------

 ------------------------------
 Gaussian input prepared by ASE
 ------------------------------
 Symbolic Z-matrix:
 Charge =  0 Multiplicity = 1

                          Input orientation:
 ---------------------------------------------------------------------
 Center     Atomic      Atomic             Coordinates (Angstroms)
 Number     Number       Type             X           Y           Z
 ---------------------------------------------------------------------
      1          6           0        0.420170    6.220173    1.893269
      2          6           0       -0.953847    6.322180    1.662066
      3          6           0       -1.711806    5.176381    1.434788
      4          6           0       -1.102460    3.911585    1.436405
      5          6           0       -1.908040    2.690767    1.194679
      6          7           0       -1.276863    1.506499    1.207638
      7          6           0       -2.045162    0.429356    0.985225
      8          6           0       -1.396527   -0.904705    0.989679
      9          6           0       -2.155884   -2.062712    0.763146
     10          6           0       -1.536056   -3.309100    0.775424
     11          6           0       -0.165671   -3.413459    1.010823
     12          6           0        0.615326   -2.267702    1.242344
     13          6           0        2.075576   -2.378508    1.497002
     14          6           0        2.597295   -3.436568    2.257427
     15          6           0        3.968812   -3.532518    2.492492
     16          6           0        4.843407   -2.581832    1.971401
     17          6           0        4.349941   -1.517767    1.200221
     18          6           0        5.271904   -0.445213    0.708430
     19          6           0        5.124035    0.792263    1.330239
     20          6           0        6.012933    1.849700    1.102301
     21          6           0        7.077030    1.664879    0.245261
     22          6           0        7.241452    0.447105   -0.452524
     23          6           0        8.392198    0.239463   -1.322745
     24          6           0        9.367037    1.330867   -1.631129
     25          6           0       10.741686    1.069049   -1.526062
     26          6           0       11.679048    2.044716   -1.858539
     27          6           0       11.259207    3.294413   -2.320602
     28          6           0        9.895293    3.558662   -2.451275
     29          6           0        8.955794    2.586001   -2.106621
     30          7           0        8.667235   -0.915088   -1.867769
     31          6           0        7.765743   -1.947849   -1.752845
     32          6           0        8.080436   -3.128973   -2.463341
     33          6           0        7.185066   -4.176928   -2.524011
     34          6           0        5.937146   -4.053200   -1.886989
     35          6           0        5.622644   -2.917202   -1.161344
     36          6           0        6.539633   -1.845323   -1.031956
     37          6           0        6.320013   -0.631481   -0.250008
     38          6           0        2.970268   -1.425115    0.981272
     39          6           0       -0.020168   -1.019100    1.227744
     40          7           0       -3.367273    0.482220    0.758306
     41          6           0       -3.910738    1.707785    0.762061
     42          6           0       -5.371127    1.818107    0.515426
     43          6           0       -6.004475    3.069539    0.536108
     44          6           0       -7.374512    3.159860    0.302175
     45          6           0       -8.128594    2.012403    0.057068
     46          6           0       -7.500002    0.759861    0.022795
     47          7           0       -8.259106   -0.411958   -0.236599
     48          6           0       -9.088971   -0.621819   -1.344976
     49          6           0       -9.334582    0.209453   -2.441458
     50          6           0      -10.199318   -0.257909   -3.429031
     51          6           0      -10.803490   -1.523373   -3.335324
     52          6           0      -10.543939   -2.352376   -2.247904
     53          6           0       -9.678272   -1.907674   -1.241842
     54          6           0       -9.183425   -2.499739   -0.016528
     55          6           0       -9.409356   -3.723876    0.623685
     56          6           0       -8.774930   -3.983280    1.834965
     57          6           0       -7.922606   -3.027422    2.414030
     58          6           0       -7.679786   -1.801556    1.797789
     59          6           0       -8.310268   -1.551989    0.575616
     60          6           0       -6.124404    0.667310    0.246255
     61          7           0       -3.224646    2.839424    0.975612
     62          6           0        0.278715    3.816819    1.669302
     63          6           0        1.033404    4.964865    1.895996
     64          1           0        1.010621    7.115280    2.070352
     65          1           0       -1.434772    7.296540    1.658816
     66          1           0       -2.778374    5.243847    1.253813
     67          1           0       -3.219975   -1.970982    0.580123
     68          1           0       -2.121623   -4.205550    0.591261
     69          1           0        0.310211   -4.389907    0.991647
     70          1           0        1.923539   -4.169868    2.691386
     71          1           0        4.355956   -4.347860    3.097791
     72          1           0        5.910694   -2.658904    2.157336
     73          1           0        4.322642    0.911683    2.054071
     74          1           0        5.887679    2.790707    1.630453
     75          1           0        7.809211    2.452109    0.116086
     76          1           0       11.061878    0.089150   -1.186664
     77          1           0       12.739680    1.828232   -1.761138
     78          1           0       11.990496    4.054034   -2.583784
     79          1           0        9.559175    4.520745   -2.828970
     80          1           0        7.896947    2.793592   -2.232553
     81          1           0        9.034643   -3.156360   -2.979916
     82          1           0        7.428464   -5.077258   -3.081580
     83          1           0        5.205002   -4.852151   -1.967461
     84          1           0        4.645781   -2.850777   -0.705846
     85          1           0        2.589230   -0.613546    0.367678
     86          1           0        0.546228   -0.116377    1.424510
     87          1           0       -5.413512    3.955079    0.737638
     88          1           0       -7.864815    4.128951    0.325786
     89          1           0       -9.201000    2.076293   -0.098137
     90          1           0       -8.863804    1.183172   -2.528131
     91          1           0      -10.406115    0.371159   -4.290628
     92          1           0      -11.474453   -1.857280   -4.121636
     93          1           0      -11.003378   -3.335227   -2.181765
     94          1           0      -10.075730   -4.459882    0.181288
     95          1           0       -8.941668   -4.930149    2.340611
     96          1           0       -7.442356   -3.244545    3.364321
     97          1           0       -7.026175   -1.066990    2.256272
     98          1           0       -5.628357   -0.294609    0.204223
     99          1           0        0.743946    2.837807    1.668766
    100          1           0        2.101933    4.881445    2.074884
 ---------------------------------------------------------------------

 SCF Done:  E(RB3LYP) =  -2506.31946250     A.U. after   16 cycles

 Excitation energies and oscillator strengths:

 Excited state symmetry could not be determined.
 Excited State   1:      Triplet-?Sym    2.6623 eV  465.71 nm  f=0.0000  <S**2>=2.000
     206 -> 214       -0.12472
     207 -> 213        0.18316
     207 -> 214       -0.22134
     208 -> 213        0.57477
 This state for optimization and/or second-order correction.
 Total Energy, E(TD-HF/TD-DFT) =  -2506.22162575
 Copying the excited state density for this state as the 1-particle RhoCI density.

 Excited state symmetry could not be determined.
 Excited State   2:      Triplet-?Sym    2.7223 eV  455.44 nm  f=0.0000  <S**2>=2.000
     197 -> 211       -0.10459
     210 -> 211        0.66450

 Excited state symmetry could not be determined.
 Excited State   3:      Singlet-?Sym    2.8740 eV  431.40 nm  f=0.0045  <S**2>=0.000
     210 -> 211        0.70340

 Excited state symmetry could not be determined.
 Excited State   4:      Singlet-?Sym    3.0177 eV  410.85 nm  f=0.0077  <S**2>=0.000
     210 -> 212        0.70590

 Alpha  occ. eigenvalues --  -14.38260 -14.34212 -14.34201 -14.34164 -14.32223
 Alpha  occ. eigenvalues --  -10.28171 -10.28080 -10.28072 -10.24349 -10.23378
 Alpha  occ. eigenvalues --  -10.22395 -10.22369 -10.21699 -10.21644 -10.21198
 Alpha  occ. eigenvalues --  -10.20969 -10.20757 -10.20741 -10.20730 -10.20662
 Alpha  occ. eigenvalues --  -10.20587 -10.20573 -10.20529 -10.20493 -10.20318
 Alpha  occ. eigenvalues --  -10.20220 -10.20192 -10.20184 -10.20096 -10.19951
 Alpha  occ. eigenvalues --  -10.19814 -10.19796 -10.19764 -10.19751 -10.19738
 Alpha  occ. eigenvalues --  -10.19731 -10.19716 -10.19714 -10.19669 -10.19666
 Alpha  occ. eigenvalues --  -10.19660 -10.19561 -10.19498 -10.19435 -10.19119
 Alpha  occ. eigenvalues --  -10.19050 -10.18998 -10.18904 -10.18866 -10.18824
 Alpha  occ. eigenvalues --  -10.18803 -10.18772 -10.18754 -10.18736 -10.18708
 Alpha  occ. eigenvalues --  -10.18694 -10.18693 -10.18674 -10.18648 -10.18634
 Alpha  occ. eigenvalues --  -10.18318 -10.18098 -10.18080  -1.02537  -0.98981
 Alpha  occ. eigenvalues --   -0.94251  -0.91147  -0.91098  -0.87866  -0.87287
 Alpha  occ. eigenvalues --   -0.86566  -0.85857  -0.85643  -0.84926  -0.84200
 Alpha  occ. eigenvalues --   -0.84091  -0.84007  -0.79453  -0.78739  -0.78090
 Alpha  occ. eigenvalues --   -0.77890  -0.77177  -0.76994  -0.76517  -0.76069
 Alpha  occ. eigenvalues --   -0.75544  -0.75164  -0.74717  -0.74372  -0.73518
 Alpha  occ. eigenvalues --   -0.73023  -0.72742  -0.71878  -0.71591  -0.71400
 Alpha  occ. eigenvalues --   -0.68489  -0.68188  -0.64712  -0.64696  -0.64258
 Alpha  occ. eigenvalues --   -0.63365  -0.63085  -0.62555  -0.61892  -0.61451
 Alpha  occ. eigenvalues --   -0.60715  -0.60394  -0.60039  -0.59654  -0.59278
 Alpha  occ. eigenvalues --   -0.58835  -0.58527  -0.57620  -0.57251  -0.56470
 Alpha  occ. eigenvalues --   -0.54753  -0.54644  -0.53949  -0.53380  -0.52527
 Alpha  occ. eigenvalues --   -0.52183  -0.51379  -0.51218  -0.50958  -0.50006
 Alpha  occ. eigenvalues --   -0.49275  -0.49089  -0.48656  -0.47983  -0.47591
 Alpha  occ. eigenvalues --   -0.47394  -0.46988  -0.46447  -0.46137  -0.46040
 Alpha  occ. eigenvalues --   -0.45465  -0.45201  -0.45065  -0.44987  -0.44783
 Alpha  occ. eigenvalues --   -0.44464  -0.44225  -0.44016  -0.43460  -0.43450
 Alpha  occ. eigenvalues --   -0.43157  -0.43087  -0.42952  -0.42607  -0.42572
 Alpha  occ. eigenvalues --   -0.42347  -0.42203  -0.42006  -0.41905  -0.41843
 Alpha  occ. eigenvalues --   -0.41539  -0.41295  -0.41277  -0.40678  -0.39017
 Alpha  occ. eigenvalues --   -0.38793  -0.38198  -0.37931  -0.37660  -0.37559
 Alpha  occ. eigenvalues --   -0.37281  -0.37211  -0.36689  -0.36663  -0.36441
 Alpha  occ. eigenvalues --   -0.36262  -0.36083  -0.36027  -0.36007  -0.35668
 Alpha  occ. eigenvalues --   -0.35442  -0.35019  -0.34974  -0.34717  -0.34496
 Alpha  occ. eigenvalues --   -0.34302  -0.34236  -0.33938  -0.33612  -0.33343
 Alpha  occ. eigenvalues --   -0.33246  -0.33035  -0.32626  -0.32122  -0.28699
 Alpha  occ. eigenvalues --   -0.28022  -0.27756  -0.26957  -0.26777  -0.26701
 Alpha  occ. eigenvalues --   -0.26438  -0.26032  -0.26015  -0.25819  -0.25243
 Alpha  occ. eigenvalues --   -0.25169  -0.25156  -0.24945  -0.24693  -0.24474
 Alpha  occ. eigenvalues --   -0.23372  -0.22329  -0.21495  -0.21132  -0.19785
 Alpha virt. eigenvalues --   -0.07457  -0.07298  -0.05437  -0.03999  -0.03372
 Alpha virt. eigenvalues --   -0.02544  -0.02352  -0.01720  -0.01263  -0.00603
 Alpha virt. eigenvalues --   -0.00557   0.00115   0.00809   0.01143   0.01864

 Mulliken charges:
               1
     1  C   -0.115193
     2  C   -0.139732
     3  C   -0.155671
     4  C    0.076293
     5  C    0.451115
     6  N   -0.540698
     7  C    0.454951
     8  C    0.076198
     9  C   -0.158415
    10  C   -0.142442
    11  C   -0.162906
    12  C    0.084777
    13  C    0.094853
    14  C   -0.175583
    15  C   -0.136204
    16  C   -0.137988
    17  C    0.012882
    18  C    0.018553
    19  C   -0.162774
    20  C   -0.131556
    21  C   -0.206825
    22  C    0.082510
    23  C    0.160808
    24  C    0.099442
    25  C   -0.142542
    26  C   -0.137873
    27  C   -0.123649
    28  C   -0.136493
    29  C   -0.173305
    30  N   -0.556175
    31  C    0.230722
    32  C   -0.154747
    33  C   -0.132068
    34  C   -0.139958
    35  C   -0.196522
    36  C    0.075748
    37  C    0.062298
    38  C   -0.216620
    39  C   -0.214858
    40  N   -0.542849
    41  C    0.454604
    42  C    0.067074
    43  C   -0.152223
    44  C   -0.150999
    45  C   -0.141028
    46  C    0.271098
    47  N   -0.738196
    48  C    0.312714
    49  C   -0.176702
    50  C   -0.141841
    51  C   -0.144621
    52  C   -0.197024
    53  C    0.059136
    54  C    0.059528
    55  C   -0.197345
    56  C   -0.144877
    57  C   -0.142767
    58  C   -0.176016
    59  C    0.312355
    60  C   -0.193731
    61  N   -0.542012
    62  C   -0.155555
    63  C   -0.139214
    64  H    0.135691
    65  H    0.135590
    66  H    0.160908
    67  H    0.166420
    68  H    0.139255
    69  H    0.137448
    70  H    0.134651
    71  H    0.136080
    72  H    0.141941
    73  H    0.139842
    74  H    0.134569
    75  H    0.156295
    76  H    0.144340
    77  H    0.131933
    78  H    0.130390
    79  H    0.130953
    80  H    0.139967
    81  H    0.142017
    82  H    0.131636
    83  H    0.130976
    84  H    0.158873
    85  H    0.142417
    86  H    0.164583
    87  H    0.164674
    88  H    0.141790
    89  H    0.156455
    90  H    0.138541
    91  H    0.127050
    92  H    0.124356
    93  H    0.129946
    94  H    0.129701
    95  H    0.123882
    96  H    0.127571
    97  H    0.142512
    98  H    0.182360
    99  H    0.161378
   100  H    0.133153
 Sum of Mulliken charges =  -0.00000

 Dipole moment (field-independent basis, Debye):
    X=             -0.1823    Y=              1.7764    Z=              1.5879  Tot=              2.3896
 Quadrupole moment (field-independent basis, Debye-Ang):
   XX=           -357.0731   YY=           -311.2622   ZZ=           -357.9088
   XY=              2.4478   XZ=             13.4355   YZ=             -2.4043

 Normal termination of Gaussian 16 at Sat Nov  5 11:13:51 2022.
