 Gaussian 16, Revision B.01,
 Gaussian 16:  ES64L-G16RevB.01 20-Dec-2017

 -------------------------------------------------------------------
 #p b3lyp/6-31g(d) 6D 10F nosymm GFInput td=(50-50,nstate=2) SCF=XQC
 -------------------------------------------------------------------

 ------------------------------
 Gaussian input prepared by ASE
 ------------------------------
 Symbolic Z-matrix:
 Charge =  0 Multiplicity = 1

                          Input orientation:
 ---------------------------------------------------------------------
 Center     Atomic      Atomic             Coordinates (Angstroms)
 Number     Number       Type             X           Y           Z
 ---------------------------------------------------------------------
      1          6           0        8.686445   -3.098269   -2.109288
      2          6           0        8.228327   -3.893039   -1.056927
      3          6           0        6.955687   -3.689374   -0.525363
      4          6           0        6.111524   -2.687591   -1.033705
      5          6           0        4.755268   -2.472490   -0.465092
      6          6           0        3.954457   -3.558731   -0.075471
      7          6           0        2.680849   -3.345886    0.448699
      8          6           0        2.182051   -2.052838    0.594393
      9          6           0        2.959411   -0.946694    0.214275
     10          6           0        2.442430    0.437731    0.377315
     11          6           0        3.279357    1.477236    0.818206
     12          6           0        2.785742    2.771628    0.981737
     13          6           0        1.449363    3.055277    0.713936
     14          6           0        0.597276    2.034272    0.266944
     15          6           0       -0.829326    2.316387   -0.024561
     16          7           0       -1.307554    3.532282    0.283284
     17          6           0       -2.603582    3.738246    0.006038
     18          6           0       -3.182067    5.068425    0.314118
     19          6           0       -2.379799    6.086379    0.852939
     20          6           0       -2.926830    7.334862    1.138414
     21          6           0       -4.279637    7.581573    0.891160
     22          6           0       -5.084272    6.572158    0.356697
     23          6           0       -4.540929    5.322492    0.069185
     24          7           0       -3.416905    2.811239   -0.527895
     25          6           0       -2.847833    1.626745   -0.792524
     26          6           0       -3.693812    0.601926   -1.465898
     27          6           0       -4.462737    1.042135   -2.532381
     28          6           0       -5.173236    0.144228   -3.352025
     29          6           0       -5.113452   -1.207000   -3.098018
     30          6           0       -4.388635   -1.713076   -1.989832
     31          6           0       -4.384672   -3.116689   -1.722456
     32          6           0       -3.747312   -3.645158   -0.628695
     33          6           0       -3.100702   -2.760679    0.265203
     34          6           0       -2.413477   -2.935789    1.527248
     35          6           0       -2.068420   -4.022650    2.341159
     36          6           0       -1.383236   -3.772792    3.528221
     37          6           0       -1.042639   -2.462786    3.910171
     38          6           0       -1.379180   -1.364621    3.116880
     39          6           0       -2.061412   -1.637359    1.938399
     40          8           0       -2.477018   -0.698762    1.027068
     41          6           0       -3.089701   -1.388013    0.007970
     42          6           0       -3.682517   -0.792302   -1.135026
     43          7           0       -1.559220    1.336162   -0.579065
     44          6           0        1.101864    0.737374    0.100332
     45          6           0        4.239137   -1.177219   -0.310930
     46          6           0        6.586278   -1.896656   -2.093702
     47          6           0        7.859289   -2.098904   -2.625053
     48          1           0        9.678441   -3.256478   -2.523753
     49          1           0        8.866516   -4.668906   -0.641876
     50          1           0        6.619080   -4.296226    0.310721
     51          1           0        4.322400   -4.571960   -0.209780
     52          1           0        2.069720   -4.193698    0.746685
     53          1           0        1.198909   -1.897697    1.029086
     54          1           0        4.316767    1.262216    1.059165
     55          1           0        3.446890    3.560258    1.330818
     56          1           0        1.052819    4.055629    0.843735
     57          1           0       -1.331993    5.882527    1.042060
     58          1           0       -2.297823    8.117041    1.554884
     59          1           0       -4.705249    8.556307    1.115086
     60          1           0       -6.137385    6.759378    0.164921
     61          1           0       -5.154687    4.529507   -0.343072
     62          1           0       -4.480261    2.104799   -2.750340
     63          1           0       -5.747253    0.522141   -4.193070
     64          1           0       -5.637435   -1.912128   -3.738546
     65          1           0       -4.917749   -3.766406   -2.411340
     66          1           0       -3.757696   -4.714139   -0.437018
     67          1           0       -2.327410   -5.038195    2.054606
     68          1           0       -1.105908   -4.602845    4.171720
     69          1           0       -0.506454   -2.300025    4.840645
     70          1           0       -1.123036   -0.348384    3.396839
     71          1           0        0.432897   -0.033137   -0.265205
     72          1           0        4.848960   -0.328525   -0.607218
     73          1           0        5.940622   -1.134476   -2.521104
     74          1           0        8.201676   -1.479966   -3.450376
 ---------------------------------------------------------------------

 SCF Done:  E(RB3LYP) =  -1894.38985974     A.U. after   16 cycles

 Excitation energies and oscillator strengths:

 Excited state symmetry could not be determined.
 Excited State   1:      Triplet-?Sym    2.4919 eV  497.55 nm  f=0.0000  <S**2>=2.000
     155 ->161        -0.13371
     157 ->158         0.56715
     157 ->160         0.25722
     157 ->161        -0.14684
 This state for optimization and/or second-order correction.
 Total Energy, E(TD-HF/TD-DFT) =  -1894.29828402
 Copying the excited state density for this state as the 1-particle RhoCI density.

 Excited state symmetry could not be determined.
 Excited State   2:      Triplet-?Sym    3.0080 eV  412.19 nm  f=0.0000  <S**2>=2.000
     151 ->158        -0.12957
     152 ->158        -0.11108
     152 ->159        -0.12684
     153 ->159         0.33715
     154 ->158        -0.17623
     154 ->159        -0.13889
     154 ->160         0.12348
     154 ->163         0.17395
     156 ->158        -0.18975
     156 ->159        -0.13647
     156 ->160         0.14999
     156 ->162         0.21184

 Excited state symmetry could not be determined.
 Excited State   3:      Singlet-?Sym    3.3738 eV  367.49 nm  f=0.1012  <S**2>=0.000
     157 ->158         0.65476
     157 ->159         0.24531

 Excited state symmetry could not be determined.
 Excited State   4:      Singlet-?Sym    3.4092 eV  363.68 nm  f=0.0388  <S**2>=0.000
     157 ->158        -0.24114
     157 ->159         0.65874

 Alpha  occ. eigenvalues --  -19.21039 -14.33411 -14.33362 -14.33185 -10.27259
 Alpha  occ. eigenvalues --  -10.27171 -10.27103 -10.25210 -10.24782 -10.21486
 Alpha  occ. eigenvalues --  -10.20835 -10.20778 -10.20105 -10.20001 -10.19981
 Alpha  occ. eigenvalues --  -10.19937 -10.19914 -10.19877 -10.19829 -10.19799
 Alpha  occ. eigenvalues --  -10.19778 -10.19754 -10.19680 -10.19675 -10.19657
 Alpha  occ. eigenvalues --  -10.19651 -10.19617 -10.19562 -10.19460 -10.19351
 Alpha  occ. eigenvalues --  -10.19246 -10.19180 -10.19153 -10.19123 -10.19093
 Alpha  occ. eigenvalues --  -10.19032 -10.19000 -10.18852 -10.18828 -10.18819
 Alpha  occ. eigenvalues --  -10.18752 -10.18709 -10.18707 -10.18679 -10.18625
 Alpha  occ. eigenvalues --  -10.18621 -10.18469  -1.10779  -1.01667  -0.90371
 Alpha  occ. eigenvalues --   -0.90215  -0.87699  -0.86833  -0.86029  -0.85535
 Alpha  occ. eigenvalues --   -0.85168  -0.83893  -0.83154  -0.78644  -0.78303
 Alpha  occ. eigenvalues --   -0.77674  -0.76577  -0.76034  -0.75522  -0.75146
 Alpha  occ. eigenvalues --   -0.74517  -0.74203  -0.73565  -0.72468  -0.72432
 Alpha  occ. eigenvalues --   -0.71222  -0.67657  -0.67359  -0.64609  -0.63202
 Alpha  occ. eigenvalues --   -0.62647  -0.62590  -0.61867  -0.60719  -0.60568
 Alpha  occ. eigenvalues --   -0.59929  -0.59553  -0.58995  -0.57517  -0.57375
 Alpha  occ. eigenvalues --   -0.56233  -0.54557  -0.53943  -0.53478  -0.52489
 Alpha  occ. eigenvalues --   -0.51734  -0.50638  -0.50495  -0.49711  -0.48949
 Alpha  occ. eigenvalues --   -0.48324  -0.47136  -0.46788  -0.46549  -0.46303
 Alpha  occ. eigenvalues --   -0.46126  -0.45373  -0.45213  -0.44867  -0.44698
 Alpha  occ. eigenvalues --   -0.44245  -0.44004  -0.43574  -0.43015  -0.42861
 Alpha  occ. eigenvalues --   -0.42345  -0.42162  -0.41990  -0.41914  -0.41738
 Alpha  occ. eigenvalues --   -0.41424  -0.41297  -0.41089  -0.39692  -0.38822
 Alpha  occ. eigenvalues --   -0.38221  -0.37979  -0.37234  -0.37106  -0.36734
 Alpha  occ. eigenvalues --   -0.36639  -0.36566  -0.35955  -0.35708  -0.35329
 Alpha  occ. eigenvalues --   -0.35288  -0.35112  -0.34817  -0.34720  -0.34321
 Alpha  occ. eigenvalues --   -0.34096  -0.34017  -0.33433  -0.33016  -0.32927
 Alpha  occ. eigenvalues --   -0.32250  -0.31832  -0.28302  -0.27702  -0.27414
 Alpha  occ. eigenvalues --   -0.26256  -0.25924  -0.25638  -0.25200  -0.24790
 Alpha  occ. eigenvalues --   -0.24775  -0.24633  -0.24230  -0.22853  -0.22675
 Alpha  occ. eigenvalues --   -0.21826  -0.20792
 Alpha virt. eigenvalues --   -0.06549  -0.06362  -0.03727  -0.03170  -0.02672
 Alpha virt. eigenvalues --   -0.01655  -0.00135   0.00119   0.00203   0.00992
 Alpha virt. eigenvalues --    0.02015   0.02188   0.03404   0.04306   0.04778

 Mulliken charges:
               1
     1  C   -0.126831
     2  C   -0.133870
     3  C   -0.173854
     4  C    0.086210
     5  C    0.089636
     6  C   -0.173665
     7  C   -0.139950
     8  C   -0.176452
     9  C    0.090629
    10  C    0.081028
    11  C   -0.162730
    12  C   -0.143130
    13  C   -0.159340
    14  C    0.074424
    15  C    0.442623
    16  N   -0.541860
    17  C    0.444694
    18  C    0.077047
    19  C   -0.157787
    20  C   -0.139784
    21  C   -0.116509
    22  C   -0.138851
    23  C   -0.158914
    24  N   -0.511904
    25  C    0.366062
    26  C    0.094399
    27  C   -0.171555
    28  C   -0.130726
    29  C   -0.198001
    30  C    0.131174
    31  C   -0.211686
    32  C   -0.185389
    33  C    0.108684
    34  C    0.060494
    35  C   -0.193416
    36  C   -0.145383
    37  C   -0.137750
    38  C   -0.206446
    39  C    0.337794
    40  O   -0.550776
    41  C    0.202000
    42  C    0.060264
    43  N   -0.485739
    44  C   -0.218396
    45  C   -0.230114
    46  C   -0.173098
    47  C   -0.134519
    48  H    0.128929
    49  H    0.129605
    50  H    0.131647
    51  H    0.131178
    52  H    0.133563
    53  H    0.148078
    54  H    0.137796
    55  H    0.133289
    56  H    0.158360
    57  H    0.160102
    58  H    0.133231
    59  H    0.133279
    60  H    0.133644
    61  H    0.162289
    62  H    0.155378
    63  H    0.137052
    64  H    0.136155
    65  H    0.132675
    66  H    0.137171
    67  H    0.135114
    68  H    0.131243
    69  H    0.136418
    70  H    0.154562
    71  H    0.172229
    72  H    0.132733
    73  H    0.135159
    74  H    0.130384
 Sum of Mulliken charges =  -0.00000

 Dipole moment (field-independent basis, Debye):
    X=             -0.2470    Y=             -0.7850    Z=              0.0476  Tot=              0.8243
 Quadrupole moment (field-independent basis, Debye-Ang):
   XX=           -244.1474   YY=           -232.5049   ZZ=           -255.4956
   XY=             -0.2388   XZ=              8.9079   YZ=             -0.5971

 Normal termination of Gaussian 16 at Sat Nov  5 10:56:16 2022.
