 Gaussian 16, Revision B.01,
 Gaussian 16:  ES64L-G16RevB.01 20-Dec-2017

 -----------------------------
 #p b3lyp/6-31g(d) opt SCF=XQC
 -----------------------------

 ------------------------------
 Gaussian input prepared by ASE
 ------------------------------
 Symbolic Z-matrix:
 Charge =  0 Multiplicity = 1

 SCF Done:  E(RB3LYP) =  -1894.37565807     A.U. after   16 cycles
 SCF Done:  E(RB3LYP) =  -1894.38560357     A.U. after   14 cycles
 SCF Done:  E(RB3LYP) =  -1894.38832680     A.U. after   13 cycles
 SCF Done:  E(RB3LYP) =  -1894.38959274     A.U. after   12 cycles
 SCF Done:  E(RB3LYP) =  -1894.38970796     A.U. after   11 cycles
 SCF Done:  E(RB3LYP) =  -1894.38977475     A.U. after   11 cycles
 SCF Done:  E(RB3LYP) =  -1894.38980440     A.U. after   11 cycles
 SCF Done:  E(RB3LYP) =  -1894.38984103     A.U. after   11 cycles
 SCF Done:  E(RB3LYP) =  -1894.38986347     A.U. after   11 cycles
 SCF Done:  E(RB3LYP) =  -1894.38986775     A.U. after   10 cycles
 SCF Done:  E(RB3LYP) =  -1894.38986839     A.U. after   10 cycles
 SCF Done:  E(RB3LYP) =  -1894.38986983     A.U. after    9 cycles
 SCF Done:  E(RB3LYP) =  -1894.38986993     A.U. after    9 cycles
 SCF Done:  E(RB3LYP) =  -1894.38986998     A.U. after    7 cycles
 Optimization completed.
    -- Stationary point found.

                         Standard orientation:
 ---------------------------------------------------------------------
 Center     Atomic      Atomic             Coordinates (Angstroms)
 Number     Number       Type             X           Y           Z
 ---------------------------------------------------------------------
      1          6           0       -9.325463   -1.978504   -1.685486
      2          6           0       -9.308448   -1.067206   -0.628017
      3          6           0       -8.097098   -0.574052   -0.145233
      4          6           0       -6.875277   -0.979523   -0.708562
      5          6           0       -5.585268   -0.452324   -0.191883
      6          6           0       -5.458439    0.890621    0.199825
      7          6           0       -4.241761    1.376515    0.674941
      8          6           0       -3.132506    0.538213    0.768774
      9          6           0       -3.228544   -0.809380    0.385234
     10          6           0       -2.055105   -1.715934    0.493314
     11          6           0       -2.201622   -3.042541    0.933823
     12          6           0       -1.095303   -3.884807    1.045615
     13          6           0        0.178007   -3.421911    0.725473
     14          6           0        0.346863   -2.103035    0.277859
     15          6           0        1.695035   -1.591264   -0.068956
     16          7           0        2.753228   -2.375622    0.189654
     17          6           0        3.951041   -1.867819   -0.136467
     18          6           0        5.154474   -2.696664    0.115918
     19          6           0        5.030289   -3.987237    0.653683
     20          6           0        6.163115   -4.763016    0.886749
     21          6           0        7.431869   -4.260172    0.587582
     22          6           0        7.562737   -2.975640    0.053860
     23          6           0        6.432336   -2.196906   -0.181334
     24          7           0        4.132595   -0.648815   -0.672180
     25          6           0        3.015533    0.060835   -0.885410
     26          6           0        3.167504    1.380950   -1.558887
     27          6           0        4.006559    1.416540   -2.662126
     28          6           0        4.103773    2.558245   -3.480613
     29          6           0        3.354199    3.674758   -3.188301
     30          6           0        2.519825    3.718164   -2.043100
     31          6           0        1.790755    4.908516   -1.737891
     32          6           0        1.018334    5.017034   -0.609437
     33          6           0        0.971547    3.919951    0.281452
     34          6           0        0.349526    3.700797    1.570157
     35          6           0       -0.479698    4.439458    2.424294
     36          6           0       -0.880010    3.860316    3.626528
     37          6           0       -0.465150    2.564938    3.984153
     38          6           0        0.363655    1.812074    3.150598
     39          6           0        0.749809    2.409080    1.957655
     40          8           0        1.556958    1.834142    1.007826
     41          6           0        1.672080    2.747998   -0.012283
     42          6           0        2.439849    2.559126   -1.190248
     43          7           0        1.776851   -0.370756   -0.620978
     44          6           0       -0.770230   -1.264391    0.163426
     45          6           0       -4.459752   -1.283447   -0.090233
     46          6           0       -6.908771   -1.896266   -1.772997
     47          6           0       -8.119684   -2.390821   -2.255594
     48          1           0      -10.269405   -2.363369   -2.061943
     49          1           0      -10.240556   -0.745083   -0.170923
     50          1           0       -8.093925    0.114665    0.695166
     51          1           0       -6.309035    1.559669    0.105403
     52          1           0       -4.154850    2.417406    0.975028
     53          1           0       -2.196835    0.920924    1.165820
     54          1           0       -3.185940   -3.406456    1.215243
     55          1           0       -1.228107   -4.905108    1.395273
     56          1           0        1.045956   -4.064942    0.814775
     57          1           0        4.040780   -4.365842    0.883360
     58          1           0        6.057125   -5.761287    1.302828
     59          1           0        8.315098   -4.866629    0.770640
     60          1           0        8.547908   -2.580085   -0.178199
     61          1           0        6.519871   -1.197485   -0.592398
     62          1           0        4.570211    0.523054   -2.909201
     63          1           0        4.754108    2.543130   -4.350388
     64          1           0        3.401802    4.553460   -3.826782
     65          1           0        1.873117    5.745126   -2.426487
     66          1           0        0.473959    5.930708   -0.389386
     67          1           0       -0.805188    5.440958    2.156758
     68          1           0       -1.524094    4.417069    4.301191
     69          1           0       -0.795552    2.139593    4.927384
     70          1           0        0.691645    0.811518    3.411431
     71          1           0       -0.621968   -0.255302   -0.203425
     72          1           0       -4.545016   -2.324411   -0.388691
     73          1           0       -5.978034   -2.202756   -2.242311
     74          1           0       -8.120961   -3.092916   -3.085373
 ---------------------------------------------------------------------

 The electronic state is 1-A.
 Alpha  occ. eigenvalues --  -19.21039 -14.33411 -14.33362 -14.33185 -10.27259
 Alpha  occ. eigenvalues --  -10.27171 -10.27103 -10.25210 -10.24782 -10.21486
 Alpha  occ. eigenvalues --  -10.20835 -10.20778 -10.20105 -10.20001 -10.19981
 Alpha  occ. eigenvalues --  -10.19937 -10.19914 -10.19877 -10.19829 -10.19799
 Alpha  occ. eigenvalues --  -10.19778 -10.19754 -10.19680 -10.19675 -10.19657
 Alpha  occ. eigenvalues --  -10.19651 -10.19617 -10.19562 -10.19460 -10.19351
 Alpha  occ. eigenvalues --  -10.19246 -10.19180 -10.19153 -10.19123 -10.19093
 Alpha  occ. eigenvalues --  -10.19032 -10.19000 -10.18852 -10.18828 -10.18819
 Alpha  occ. eigenvalues --  -10.18752 -10.18709 -10.18707 -10.18679 -10.18625
 Alpha  occ. eigenvalues --  -10.18621 -10.18469  -1.10779  -1.01667  -0.90371
 Alpha  occ. eigenvalues --   -0.90215  -0.87699  -0.86833  -0.86029  -0.85535
 Alpha  occ. eigenvalues --   -0.85168  -0.83893  -0.83154  -0.78644  -0.78303
 Alpha  occ. eigenvalues --   -0.77674  -0.76577  -0.76034  -0.75522  -0.75146
 Alpha  occ. eigenvalues --   -0.74517  -0.74203  -0.73565  -0.72468  -0.72432
 Alpha  occ. eigenvalues --   -0.71222  -0.67657  -0.67359  -0.64609  -0.63202
 Alpha  occ. eigenvalues --   -0.62647  -0.62590  -0.61867  -0.60719  -0.60568
 Alpha  occ. eigenvalues --   -0.59929  -0.59553  -0.58995  -0.57517  -0.57375
 Alpha  occ. eigenvalues --   -0.56233  -0.54557  -0.53943  -0.53478  -0.52489
 Alpha  occ. eigenvalues --   -0.51734  -0.50638  -0.50495  -0.49711  -0.48949
 Alpha  occ. eigenvalues --   -0.48324  -0.47136  -0.46788  -0.46549  -0.46303
 Alpha  occ. eigenvalues --   -0.46126  -0.45373  -0.45213  -0.44867  -0.44698
 Alpha  occ. eigenvalues --   -0.44245  -0.44004  -0.43574  -0.43015  -0.42861
 Alpha  occ. eigenvalues --   -0.42345  -0.42162  -0.41990  -0.41914  -0.41738
 Alpha  occ. eigenvalues --   -0.41424  -0.41297  -0.41089  -0.39692  -0.38822
 Alpha  occ. eigenvalues --   -0.38221  -0.37979  -0.37234  -0.37106  -0.36734
 Alpha  occ. eigenvalues --   -0.36639  -0.36566  -0.35955  -0.35708  -0.35329
 Alpha  occ. eigenvalues --   -0.35288  -0.35112  -0.34817  -0.34720  -0.34321
 Alpha  occ. eigenvalues --   -0.34096  -0.34017  -0.33433  -0.33016  -0.32927
 Alpha  occ. eigenvalues --   -0.32250  -0.31832  -0.28302  -0.27702  -0.27414
 Alpha  occ. eigenvalues --   -0.26256  -0.25924  -0.25638  -0.25200  -0.24790
 Alpha  occ. eigenvalues --   -0.24775  -0.24633  -0.24230  -0.22853  -0.22675
 Alpha  occ. eigenvalues --   -0.21826  -0.20792
 Alpha virt. eigenvalues --   -0.06549  -0.06362  -0.03727  -0.03170  -0.02672
 Alpha virt. eigenvalues --   -0.01655  -0.00135   0.00119   0.00203   0.00992
 Alpha virt. eigenvalues --    0.02015   0.02188   0.03404   0.04306   0.04778

 Mulliken charges:
               1
     1  C   -0.126822
     2  C   -0.133872
     3  C   -0.173874
     4  C    0.086243
     5  C    0.089628
     6  C   -0.173667
     7  C   -0.139955
     8  C   -0.176434
     9  C    0.090625
    10  C    0.081010
    11  C   -0.162721
    12  C   -0.143147
    13  C   -0.159321
    14  C    0.074380
    15  C    0.442646
    16  N   -0.541859
    17  C    0.444685
    18  C    0.077049
    19  C   -0.157786
    20  C   -0.139788
    21  C   -0.116503
    22  C   -0.138860
    23  C   -0.158907
    24  N   -0.511890
    25  C    0.366047
    26  C    0.094391
    27  C   -0.171559
    28  C   -0.130724
    29  C   -0.197991
    30  C    0.131145
    31  C   -0.211689
    32  C   -0.185388
    33  C    0.108687
    34  C    0.060516
    35  C   -0.193422
    36  C   -0.145377
    37  C   -0.137750
    38  C   -0.206452
    39  C    0.337779
    40  O   -0.550772
    41  C    0.202007
    42  C    0.060281
    43  N   -0.485748
    44  C   -0.218368
    45  C   -0.230106
    46  C   -0.173114
    47  C   -0.134519
    48  H    0.128927
    49  H    0.129606
    50  H    0.131648
    51  H    0.131179
    52  H    0.133564
    53  H    0.148068
    54  H    0.137797
    55  H    0.133290
    56  H    0.158360
    57  H    0.160101
    58  H    0.133231
    59  H    0.133279
    60  H    0.133645
    61  H    0.162287
    62  H    0.155381
    63  H    0.137052
    64  H    0.136156
    65  H    0.132676
    66  H    0.137171
    67  H    0.135115
    68  H    0.131242
    69  H    0.136418
    70  H    0.154564
    71  H    0.172231
    72  H    0.132734
    73  H    0.135160
    74  H    0.130384
 Sum of Mulliken charges =  -0.00000

 Dipole moment (field-independent basis, Debye):
    X=             -0.2003    Y=              0.7973    Z=              0.0605  Tot=              0.8243
 Quadrupole moment (field-independent basis, Debye-Ang):
   XX=           -241.3286   YY=           -235.9850   ZZ=           -254.8292
   XY=             -5.6099   XZ=             -8.5471   YZ=             -3.8093

 Normal termination of Gaussian 16 at Sat Nov  5 01:29:05 2022.
