 Gaussian 16, Revision B.01,
 Gaussian 16:  ES64L-G16RevB.01 20-Dec-2017

 -----------------------------
 #p b3lyp/6-31g(d) opt SCF=XQC
 -----------------------------

 ------------------------------
 Gaussian input prepared by ASE
 ------------------------------
 Symbolic Z-matrix:
 Charge =  0 Multiplicity = 1

 SCF Done:  E(RB3LYP) =  -1797.46642839     A.U. after   16 cycles
 SCF Done:  E(RB3LYP) =  -1797.46671052     A.U. after   16 cycles
 SCF Done:  E(RB3LYP) =  -1797.47544614     A.U. after   11 cycles
 SCF Done:  E(RB3LYP) =  -1797.48033333     A.U. after   14 cycles
 SCF Done:  E(RB3LYP) =  -1797.48231841     A.U. after   13 cycles
 SCF Done:  E(RB3LYP) =  -1797.48307130     A.U. after   13 cycles
 SCF Done:  E(RB3LYP) =  -1797.48348328     A.U. after   13 cycles
 SCF Done:  E(RB3LYP) =  -1797.48377785     A.U. after   12 cycles
 SCF Done:  E(RB3LYP) =  -1797.48397827     A.U. after   12 cycles
 SCF Done:  E(RB3LYP) =  -1797.48403983     A.U. after   11 cycles
 SCF Done:  E(RB3LYP) =  -1797.48406940     A.U. after   11 cycles
 SCF Done:  E(RB3LYP) =  -1797.48408403     A.U. after   11 cycles
 SCF Done:  E(RB3LYP) =  -1797.48409538     A.U. after   11 cycles
 SCF Done:  E(RB3LYP) =  -1797.48409985     A.U. after   10 cycles
 SCF Done:  E(RB3LYP) =  -1797.48410083     A.U. after    8 cycles
 SCF Done:  E(RB3LYP) =  -1797.48410126     A.U. after    8 cycles
 SCF Done:  E(RB3LYP) =  -1797.48410159     A.U. after    8 cycles
 SCF Done:  E(RB3LYP) =  -1797.48410177     A.U. after    7 cycles
 SCF Done:  E(RB3LYP) =  -1797.48410182     A.U. after    7 cycles
 SCF Done:  E(RB3LYP) =  -1797.48410185     A.U. after    6 cycles
 Optimization completed.
    -- Stationary point found.

                         Standard orientation:
 ---------------------------------------------------------------------
 Center     Atomic      Atomic             Coordinates (Angstroms)
 Number     Number       Type             X           Y           Z
 ---------------------------------------------------------------------
      1          6           0       -7.131328   -0.452887   -2.049560
      2          6           0       -6.337414    0.178854   -3.006626
      3          6           0       -4.946549    0.175234   -2.875296
      4          6           0       -4.357490   -0.460384   -1.788879
      5          6           0       -5.153467   -1.093487   -0.828698
      6          6           0       -6.537320   -1.090567   -0.957633
      7          8           0       -4.601790   -1.735671    0.264294
      8          6           0       -3.227863   -1.710198    0.359023
      9          6           0       -2.628575   -2.338296    1.443586
     10          6           0       -1.240700   -2.323101    1.585886
     11          6           0       -0.443909   -1.692696    0.623866
     12          7           0        0.978728   -1.719149    0.744006
     13          6           0        1.690844   -2.931644    0.666084
     14          6           0        1.235361   -4.227817    0.919331
     15          6           0        2.132475   -5.280029    0.766194
     16          6           0        3.454124   -5.044697    0.358619
     17          6           0        3.893506   -3.756426    0.078032
     18          6           0        3.010085   -2.670481    0.217925
     19          6           0        3.095945   -1.243037   -0.033677
     20          6           0        4.128183   -0.431906   -0.615432
     21          6           0        5.408407   -0.927620   -0.968375
     22          6           0        6.342028   -0.133545   -1.603186
     23          6           0        6.036988    1.204891   -1.917591
     24          6           0        4.808643    1.727135   -1.570769
     25          6           0        3.834554    0.942205   -0.905751
     26          6           0        2.590560    1.494772   -0.468264
     27          6           0        2.067053    2.858699   -0.545918
     28          6           0        2.378351    4.154993   -1.000967
     29          6           0        1.513126    5.216616   -0.677370
     30          6           0        0.361697    5.079220    0.125867
     31          6           0        0.034151    3.803539    0.597935
     32          6           0       -0.859350    3.127049    1.539375
     33          6           0       -1.891625    3.584051    2.358685
     34          6           0       -2.486634    2.707086    3.266147
     35          6           0       -2.038754    1.385350    3.370082
     36          6           0       -1.014131    0.894945    2.555843
     37          6           0       -0.450012    1.751739    1.619071
     38          7           0        0.596043    1.552424    0.677793
     39          6           0        0.878458    2.792132    0.165844
     40          6           0        1.646207    0.706666    0.249150
     41          6           0        1.847541   -0.695912    0.326968
     42          6           0       -1.047336   -1.075250   -0.479117
     43          6           0       -2.430921   -1.071461   -0.599083
     44          8           0       -2.977963   -0.443888   -1.694768
     45          1           0       -8.212737   -0.453185   -2.146133
     46          1           0       -6.793278    0.676327   -3.857165
     47          1           0       -4.303134    0.658922   -3.603399
     48          1           0       -7.129481   -1.589819   -0.197182
     49          1           0       -3.263039   -2.820357    2.180222
     50          1           0       -0.780436   -2.775952    2.457095
     51          1           0        0.211212   -4.417995    1.216266
     52          1           0        1.800251   -6.295120    0.964908
     53          1           0        4.141551   -5.878999    0.251383
     54          1           0        4.913609   -3.614283   -0.254994
     55          1           0        5.670288   -1.949453   -0.730980
     56          1           0        7.314173   -0.545053   -1.860766
     57          1           0        6.769949    1.827641   -2.423125
     58          1           0        4.584632    2.762223   -1.799968
     59          1           0        3.269034    4.370885   -1.581246
     60          1           0        1.767165    6.208203   -1.042201
     61          1           0       -0.225683    5.957166    0.379439
     62          1           0       -2.211793    4.620989    2.302681
     63          1           0       -3.288043    3.057808    3.910041
     64          1           0       -2.488440    0.721167    4.102956
     65          1           0       -0.665996   -0.121657    2.666665
     66          1           0       -0.454639   -0.598338   -1.251217
 ---------------------------------------------------------------------

 The electronic state is 1-A.
 Alpha  occ. eigenvalues --  -19.20901 -19.20888 -14.39194 -14.39015 -10.26928
 Alpha  occ. eigenvalues --  -10.26663 -10.26288 -10.26230 -10.24558 -10.24486
 Alpha  occ. eigenvalues --  -10.23765 -10.23723 -10.22644 -10.20833 -10.20594
 Alpha  occ. eigenvalues --  -10.20525 -10.20383 -10.20208 -10.20075 -10.20036
 Alpha  occ. eigenvalues --  -10.20024 -10.19833 -10.19827 -10.19774 -10.19689
 Alpha  occ. eigenvalues --  -10.19642 -10.19638 -10.19585 -10.19441 -10.19426
 Alpha  occ. eigenvalues --  -10.19318 -10.19197 -10.19085 -10.19030 -10.19027
 Alpha  occ. eigenvalues --  -10.18981 -10.18870 -10.18864 -10.18652 -10.18537
 Alpha  occ. eigenvalues --  -10.18510 -10.18465 -10.18436 -10.18406  -1.11608
 Alpha  occ. eigenvalues --   -1.08203  -1.01102  -0.99274  -0.88666  -0.87584
 Alpha  occ. eigenvalues --   -0.86109  -0.85392  -0.84820  -0.84251  -0.81984
 Alpha  occ. eigenvalues --   -0.80719  -0.78407  -0.77465  -0.76793  -0.75843
 Alpha  occ. eigenvalues --   -0.75494  -0.75030  -0.74425  -0.73804  -0.72511
 Alpha  occ. eigenvalues --   -0.72133  -0.71346  -0.70305  -0.66645  -0.65289
 Alpha  occ. eigenvalues --   -0.64851  -0.64000  -0.62719  -0.61757  -0.61151
 Alpha  occ. eigenvalues --   -0.60725  -0.59467  -0.59149  -0.59023  -0.57556
 Alpha  occ. eigenvalues --   -0.56892  -0.56096  -0.54336  -0.53503  -0.52586
 Alpha  occ. eigenvalues --   -0.51906  -0.51107  -0.50794  -0.50499  -0.49006
 Alpha  occ. eigenvalues --   -0.48555  -0.48241  -0.47840  -0.46637  -0.46111
 Alpha  occ. eigenvalues --   -0.45748  -0.45432  -0.45318  -0.45280  -0.44656
 Alpha  occ. eigenvalues --   -0.44463  -0.44119  -0.43780  -0.43373  -0.42929
 Alpha  occ. eigenvalues --   -0.42824  -0.42413  -0.41906  -0.41782  -0.41491
 Alpha  occ. eigenvalues --   -0.41081  -0.40853  -0.40576  -0.40102  -0.38790
 Alpha  occ. eigenvalues --   -0.38516  -0.37966  -0.37746  -0.37442  -0.37079
 Alpha  occ. eigenvalues --   -0.36598  -0.36312  -0.35898  -0.35390  -0.35179
 Alpha  occ. eigenvalues --   -0.34995  -0.34347  -0.34005  -0.33720  -0.33616
 Alpha  occ. eigenvalues --   -0.32864  -0.32035  -0.30753  -0.29994  -0.27305
 Alpha  occ. eigenvalues --   -0.27137  -0.26620  -0.25241  -0.25047  -0.24771
 Alpha  occ. eigenvalues --   -0.24484  -0.22156  -0.21636  -0.20579  -0.19396
 Alpha  occ. eigenvalues --   -0.19068
 Alpha virt. eigenvalues --   -0.05741  -0.02635  -0.02050  -0.01854  -0.00801
 Alpha virt. eigenvalues --   -0.00700   0.00088   0.00576   0.01355   0.02366
 Alpha virt. eigenvalues --    0.03015   0.04088   0.06289   0.07575   0.08497

 Mulliken charges:
               1
     1  C   -0.133955
     2  C   -0.134140
     3  C   -0.202736
     4  C    0.344836
     5  C    0.341855
     6  C   -0.203419
     7  O   -0.572475
     8  C    0.356073
     9  C   -0.210494
    10  C   -0.186641
    11  C    0.263075
    12  N   -0.739631
    13  C    0.289658
    14  C   -0.178376
    15  C   -0.142594
    16  C   -0.139027
    17  C   -0.204826
    18  C    0.078300
    19  C   -0.072093
    20  C    0.094936
    21  C   -0.202074
    22  C   -0.137698
    23  C   -0.140576
    24  C   -0.197677
    25  C    0.094143
    26  C   -0.124543
    27  C    0.189086
    28  C   -0.242783
    29  C   -0.129102
    30  C   -0.238316
    31  C    0.166946
    32  C    0.015358
    33  C   -0.200696
    34  C   -0.140185
    35  C   -0.149363
    36  C   -0.153435
    37  C    0.330639
    38  N   -0.781249
    39  C    0.138892
    40  C    0.338370
    41  C    0.299171
    42  C   -0.234523
    43  C    0.355579
    44  O   -0.570707
    45  H    0.136513
    46  H    0.137097
    47  H    0.152781
    48  H    0.149340
    49  H    0.154925
    50  H    0.154870
    51  H    0.139000
    52  H    0.128577
    53  H    0.126277
    54  H    0.145059
    55  H    0.136440
    56  H    0.126736
    57  H    0.127174
    58  H    0.136428
    59  H    0.144125
    60  H    0.125743
    61  H    0.133141
    62  H    0.133665
    63  H    0.127843
    64  H    0.128351
    65  H    0.148648
    66  H    0.173680
 Sum of Mulliken charges =  -0.00000

 Dipole moment (field-independent basis, Debye):
    X=             -2.2206    Y=             -0.3109    Z=              0.0433  Tot=              2.2427
 Quadrupole moment (field-independent basis, Debye-Ang):
   XX=           -223.3611   YY=           -230.1271   ZZ=           -241.8050
   XY=             -1.7907   XZ=             -6.1404   YZ=             -8.5649

 Normal termination of Gaussian 16 at Sat Nov  5 02:00:18 2022.
