 Gaussian 16, Revision B.01,
 Gaussian 16:  ES64L-G16RevB.01 20-Dec-2017

 -------------------------------------------------------------------
 #p b3lyp/6-31g(d) 6D 10F nosymm GFInput td=(50-50,nstate=2) SCF=XQC
 -------------------------------------------------------------------

 ------------------------------
 Gaussian input prepared by ASE
 ------------------------------
 Symbolic Z-matrix:
 Charge =  0 Multiplicity = 1

                          Input orientation:
 ---------------------------------------------------------------------
 Center     Atomic      Atomic             Coordinates (Angstroms)
 Number     Number       Type             X           Y           Z
 ---------------------------------------------------------------------
      1          6           0        6.631936   -3.122929   -1.461736
      2          6           0        5.816262   -3.037975   -2.589934
      3          6           0        4.626512   -2.307376   -2.540059
      4          6           0        4.259555   -1.665424   -1.363392
      5          6           0        5.077093   -1.750944   -0.231728
      6          6           0        6.260878   -2.477615   -0.279505
      7          8           0        4.743684   -1.125001    0.955038
      8          6           0        3.559925   -0.420765    0.963175
      9          6           0        3.180869    0.220876    2.135584
     10          6           0        1.982002    0.932402    2.191489
     11          6           0        1.165497    1.020914    1.058682
     12          7           0       -0.037202    1.789480    1.101713
     13          6           0       -0.000217    3.184416    1.291737
     14          6           0        0.999567    3.956631    1.888209
     15          6           0        0.812885    5.333629    1.954853
     16          6           0       -0.342966    5.928992    1.427778
     17          6           0       -1.320210    5.159560    0.807782
     18          6           0       -1.159879    3.764675    0.719085
     19          6           0       -1.916842    2.684599    0.111866
     20          6           0       -3.092752    2.682449   -0.712222
     21          6           0       -3.849560    3.845892   -1.000172
     22          6           0       -4.924286    3.814150   -1.865703
     23          6           0       -5.296076    2.607412   -2.489294
     24          6           0       -4.595289    1.451331   -2.216842
     25          6           0       -3.496768    1.448176   -1.322160
     26          6           0       -2.814870    0.242173   -0.968867
     27          6           0       -3.059395   -1.146803   -1.357891
     28          6           0       -3.901453   -1.960175   -2.141293
     29          6           0       -3.777391   -3.358804   -2.047396
     30          6           0       -2.886609   -4.014890   -1.172231
     31          6           0       -2.044559   -3.230338   -0.376666
     32          6           0       -1.119524   -3.329500    0.753277
     33          6           0       -0.635963   -4.412340    1.487674
     34          6           0        0.147277   -4.179333    2.618528
     35          6           0        0.428914   -2.870679    3.026561
     36          6           0       -0.032047   -1.765465    2.305901
     37          6           0       -0.773694   -1.993244    1.153537
     38          7           0       -1.378526   -1.092330    0.235661
     39          6           0       -2.157012   -1.864440   -0.586855
     40          6           0       -1.749226    0.248125   -0.024427
     41          6           0       -1.214468    1.494717    0.392535
     42          6           0        1.556834    0.389149   -0.128611
     43          6           0        2.738316   -0.339731   -0.167956
     44          8           0        3.075803   -0.950676   -1.353907
     45          1           0        7.557562   -3.689430   -1.494382
     46          1           0        6.099169   -3.537567   -3.511388
     47          1           0        3.971292   -2.223967   -3.401337
     48          1           0        6.875147   -2.526452    0.614073
     49          1           0        3.826189    0.139409    3.004196
     50          1           0        1.668796    1.393947    3.121436
     51          1           0        1.902681    3.505155    2.280352
     52          1           0        1.575234    5.951546    2.420977
     53          1           0       -0.473506    7.005313    1.495665
     54          1           0       -2.188768    5.654895    0.393088
     55          1           0       -3.589580    4.783331   -0.528263
     56          1           0       -5.482912    4.724529   -2.065452
     57          1           0       -6.138176    2.584340   -3.175552
     58          1           0       -4.895340    0.521972   -2.686290
     59          1           0       -4.654097   -1.550190   -2.806190
     60          1           0       -4.431829   -3.969326   -2.663722
     61          1           0       -2.889042   -5.099722   -1.115324
     62          1           0       -0.887762   -5.426815    1.190484
     63          1           0        0.523352   -5.018081    3.197260
     64          1           0        1.013014   -2.702020    3.927029
     65          1           0        0.175883   -0.762592    2.649368
     66          1           0        0.955671    0.458752   -1.027851
 ---------------------------------------------------------------------

 SCF Done:  E(RB3LYP) =  -1797.48410126     A.U. after   16 cycles

 Excitation energies and oscillator strengths:

 Excited state symmetry could not be determined.
 Excited State   1:      Triplet-?Sym    2.2931 eV  540.67 nm  f=0.0000  <S**2>=2.000
     145 ->147         0.17630
     146 ->147         0.64002
     146 ->149         0.10818
 This state for optimization and/or second-order correction.
 Total Energy, E(TD-HF/TD-DFT) =  -1797.39982976
 Copying the excited state density for this state as the 1-particle RhoCI density.

 Excited state symmetry could not be determined.
 Excited State   2:      Triplet-?Sym    2.7819 eV  445.68 nm  f=0.0000  <S**2>=2.000
     144 ->147        -0.22854
     145 ->147         0.62537
     146 ->147        -0.15705

 Excited state symmetry could not be determined.
 Excited State   3:      Singlet-?Sym    3.1974 eV  387.76 nm  f=0.0936  <S**2>=0.000
     145 ->147         0.65980
     146 ->147         0.15449

 Excited state symmetry could not be determined.
 Excited State   4:      Singlet-?Sym    3.2435 eV  382.26 nm  f=0.2548  <S**2>=0.000
     145 ->147        -0.16536
     146 ->147         0.66923

 Alpha  occ. eigenvalues --  -19.20901 -19.20888 -14.39193 -14.39015 -10.26928
 Alpha  occ. eigenvalues --  -10.26663 -10.26288 -10.26230 -10.24558 -10.24486
 Alpha  occ. eigenvalues --  -10.23765 -10.23723 -10.22644 -10.20833 -10.20594
 Alpha  occ. eigenvalues --  -10.20526 -10.20383 -10.20208 -10.20075 -10.20036
 Alpha  occ. eigenvalues --  -10.20024 -10.19833 -10.19827 -10.19774 -10.19689
 Alpha  occ. eigenvalues --  -10.19642 -10.19638 -10.19585 -10.19441 -10.19426
 Alpha  occ. eigenvalues --  -10.19318 -10.19197 -10.19085 -10.19030 -10.19027
 Alpha  occ. eigenvalues --  -10.18981 -10.18870 -10.18864 -10.18651 -10.18537
 Alpha  occ. eigenvalues --  -10.18510 -10.18465 -10.18436 -10.18406  -1.11608
 Alpha  occ. eigenvalues --   -1.08203  -1.01102  -0.99274  -0.88666  -0.87584
 Alpha  occ. eigenvalues --   -0.86109  -0.85392  -0.84820  -0.84251  -0.81984
 Alpha  occ. eigenvalues --   -0.80719  -0.78407  -0.77465  -0.76793  -0.75843
 Alpha  occ. eigenvalues --   -0.75494  -0.75030  -0.74425  -0.73804  -0.72511
 Alpha  occ. eigenvalues --   -0.72133  -0.71346  -0.70305  -0.66645  -0.65289
 Alpha  occ. eigenvalues --   -0.64851  -0.64000  -0.62719  -0.61757  -0.61151
 Alpha  occ. eigenvalues --   -0.60725  -0.59467  -0.59149  -0.59023  -0.57556
 Alpha  occ. eigenvalues --   -0.56892  -0.56096  -0.54336  -0.53503  -0.52586
 Alpha  occ. eigenvalues --   -0.51906  -0.51107  -0.50794  -0.50499  -0.49006
 Alpha  occ. eigenvalues --   -0.48555  -0.48241  -0.47840  -0.46637  -0.46111
 Alpha  occ. eigenvalues --   -0.45748  -0.45432  -0.45318  -0.45280  -0.44656
 Alpha  occ. eigenvalues --   -0.44463  -0.44119  -0.43779  -0.43373  -0.42929
 Alpha  occ. eigenvalues --   -0.42824  -0.42413  -0.41906  -0.41782  -0.41491
 Alpha  occ. eigenvalues --   -0.41081  -0.40853  -0.40576  -0.40102  -0.38790
 Alpha  occ. eigenvalues --   -0.38516  -0.37966  -0.37746  -0.37442  -0.37079
 Alpha  occ. eigenvalues --   -0.36597  -0.36312  -0.35898  -0.35390  -0.35179
 Alpha  occ. eigenvalues --   -0.34995  -0.34347  -0.34005  -0.33720  -0.33616
 Alpha  occ. eigenvalues --   -0.32863  -0.32035  -0.30753  -0.29994  -0.27305
 Alpha  occ. eigenvalues --   -0.27137  -0.26620  -0.25241  -0.25047  -0.24771
 Alpha  occ. eigenvalues --   -0.24484  -0.22156  -0.21636  -0.20579  -0.19396
 Alpha  occ. eigenvalues --   -0.19068
 Alpha virt. eigenvalues --   -0.05741  -0.02635  -0.02050  -0.01854  -0.00801
 Alpha virt. eigenvalues --   -0.00700   0.00088   0.00576   0.01355   0.02366
 Alpha virt. eigenvalues --    0.03015   0.04088   0.06288   0.07575   0.08497

 Mulliken charges:
               1
     1  C   -0.133949
     2  C   -0.134153
     3  C   -0.202731
     4  C    0.344835
     5  C    0.341851
     6  C   -0.203410
     7  O   -0.572479
     8  C    0.356084
     9  C   -0.210499
    10  C   -0.186645
    11  C    0.263022
    12  N   -0.739618
    13  C    0.289675
    14  C   -0.178383
    15  C   -0.142593
    16  C   -0.139030
    17  C   -0.204824
    18  C    0.078295
    19  C   -0.072090
    20  C    0.094920
    21  C   -0.202065
    22  C   -0.137695
    23  C   -0.140578
    24  C   -0.197680
    25  C    0.094153
    26  C   -0.124542
    27  C    0.189079
    28  C   -0.242785
    29  C   -0.129105
    30  C   -0.238309
    31  C    0.166922
    32  C    0.015373
    33  C   -0.200698
    34  C   -0.140184
    35  C   -0.149366
    36  C   -0.153440
    37  C    0.330652
    38  N   -0.781218
    39  C    0.138898
    40  C    0.338348
    41  C    0.299172
    42  C   -0.234498
    43  C    0.355577
    44  O   -0.570712
    45  H    0.136513
    46  H    0.137099
    47  H    0.152781
    48  H    0.149341
    49  H    0.154925
    50  H    0.154875
    51  H    0.139001
    52  H    0.128577
    53  H    0.126277
    54  H    0.145059
    55  H    0.136439
    56  H    0.126735
    57  H    0.127175
    58  H    0.136429
    59  H    0.144125
    60  H    0.125743
    61  H    0.133141
    62  H    0.133665
    63  H    0.127843
    64  H    0.128350
    65  H    0.148649
    66  H    0.173680
 Sum of Mulliken charges =  -0.00000

 Dipole moment (field-independent basis, Debye):
    X=              2.0156    Y=             -0.9526    Z=              0.2445  Tot=              2.2428
 Quadrupole moment (field-independent basis, Debye-Ang):
   XX=           -230.5961   YY=           -228.2796   ZZ=           -236.2244
   XY=             -6.6858   XZ=             10.7237   YZ=              5.1430

 Normal termination of Gaussian 16 at Sat Nov  5 11:07:55 2022.
