 Gaussian 16, Revision B.01,
 Gaussian 16:  ES64L-G16RevB.01 20-Dec-2017

 -----------------------------
 #p b3lyp/6-31g(d) opt SCF=XQC
 -----------------------------

 ------------------------------
 Gaussian input prepared by ASE
 ------------------------------
 Symbolic Z-matrix:
 Charge =  0 Multiplicity = 1

 SCF Done:  E(RB3LYP) =  -2388.18023855     A.U. after   15 cycles
 SCF Done:  E(RB3LYP) =  -2388.19397416     A.U. after   13 cycles
 SCF Done:  E(RB3LYP) =  -2388.19561037     A.U. after   12 cycles
 SCF Done:  E(RB3LYP) =  -2388.19593396     A.U. after   11 cycles
 SCF Done:  E(RB3LYP) =  -2388.19598667     A.U. after   10 cycles
 SCF Done:  E(RB3LYP) =  -2388.19602601     A.U. after   10 cycles
 SCF Done:  E(RB3LYP) =  -2388.19603725     A.U. after    9 cycles
 SCF Done:  E(RB3LYP) =  -2388.19604499     A.U. after    9 cycles
 SCF Done:  E(RB3LYP) =  -2388.19604643     A.U. after    8 cycles
 SCF Done:  E(RB3LYP) =  -2388.19604699     A.U. after    7 cycles
 SCF Done:  E(RB3LYP) =  -2388.19608076     A.U. after    9 cycles
 SCF Done:  E(RB3LYP) =  -2388.19608221     A.U. after   10 cycles
 SCF Done:  E(RB3LYP) =  -2388.19608296     A.U. after   10 cycles
 SCF Done:  E(RB3LYP) =  -2388.19608350     A.U. after   10 cycles
 SCF Done:  E(RB3LYP) =  -2388.19608417     A.U. after    9 cycles
 SCF Done:  E(RB3LYP) =  -2388.19608442     A.U. after    7 cycles
 SCF Done:  E(RB3LYP) =  -2388.19608502     A.U. after   10 cycles
 SCF Done:  E(RB3LYP) =  -2388.19608508     A.U. after    9 cycles
 SCF Done:  E(RB3LYP) =  -2388.19608508     A.U. after    7 cycles
 SCF Done:  E(RB3LYP) =  -2388.19608508     A.U. after    6 cycles
 Optimization completed.
    -- Stationary point found.

                         Standard orientation:
 ---------------------------------------------------------------------
 Center     Atomic      Atomic             Coordinates (Angstroms)
 Number     Number       Type             X           Y           Z
 ---------------------------------------------------------------------
      1          6           0       -8.624817    0.884962    3.037247
      2          6           0       -8.069599   -0.083030    2.018904
      3          6           0       -8.900985   -0.995365    1.358722
      4          6           0       -8.380869   -1.863212    0.404528
      5          6           0       -7.016612   -1.869930    0.068866
      6          6           0       -6.562425   -2.795002   -1.008876
      7          6           0       -5.817566   -2.333010   -2.106627
      8          6           0       -5.447044   -3.199469   -3.133568
      9          6           0       -5.811368   -4.546890   -3.085445
     10          6           0       -6.552747   -5.019927   -2.002003
     11          6           0       -6.926511   -4.151311   -0.976112
     12          6           0       -6.160180   -0.968174    0.745195
     13          6           0       -4.683674   -0.927987    0.540055
     14          6           0       -3.893750   -2.093690    0.623867
     15          6           0       -2.517811   -2.020990    0.486331
     16          6           0       -1.827521   -0.807666    0.252971
     17          6           0       -2.646812    0.343124    0.191289
     18          6           0       -4.038859    0.290233    0.327289
     19          8           0       -2.169633    1.618350   -0.004930
     20          6           0       -0.836367    1.885451   -0.127038
     21          6           0       -0.487956    3.219903   -0.295070
     22          6           0        0.872722    3.557638   -0.424801
     23          7           0        1.252372    4.906155   -0.584917
     24          6           0        0.496640    5.952398    0.022127
     25          6           0        0.158159    7.096734   -0.715193
     26          6           0       -0.560350    8.130104   -0.116146
     27          6           0       -0.964850    8.031987    1.216710
     28          6           0       -0.634421    6.890503    1.950518
     29          6           0        0.099090    5.860308    1.364732
     30          6           0        2.400740    5.252353   -1.357056
     31          6           0        3.325601    6.185342   -0.865383
     32          6           0        4.435937    6.541624   -1.629050
     33          6           0        4.649069    5.963544   -2.882095
     34          6           0        3.732802    5.029394   -3.370373
     35          6           0        2.610420    4.680745   -2.621260
     36          6           0        1.853861    2.548623   -0.394681
     37          6           0        1.454518    1.225817   -0.247422
     38          6           0        0.107997    0.842426   -0.102780
     39          5           0       -0.300221   -0.607531    0.067080
     40          6           0        0.891400   -1.600094    0.018928
     41          6           0        0.840087   -3.011524    0.082802
     42          6           0        1.973317   -3.808431    0.037450
     43          6           0        3.255367   -3.229623   -0.068448
     44          6           0        4.466463   -4.094528   -0.163761
     45          6           0        4.456208   -5.121913   -1.122289
     46          6           0        5.551618   -5.958334   -1.347011
     47          6           0        5.496335   -7.060378   -2.378920
     48          6           0        6.701008   -5.744869   -0.576896
     49          6           0        6.729957   -4.742777    0.386902
     50          6           0        5.626967   -3.905253    0.624144
     51          6           0        5.731963   -2.898229    1.719119
     52          6           0        4.766106   -2.816857    2.735831
     53          6           0        4.906536   -1.907896    3.782872
     54          6           0        6.014483   -1.059125    3.836111
     55          6           0        6.982831   -1.129717    2.834097
     56          6           0        6.843552   -2.042588    1.788091
     57          6           0        3.346332   -1.840610   -0.146238
     58          6           0        2.190858   -1.053984   -0.110375
     59          8           0        2.449190    0.292367   -0.225433
     60          6           0       -6.710636   -0.093666    1.697242
     61          1           0       -9.147567    1.718773    2.549968
     62          1           0       -9.347108    0.397472    3.702047
     63          1           0       -7.830868    1.313486    3.657141
     64          1           0       -9.964663   -1.021226    1.585514
     65          1           0       -9.048306   -2.539923   -0.122103
     66          1           0       -5.536544   -1.285564   -2.157259
     67          1           0       -4.875332   -2.819421   -3.976198
     68          1           0       -5.519977   -5.221572   -3.886038
     69          1           0       -6.838937   -6.067396   -1.951670
     70          1           0       -7.494377   -4.528004   -0.129267
     71          1           0       -4.371150   -3.050397    0.808332
     72          1           0       -1.948968   -2.939432    0.577083
     73          1           0       -4.602468    1.214878    0.253077
     74          1           0       -1.260212    3.978039   -0.330371
     75          1           0        0.462355    7.169552   -1.754610
     76          1           0       -0.815333    9.010419   -0.700257
     77          1           0       -1.530421    8.836121    1.678816
     78          1           0       -0.935949    6.804763    2.991131
     79          1           0        0.366747    4.980342    1.940993
     80          1           0        3.167241    6.626956    0.113464
     81          1           0        5.143978    7.265753   -1.234749
     82          1           0        5.518988    6.238103   -3.471917
     83          1           0        3.882630    4.577486   -4.347316
     84          1           0        1.892628    3.964612   -3.008527
     85          1           0        2.906896    2.786790   -0.476813
     86          1           0       -0.124407   -3.500095    0.163237
     87          1           0        1.880960   -4.888998    0.100715
     88          1           0        3.566196   -5.243877   -1.734918
     89          1           0        4.651594   -6.927298   -3.062232
     90          1           0        5.384561   -8.044626   -1.904959
     91          1           0        6.413411   -7.095060   -2.978325
     92          1           0        7.576608   -6.373335   -0.724945
     93          1           0        7.619089   -4.615432    0.998431
     94          1           0        3.904991   -3.477572    2.707037
     95          1           0        4.149602   -1.865137    4.561697
     96          1           0        6.121029   -0.348853    4.651681
     97          1           0        7.847075   -0.471056    2.862337
     98          1           0        7.595323   -2.084825    1.004154
     99          1           0        4.306353   -1.346695   -0.246675
    100          1           0       -6.038915    0.578094    2.226054
 ---------------------------------------------------------------------

 The electronic state is 1-A.
 Alpha  occ. eigenvalues --  -19.19909 -19.19790 -14.36871 -10.25307 -10.25278
 Alpha  occ. eigenvalues --  -10.25047 -10.24940 -10.24029 -10.23072 -10.23048
 Alpha  occ. eigenvalues --  -10.20118 -10.20061 -10.19873 -10.19829 -10.19689
 Alpha  occ. eigenvalues --  -10.19637 -10.19597 -10.19571 -10.19474 -10.19355
 Alpha  occ. eigenvalues --  -10.19248 -10.19243 -10.19218 -10.19209 -10.19015
 Alpha  occ. eigenvalues --  -10.19008 -10.18988 -10.18986 -10.18909 -10.18878
 Alpha  occ. eigenvalues --  -10.18785 -10.18696 -10.18687 -10.18657 -10.18649
 Alpha  occ. eigenvalues --  -10.18572 -10.18542 -10.18529 -10.18513 -10.18505
 Alpha  occ. eigenvalues --  -10.18505 -10.18486 -10.18466 -10.18436 -10.18398
 Alpha  occ. eigenvalues --  -10.18396 -10.18394 -10.18393 -10.18379 -10.18373
 Alpha  occ. eigenvalues --  -10.18264 -10.18219 -10.18186 -10.18048 -10.17956
 Alpha  occ. eigenvalues --  -10.17922 -10.16872 -10.16866 -10.15994  -6.71327
 Alpha  occ. eigenvalues --   -1.08898  -1.08721  -0.96748  -0.87127  -0.87040
 Alpha  occ. eigenvalues --   -0.85859  -0.85531  -0.84862  -0.84705  -0.84116
 Alpha  occ. eigenvalues --   -0.84035  -0.83236  -0.78707  -0.78613  -0.77511
 Alpha  occ. eigenvalues --   -0.76994  -0.76331  -0.76184  -0.75532  -0.74604
 Alpha  occ. eigenvalues --   -0.74506  -0.73914  -0.73840  -0.73728  -0.73539
 Alpha  occ. eigenvalues --   -0.73459  -0.72362  -0.72072  -0.71012  -0.70678
 Alpha  occ. eigenvalues --   -0.67944  -0.67896  -0.64628  -0.64375  -0.63452
 Alpha  occ. eigenvalues --   -0.62365  -0.61641  -0.61340  -0.60897  -0.60650
 Alpha  occ. eigenvalues --   -0.60413  -0.59980  -0.59745  -0.59393  -0.59066
 Alpha  occ. eigenvalues --   -0.58737  -0.57576  -0.56965  -0.56073  -0.54875
 Alpha  occ. eigenvalues --   -0.53715  -0.53500  -0.52589  -0.51692  -0.51410
 Alpha  occ. eigenvalues --   -0.51192  -0.50263  -0.48858  -0.48285  -0.48107
 Alpha  occ. eigenvalues --   -0.48090  -0.47569  -0.47542  -0.47219  -0.46755
 Alpha  occ. eigenvalues --   -0.46511  -0.46322  -0.45888  -0.45053  -0.44930
 Alpha  occ. eigenvalues --   -0.44792  -0.44544  -0.44308  -0.44173  -0.43719
 Alpha  occ. eigenvalues --   -0.43660  -0.43538  -0.43497  -0.43158  -0.42969
 Alpha  occ. eigenvalues --   -0.42620  -0.42285  -0.42156  -0.41953  -0.41818
 Alpha  occ. eigenvalues --   -0.41719  -0.41440  -0.41325  -0.41247  -0.40669
 Alpha  occ. eigenvalues --   -0.40592  -0.39860  -0.39796  -0.38941  -0.38740
 Alpha  occ. eigenvalues --   -0.38679  -0.37739  -0.37449  -0.36788  -0.36674
 Alpha  occ. eigenvalues --   -0.36515  -0.36451  -0.36274  -0.36067  -0.35836
 Alpha  occ. eigenvalues --   -0.35801  -0.35664  -0.35339  -0.35176  -0.34951
 Alpha  occ. eigenvalues --   -0.34827  -0.34665  -0.34475  -0.34284  -0.34130
 Alpha  occ. eigenvalues --   -0.33634  -0.33514  -0.33183  -0.32962  -0.32715
 Alpha  occ. eigenvalues --   -0.32619  -0.30195  -0.30164  -0.29453  -0.27813
 Alpha  occ. eigenvalues --   -0.26308  -0.26064  -0.26042  -0.25955  -0.25792
 Alpha  occ. eigenvalues --   -0.25586  -0.25108  -0.24798  -0.24524  -0.24377
 Alpha  occ. eigenvalues --   -0.23706  -0.23260  -0.22889  -0.21739  -0.21366
 Alpha  occ. eigenvalues --   -0.20000  -0.18808
 Alpha virt. eigenvalues --   -0.05782  -0.02749  -0.02094  -0.01439  -0.01241
 Alpha virt. eigenvalues --   -0.01117  -0.00922   0.00153   0.00298   0.00495
 Alpha virt. eigenvalues --    0.00562   0.00885   0.01183   0.01428   0.02491

 Mulliken charges:
               1
     1  C   -0.532025
     2  C    0.186020
     3  C   -0.179322
     4  C   -0.177605
     5  C    0.040162
     6  C    0.058566
     7  C   -0.150980
     8  C   -0.134789
     9  C   -0.126888
    10  C   -0.134726
    11  C   -0.170419
    12  C    0.048987
    13  C    0.054498
    14  C   -0.134130
    15  C   -0.228701
    16  C    0.098957
    17  C    0.272331
    18  C   -0.234027
    19  O   -0.553091
    20  C    0.308506
    21  C   -0.259575
    22  C    0.321900
    23  N   -0.662311
    24  C    0.267338
    25  C   -0.157422
    26  C   -0.140435
    27  C   -0.126033
    28  C   -0.140727
    29  C   -0.153555
    30  C    0.267117
    31  C   -0.157173
    32  C   -0.140366
    33  C   -0.125848
    34  C   -0.140437
    35  C   -0.153238
    36  C   -0.258936
    37  C    0.309325
    38  C   -0.004007
    39  B    0.036118
    40  C    0.097903
    41  C   -0.227523
    42  C   -0.154222
    43  C    0.053281
    44  C    0.048627
    45  C   -0.240120
    46  C    0.186592
    47  C   -0.532176
    48  C   -0.179211
    49  C   -0.177712
    50  C    0.041303
    51  C    0.059612
    52  C   -0.151548
    53  C   -0.134308
    54  C   -0.125755
    55  C   -0.133621
    56  C   -0.169562
    57  C   -0.212255
    58  C    0.271271
    59  O   -0.550631
    60  C   -0.238196
    61  H    0.166009
    62  H    0.159430
    63  H    0.158332
    64  H    0.123217
    65  H    0.135266
    66  H    0.140053
    67  H    0.131439
    68  H    0.127951
    69  H    0.128274
    70  H    0.130778
    71  H    0.137454
    72  H    0.134372
    73  H    0.142932
    74  H    0.153043
    75  H    0.145149
    76  H    0.133265
    77  H    0.129658
    78  H    0.133787
    79  H    0.147055
    80  H    0.144901
    81  H    0.133113
    82  H    0.129815
    83  H    0.134315
    84  H    0.146924
    85  H    0.154744
    86  H    0.134608
    87  H    0.129550
    88  H    0.130295
    89  H    0.157885
    90  H    0.165366
    91  H    0.159908
    92  H    0.123058
    93  H    0.135340
    94  H    0.138408
    95  H    0.130700
    96  H    0.127850
    97  H    0.128294
    98  H    0.130690
    99  H    0.150764
   100  H    0.131199
 Sum of Mulliken charges =  -0.00000

 Dipole moment (field-independent basis, Debye):
    X=              0.0773    Y=              0.5813    Z=             -0.0711  Tot=              0.5907
 Quadrupole moment (field-independent basis, Debye-Ang):
   XX=           -311.4828   YY=           -303.8782   ZZ=           -328.3186
   XY=              0.7848   XZ=            -13.1376   YZ=              9.4518

 Normal termination of Gaussian 16 at Sat Nov  5 03:02:32 2022.
