 Gaussian 16, Revision B.01,
 Gaussian 16:  ES64L-G16RevB.01 20-Dec-2017

 -------------------------------------------------------------------
 #p b3lyp/6-31g(d) 6D 10F nosymm GFInput td=(50-50,nstate=2) SCF=XQC
 -------------------------------------------------------------------

 ------------------------------
 Gaussian input prepared by ASE
 ------------------------------
 Symbolic Z-matrix:
 Charge =  0 Multiplicity = 1

                          Input orientation:
 ---------------------------------------------------------------------
 Center     Atomic      Atomic             Coordinates (Angstroms)
 Number     Number       Type             X           Y           Z
 ---------------------------------------------------------------------
      1          6           0       -8.004219   -0.014393    4.453801
      2          6           0       -7.494930   -0.963366    3.394381
      3          6           0       -8.284002   -2.022928    2.931680
      4          6           0       -7.812649   -2.873429    1.937376
      5          6           0       -6.539394   -2.716020    1.364701
      6          6           0       -6.144951   -3.640363    0.263077
      7          6           0       -5.673635   -3.155406   -0.968178
      8          6           0       -5.360648   -4.029857   -2.007418
      9          6           0       -5.510306   -5.408163   -1.838696
     10          6           0       -5.979052   -5.904517   -0.621665
     11          6           0       -6.295693   -5.028449    0.417030
     12          6           0       -5.721617   -1.662409    1.839260
     13          6           0       -4.323618   -1.434559    1.372947
     14          6           0       -3.369010   -2.473070    1.363573
     15          6           0       -2.062256   -2.222309    0.980269
     16          6           0       -1.606872   -0.944373    0.577011
     17          6           0       -2.584147    0.076865    0.613997
     18          6           0       -3.909758   -0.156623    0.997829
     19          8           0       -2.339168    1.389332    0.282610
     20          6           0       -1.099817    1.827426   -0.086084
     21          6           0       -0.984185    3.182712   -0.369314
     22          6           0        0.270244    3.693854   -0.753346
     23          7           0        0.415607    5.067841   -1.034946
     24          6           0       -0.370563    6.039206   -0.347455
     25          6           0       -0.993404    7.074571   -1.060058
     26          6           0       -1.742780    8.037767   -0.386519
     27          6           0       -1.895639    7.974716    0.999992
     28          6           0       -1.281660    6.940835    1.710457
     29          6           0       -0.515872    5.983715    1.047149
     30          6           0        1.352520    5.515317   -2.013087
     31          6           0        2.200965    6.596791   -1.733565
     32          6           0        3.100784    7.049601   -2.697027
     33          6           0        3.179700    6.423515   -3.942624
     34          6           0        2.340377    5.342296   -4.220291
     35          6           0        1.425225    4.894409   -3.269312
     36          6           0        1.379114    2.832754   -0.856133
     37          6           0        1.208609    1.480625   -0.584744
     38          6           0       -0.022804    0.927292   -0.186658
     39          5           0       -0.179502   -0.550206    0.113865
     40          6           0        1.118740   -1.371509   -0.104048
     41          6           0        1.286150   -2.769229    0.027102
     42          6           0        2.499339   -3.404953   -0.185868
     43          6           0        3.645929   -2.664701   -0.542581
     44          6           0        4.936439   -3.360329   -0.815682
     45          6           0        4.913568   -4.441309   -1.713101
     46          6           0        6.065142   -5.133264   -2.094020
     47          6           0        5.996823   -6.299101   -3.052429
     48          6           0        7.285086   -4.713592   -1.550554
     49          6           0        7.330772   -3.654701   -0.650222
     50          6           0        6.173782   -2.961854   -0.255691
     51          6           0        6.315188   -1.878911    0.759852
     52          6           0        5.535206   -1.862476    1.927997
     53          6           0        5.717329   -0.874817    2.894220
     54          6           0        6.681855    0.119102    2.713638
     55          6           0        7.465190    0.114645    1.559047
     56          6           0        7.284937   -0.876651    0.593801
     57          6           0        3.518070   -1.284648   -0.693532
     58          6           0        2.283093   -0.662761   -0.485498
     59          8           0        2.318225    0.695515   -0.701105
     60          6           0       -6.223876   -0.809617    2.836578
     61          1           0       -8.718609    0.705612    4.032862
     62          1           0       -8.523535   -0.550448    5.256464
     63          1           0       -7.187691    0.559181    4.903859
     64          1           0       -9.278123   -2.178728    3.345158
     65          1           0       -8.453697   -3.668756    1.566888
     66          1           0       -5.561684   -2.085136   -1.111946
     67          1           0       -5.002626   -3.632484   -2.953585
     68          1           0       -5.263951   -6.088737   -2.649362
     69          1           0       -6.096087   -6.975536   -0.477269
     70          1           0       -6.649741   -5.421699    1.366515
     71          1           0       -3.662816   -3.471547    1.670081
     72          1           0       -1.358085   -3.046202    1.006716
     73          1           0       -4.606920    0.675224    0.986450
     74          1           0       -1.853675    3.824068   -0.298294
     75          1           0       -0.884620    7.118548   -2.139159
     76          1           0       -2.219533    8.833860   -0.952293
     77          1           0       -2.485755    8.723090    1.521283
     78          1           0       -1.385750    6.884531    2.790800
     79          1           0       -0.028157    5.189175    1.602934
     80          1           0        2.148702    7.077134   -0.761566
     81          1           0        3.751926    7.888488   -2.465857
     82          1           0        3.886800    6.774322   -4.688931
     83          1           0        2.386156    4.850739   -5.188466
     84          1           0        0.764607    4.062562   -3.492165
     85          1           0        2.356429    3.206615   -1.134405
     86          1           0        0.431468   -3.378585    0.298442
     87          1           0        2.578233   -4.481318   -0.061889
     88          1           0        3.959807   -4.724543   -2.151769
     89          1           0        5.037821   -6.328805   -3.579350
     90          1           0        6.112634   -7.255432   -2.525270
     91          1           0        6.793495   -6.248125   -3.803583
     92          1           0        8.205087   -5.224934   -1.825672
     93          1           0        8.282700   -3.366343   -0.212704
     94          1           0        4.787855   -2.635147    2.080764
     95          1           0        5.106080   -0.883905    3.792906
     96          1           0        6.820619    0.890259    3.466667
     97          1           0        8.215796    0.885677    1.405264
     98          1           0        7.890208   -0.868094   -0.309013
     99          1           0        4.364204   -0.671960   -0.983965
    100          1           0       -5.577558   -0.018451    3.208654
 ---------------------------------------------------------------------

 SCF Done:  E(RB3LYP) =  -2388.19609287     A.U. after   15 cycles

 Excitation energies and oscillator strengths:

 Excited state symmetry could not be determined.
 Excited State   1:      Triplet-?Sym    2.7598 eV  449.25 nm  f=0.0000  <S**2>=2.000
     202 ->203         0.64455
     202 ->205         0.13701
 This state for optimization and/or second-order correction.
 Total Energy, E(TD-HF/TD-DFT) =  -2388.09467096
 Copying the excited state density for this state as the 1-particle RhoCI density.

 Excited state symmetry could not be determined.
 Excited State   2:      Triplet-?Sym    2.8888 eV  429.19 nm  f=0.0000  <S**2>=2.000
     201 ->203         0.67507

 Excited state symmetry could not be determined.
 Excited State   3:      Singlet-?Sym    3.1174 eV  397.72 nm  f=0.4015  <S**2>=0.000
     202 ->203         0.70060

 Excited state symmetry could not be determined.
 Excited State   4:      Singlet-?Sym    3.3320 eV  372.10 nm  f=0.2348  <S**2>=0.000
     201 ->203         0.69707

 Alpha  occ. eigenvalues --  -19.19909 -19.19790 -14.36872 -10.25307 -10.25278
 Alpha  occ. eigenvalues --  -10.25047 -10.24940 -10.24029 -10.23072 -10.23048
 Alpha  occ. eigenvalues --  -10.20118 -10.20061 -10.19873 -10.19830 -10.19689
 Alpha  occ. eigenvalues --  -10.19637 -10.19597 -10.19571 -10.19474 -10.19355
 Alpha  occ. eigenvalues --  -10.19248 -10.19243 -10.19218 -10.19209 -10.19015
 Alpha  occ. eigenvalues --  -10.19008 -10.18988 -10.18986 -10.18909 -10.18878
 Alpha  occ. eigenvalues --  -10.18785 -10.18696 -10.18687 -10.18657 -10.18649
 Alpha  occ. eigenvalues --  -10.18572 -10.18542 -10.18529 -10.18513 -10.18505
 Alpha  occ. eigenvalues --  -10.18505 -10.18486 -10.18466 -10.18436 -10.18398
 Alpha  occ. eigenvalues --  -10.18396 -10.18394 -10.18393 -10.18379 -10.18373
 Alpha  occ. eigenvalues --  -10.18264 -10.18219 -10.18186 -10.18048 -10.17956
 Alpha  occ. eigenvalues --  -10.17922 -10.16872 -10.16866 -10.15994  -6.71327
 Alpha  occ. eigenvalues --   -1.08898  -1.08721  -0.96748  -0.87127  -0.87040
 Alpha  occ. eigenvalues --   -0.85859  -0.85531  -0.84862  -0.84705  -0.84116
 Alpha  occ. eigenvalues --   -0.84035  -0.83236  -0.78707  -0.78613  -0.77511
 Alpha  occ. eigenvalues --   -0.76994  -0.76331  -0.76184  -0.75532  -0.74604
 Alpha  occ. eigenvalues --   -0.74506  -0.73914  -0.73840  -0.73728  -0.73539
 Alpha  occ. eigenvalues --   -0.73459  -0.72362  -0.72072  -0.71012  -0.70678
 Alpha  occ. eigenvalues --   -0.67944  -0.67896  -0.64628  -0.64375  -0.63452
 Alpha  occ. eigenvalues --   -0.62365  -0.61641  -0.61340  -0.60897  -0.60650
 Alpha  occ. eigenvalues --   -0.60413  -0.59980  -0.59745  -0.59393  -0.59066
 Alpha  occ. eigenvalues --   -0.58737  -0.57576  -0.56965  -0.56073  -0.54875
 Alpha  occ. eigenvalues --   -0.53715  -0.53500  -0.52589  -0.51692  -0.51410
 Alpha  occ. eigenvalues --   -0.51192  -0.50263  -0.48858  -0.48285  -0.48107
 Alpha  occ. eigenvalues --   -0.48090  -0.47569  -0.47542  -0.47219  -0.46755
 Alpha  occ. eigenvalues --   -0.46511  -0.46322  -0.45888  -0.45053  -0.44930
 Alpha  occ. eigenvalues --   -0.44792  -0.44544  -0.44308  -0.44173  -0.43719
 Alpha  occ. eigenvalues --   -0.43660  -0.43538  -0.43497  -0.43158  -0.42969
 Alpha  occ. eigenvalues --   -0.42620  -0.42285  -0.42156  -0.41953  -0.41818
 Alpha  occ. eigenvalues --   -0.41719  -0.41440  -0.41325  -0.41247  -0.40669
 Alpha  occ. eigenvalues --   -0.40592  -0.39860  -0.39796  -0.38941  -0.38740
 Alpha  occ. eigenvalues --   -0.38679  -0.37739  -0.37449  -0.36788  -0.36674
 Alpha  occ. eigenvalues --   -0.36515  -0.36451  -0.36274  -0.36067  -0.35837
 Alpha  occ. eigenvalues --   -0.35801  -0.35664  -0.35339  -0.35176  -0.34951
 Alpha  occ. eigenvalues --   -0.34827  -0.34665  -0.34476  -0.34284  -0.34130
 Alpha  occ. eigenvalues --   -0.33634  -0.33514  -0.33183  -0.32962  -0.32715
 Alpha  occ. eigenvalues --   -0.32619  -0.30195  -0.30164  -0.29453  -0.27813
 Alpha  occ. eigenvalues --   -0.26308  -0.26064  -0.26042  -0.25955  -0.25792
 Alpha  occ. eigenvalues --   -0.25586  -0.25108  -0.24798  -0.24524  -0.24377
 Alpha  occ. eigenvalues --   -0.23706  -0.23260  -0.22889  -0.21739  -0.21366
 Alpha  occ. eigenvalues --   -0.20000  -0.18808
 Alpha virt. eigenvalues --   -0.05782  -0.02749  -0.02094  -0.01439  -0.01241
 Alpha virt. eigenvalues --   -0.01117  -0.00922   0.00153   0.00298   0.00495
 Alpha virt. eigenvalues --    0.00562   0.00885   0.01183   0.01428   0.02490

 Mulliken charges:
               1
     1  C   -0.532027
     2  C    0.186016
     3  C   -0.179320
     4  C   -0.177596
     5  C    0.040147
     6  C    0.058532
     7  C   -0.150961
     8  C   -0.134790
     9  C   -0.126889
    10  C   -0.134727
    11  C   -0.170420
    12  C    0.049003
    13  C    0.054523
    14  C   -0.134139
    15  C   -0.228694
    16  C    0.098918
    17  C    0.272342
    18  C   -0.234031
    19  O   -0.553089
    20  C    0.308496
    21  C   -0.259564
    22  C    0.321882
    23  N   -0.662303
    24  C    0.267349
    25  C   -0.157429
    26  C   -0.140436
    27  C   -0.126033
    28  C   -0.140720
    29  C   -0.153560
    30  C    0.267104
    31  C   -0.157173
    32  C   -0.140372
    33  C   -0.125842
    34  C   -0.140448
    35  C   -0.153223
    36  C   -0.258926
    37  C    0.309278
    38  C   -0.003908
    39  B    0.036058
    40  C    0.097951
    41  C   -0.227527
    42  C   -0.154213
    43  C    0.053260
    44  C    0.048611
    45  C   -0.240116
    46  C    0.186589
    47  C   -0.532174
    48  C   -0.179212
    49  C   -0.177718
    50  C    0.041325
    51  C    0.059628
    52  C   -0.151547
    53  C   -0.134317
    54  C   -0.125747
    55  C   -0.133621
    56  C   -0.169576
    57  C   -0.212244
    58  C    0.271251
    59  O   -0.550624
    60  C   -0.238194
    61  H    0.166009
    62  H    0.159430
    63  H    0.158332
    64  H    0.123216
    65  H    0.135266
    66  H    0.140051
    67  H    0.131439
    68  H    0.127951
    69  H    0.128275
    70  H    0.130779
    71  H    0.137453
    72  H    0.134370
    73  H    0.142932
    74  H    0.153041
    75  H    0.145151
    76  H    0.133265
    77  H    0.129658
    78  H    0.133787
    79  H    0.147054
    80  H    0.144905
    81  H    0.133113
    82  H    0.129815
    83  H    0.134317
    84  H    0.146921
    85  H    0.154745
    86  H    0.134609
    87  H    0.129550
    88  H    0.130295
    89  H    0.157885
    90  H    0.165366
    91  H    0.159908
    92  H    0.123059
    93  H    0.135341
    94  H    0.138405
    95  H    0.130701
    96  H    0.127849
    97  H    0.128293
    98  H    0.130692
    99  H    0.150764
   100  H    0.131198
 Sum of Mulliken charges =  -0.00000

 Dipole moment (field-independent basis, Debye):
    X=             -0.0218    Y=              0.5804    Z=             -0.1081  Tot=              0.5908
 Quadrupole moment (field-independent basis, Debye-Ang):
   XX=           -316.8630   YY=           -302.8064   ZZ=           -323.9026
   XY=             -0.2102   XZ=            -16.3991   YZ=              5.9546

 Normal termination of Gaussian 16 at Sat Nov  5 10:51:08 2022.
