 Gaussian 16, Revision B.01,
 Gaussian 16:  ES64L-G16RevB.01 20-Dec-2017

 -------------------------------------------------------------------
 #p b3lyp/6-31g(d) 6D 10F nosymm GFInput td=(50-50,nstate=2) SCF=XQC
 -------------------------------------------------------------------

 ------------------------------
 Gaussian input prepared by ASE
 ------------------------------
 Symbolic Z-matrix:
 Charge =  0 Multiplicity = 1

                          Input orientation:
 ---------------------------------------------------------------------
 Center     Atomic      Atomic             Coordinates (Angstroms)
 Number     Number       Type             X           Y           Z
 ---------------------------------------------------------------------
      1          6           0       -6.462598   -6.978577    5.277547
      2          6           0       -5.573292   -6.454305    6.220528
      3          6           0       -4.707794   -5.406947    5.882613
      4          6           0       -4.744801   -4.891614    4.590497
      5          6           0       -5.651933   -5.426838    3.628122
      6          6           0       -6.507436   -6.467915    3.974500
      7          6           0       -5.462859   -4.691775    2.363215
      8          6           0       -6.016788   -4.760992    1.101747
      9          6           0       -5.539834   -3.871432    0.101524
     10          6           0       -4.552058   -2.932650    0.348490
     11          6           0       -3.972909   -2.819119    1.647026
     12          6           0       -2.937410   -1.917299    2.078374
     13          6           0       -2.361649   -0.881154    1.179457
     14          6           0       -0.973628   -0.761026    1.037096
     15          6           0       -0.418622    0.230569    0.217879
     16          6           0        1.054997    0.346338    0.077733
     17          7           0        1.820837   -0.514316    0.760304
     18          6           0        3.148187   -0.369409    0.601422
     19          6           0        4.039905   -1.300851    1.330345
     20          6           0        5.463718   -1.165483    1.223508
     21          6           0        6.304525   -2.014652    1.886208
     22          6           0        5.790974   -3.068998    2.706433
     23          7           0        6.655216   -3.878510    3.336203
     24          6           0        6.162810   -4.867909    4.103067
     25          6           0        7.082056   -5.731709    4.774830
     26          6           0        6.628528   -6.754640    5.566356
     27          6           0        5.230787   -6.981892    5.738695
     28          6           0        4.315644   -6.177109    5.113035
     29          6           0        4.746411   -5.099705    4.279761
     30          6           0        3.862974   -4.244583    3.615815
     31          6           0        4.356548   -3.209440    2.814526
     32          6           0        3.511548   -2.304895    2.112598
     33          7           0        3.716401    0.563168   -0.175043
     34          6           0        2.868782    1.381250   -0.822954
     35          6           0        3.444079    2.427573   -1.698664
     36          6           0        2.580109    3.323334   -2.411987
     37          6           0        3.090235    4.295256   -3.225901
     38          6           0        4.503115    4.450610   -3.392606
     39          7           0        4.956804    5.418867   -4.202250
     40          6           0        6.286325    5.557275   -4.352274
     41          6           0        6.771410    6.588770   -5.214364
     42          6           0        8.117451    6.769142   -5.399342
     43          6           0        9.065401    5.933508   -4.737402
     44          6           0        8.643026    4.932954   -3.902494
     45          6           0        7.249057    4.711441   -3.682298
     46          6           0        6.755910    3.708558   -2.843600
     47          6           0        5.376241    3.549542   -2.674939
     48          6           0        4.810033    2.549147   -1.836402
     49          7           0        1.533321    1.309064   -0.728351
     50          6           0       -1.262360    1.113775   -0.468081
     51          6           0       -2.655185    1.016404   -0.346222
     52          6           0       -3.558156    1.977084   -1.034976
     53          6           0       -4.552594    2.624911   -0.304511
     54          6           0       -5.446852    3.573760   -0.863032
     55          6           0       -5.335420    3.882045   -2.202580
     56          6           0       -4.335607    3.218061   -2.958729
     57          6           0       -4.370505    3.627219   -4.317755
     58          6           0       -3.477182    3.057442   -5.201019
     59          6           0       -2.571412    2.077829   -4.712171
     60          6           0       -2.544002    1.684204   -3.384589
     61          6           0       -3.439016    2.268333   -2.439889
     62          6           0       -5.452050    4.624605   -4.425180
     63          6           0       -5.929118    5.359568   -5.505872
     64          6           0       -6.992220    6.248676   -5.305816
     65          6           0       -7.569781    6.399388   -4.041442
     66          6           0       -7.097691    5.664650   -2.947146
     67          6           0       -6.040930    4.779001   -3.134984
     68          6           0       -3.187080    0.014767    0.481224
     69          6           0       -2.467980   -2.021584    3.386343
     70          6           0       -2.968770   -2.955953    4.328963
     71          6           0       -3.976710   -3.814095    3.941761
     72          6           0       -4.450743   -3.726752    2.607685
     73          1           0       -7.126843   -7.791387    5.558445
     74          1           0       -5.553642   -6.863400    7.227032
     75          1           0       -4.020275   -5.005369    6.622938
     76          1           0       -7.202390   -6.882657    3.248587
     77          1           0       -6.793558   -5.480129    0.854408
     78          1           0       -5.962848   -3.937372   -0.897343
     79          1           0       -4.211469   -2.291149   -0.457399
     80          1           0       -0.312433   -1.448960    1.550628
     81          1           0        5.855028   -0.368717    0.602017
     82          1           0        7.383415   -1.920447    1.813805
     83          1           0        8.140961   -5.542273    4.630352
     84          1           0        7.337094   -7.405161    6.071998
     85          1           0        4.897127   -7.799901    6.370938
     86          1           0        3.248496   -6.344383    5.239093
     87          1           0        2.788470   -4.383415    3.720634
     88          1           0        2.434433   -2.408731    2.192839
     89          1           0        1.509704    3.208518   -2.288402
     90          1           0        2.445774    4.978463   -3.769876
     91          1           0        6.034039    7.213561   -5.708276
     92          1           0        8.474436    7.556966   -6.057229
     93          1           0       10.126863    6.097175   -4.900869
     94          1           0        9.359612    4.291892   -3.394310
     95          1           0        7.445422    3.049025   -2.319731
     96          1           0        5.463815    1.871331   -1.297378
     97          1           0       -0.819478    1.892476   -1.076907
     98          1           0       -4.628958    2.412245    0.758369
     99          1           0       -6.190437    4.043036   -0.223881
    100          1           0       -3.457230    3.329576   -6.253277
    101          1           0       -1.878555    1.615919   -5.410487
    102          1           0       -1.842732    0.918842   -3.069578
    103          1           0       -5.487062    5.249476   -6.492985
    104          1           0       -7.372117    6.827826   -6.143110
    105          1           0       -8.393872    7.094567   -3.905880
    106          1           0       -7.552987    5.788810   -1.967740
    107          1           0       -4.264923   -0.061975    0.588065
    108          1           0       -1.694288   -1.330077    3.708918
    109          1           0       -2.556983   -2.968160    5.335022
 ---------------------------------------------------------------------

 SCF Done:  E(RB3LYP) =  -2849.31976873     A.U. after   14 cycles

 Excitation energies and oscillator strengths:

 Excited state symmetry could not be determined.
 Excited State   1:      Triplet-?Sym    1.8346 eV  675.81 nm  f=0.0000  <S**2>=2.000
     234 -> 238       -0.37045
     234 -> 239        0.18112
     234 -> 243        0.10326
     235 -> 238        0.30494
     235 -> 239        0.39337
     235 -> 241        0.12097
     235 -> 242        0.12475
 This state for optimization and/or second-order correction.
 Total Energy, E(TD-HF/TD-DFT) =  -2849.25234805
 Copying the excited state density for this state as the 1-particle RhoCI density.

 Excited state symmetry could not be determined.
 Excited State   2:      Triplet-?Sym    1.8545 eV  668.56 nm  f=0.0000  <S**2>=2.000
     234 -> 238        0.30891
     234 -> 239       -0.39346
     234 -> 242       -0.12393
     235 -> 238        0.37667
     235 -> 239        0.16314
     235 -> 243       -0.11673

 Excited state symmetry could not be determined.
 Excited State   3:      Singlet-?Sym    2.9267 eV  423.63 nm  f=0.0177  <S**2>=0.000
     237 -> 238        0.69390

 Excited state symmetry could not be determined.
 Excited State   4:      Singlet-?Sym    2.9953 eV  413.92 nm  f=0.1133  <S**2>=0.000
     234 -> 238        0.31374
     235 -> 238        0.62085

 Alpha  occ. eigenvalues --  -14.34140 -14.34118 -14.34097 -14.32757 -14.32662
 Alpha  occ. eigenvalues --  -10.28038 -10.28033 -10.28024 -10.23127 -10.23123
 Alpha  occ. eigenvalues --  -10.23041 -10.23030 -10.21519 -10.21453 -10.21009
 Alpha  occ. eigenvalues --  -10.20989 -10.20949 -10.20929 -10.20914 -10.20882
 Alpha  occ. eigenvalues --  -10.20880 -10.20878 -10.20818 -10.20800 -10.20718
 Alpha  occ. eigenvalues --  -10.20509 -10.20451 -10.20288 -10.20266 -10.20215
 Alpha  occ. eigenvalues --  -10.20200 -10.20141 -10.20140 -10.20139 -10.20114
 Alpha  occ. eigenvalues --  -10.20106 -10.20044 -10.20019 -10.19952 -10.19851
 Alpha  occ. eigenvalues --  -10.19825 -10.19780 -10.19775 -10.19768 -10.19682
 Alpha  occ. eigenvalues --  -10.19666 -10.19665 -10.19638 -10.19614 -10.19613
 Alpha  occ. eigenvalues --  -10.19590 -10.19548 -10.19524 -10.19492 -10.19453
 Alpha  occ. eigenvalues --  -10.19446 -10.19406 -10.19374 -10.19363 -10.19303
 Alpha  occ. eigenvalues --  -10.19295 -10.19269 -10.19259 -10.19135 -10.19109
 Alpha  occ. eigenvalues --  -10.19106 -10.19088 -10.19083 -10.18950 -10.18897
 Alpha  occ. eigenvalues --  -10.18294 -10.18131  -1.02444  -0.94734  -0.94643
 Alpha  occ. eigenvalues --   -0.91072  -0.91002  -0.89938  -0.89755  -0.87313
 Alpha  occ. eigenvalues --   -0.85940  -0.85824  -0.85407  -0.84740  -0.84719
 Alpha  occ. eigenvalues --   -0.84634  -0.82845  -0.82385  -0.80917  -0.80716
 Alpha  occ. eigenvalues --   -0.80629  -0.80307  -0.77435  -0.77139  -0.76767
 Alpha  occ. eigenvalues --   -0.76482  -0.75447  -0.75374  -0.75216  -0.75100
 Alpha  occ. eigenvalues --   -0.74611  -0.74383  -0.73513  -0.73274  -0.71718
 Alpha  occ. eigenvalues --   -0.71540  -0.71483  -0.70775  -0.68966  -0.68487
 Alpha  occ. eigenvalues --   -0.66235  -0.65328  -0.64628  -0.64442  -0.63937
 Alpha  occ. eigenvalues --   -0.63849  -0.63687  -0.62194  -0.61451  -0.61271
 Alpha  occ. eigenvalues --   -0.60946  -0.60805  -0.60274  -0.59465  -0.58939
 Alpha  occ. eigenvalues --   -0.58866  -0.58662  -0.58512  -0.57146  -0.55995
 Alpha  occ. eigenvalues --   -0.55523  -0.54886  -0.54684  -0.53826  -0.53393
 Alpha  occ. eigenvalues --   -0.52564  -0.51623  -0.51459  -0.51038  -0.50908
 Alpha  occ. eigenvalues --   -0.50805  -0.50611  -0.50248  -0.49835  -0.49472
 Alpha  occ. eigenvalues --   -0.48520  -0.48113  -0.47818  -0.47402  -0.46925
 Alpha  occ. eigenvalues --   -0.46210  -0.46065  -0.45887  -0.45561  -0.45416
 Alpha  occ. eigenvalues --   -0.45259  -0.44959  -0.44735  -0.44565  -0.44405
 Alpha  occ. eigenvalues --   -0.44157  -0.43300  -0.43153  -0.42840  -0.42759
 Alpha  occ. eigenvalues --   -0.42652  -0.42557  -0.42384  -0.42251  -0.42194
 Alpha  occ. eigenvalues --   -0.42092  -0.42022  -0.41793  -0.41458  -0.41370
 Alpha  occ. eigenvalues --   -0.41295  -0.41234  -0.41130  -0.40935  -0.40201
 Alpha  occ. eigenvalues --   -0.40037  -0.39699  -0.39128  -0.38975  -0.38925
 Alpha  occ. eigenvalues --   -0.38472  -0.38054  -0.37454  -0.36937  -0.36839
 Alpha  occ. eigenvalues --   -0.36762  -0.36431  -0.36300  -0.36195  -0.36034
 Alpha  occ. eigenvalues --   -0.35964  -0.35920  -0.35377  -0.35249  -0.34808
 Alpha  occ. eigenvalues --   -0.34787  -0.34662  -0.34494  -0.34289  -0.34025
 Alpha  occ. eigenvalues --   -0.33542  -0.33178  -0.33053  -0.32949  -0.32758
 Alpha  occ. eigenvalues --   -0.32417  -0.32276  -0.32098  -0.30729  -0.30589
 Alpha  occ. eigenvalues --   -0.30175  -0.29966  -0.27126  -0.26832  -0.26718
 Alpha  occ. eigenvalues --   -0.26583  -0.26356  -0.26257  -0.25546  -0.25476
 Alpha  occ. eigenvalues --   -0.25427  -0.25337  -0.24886  -0.24751  -0.24704
 Alpha  occ. eigenvalues --   -0.24621  -0.21901  -0.21720  -0.21418  -0.21322
 Alpha  occ. eigenvalues --   -0.21139  -0.20886
 Alpha virt. eigenvalues --   -0.08990  -0.08461  -0.07079  -0.06919  -0.06346
 Alpha virt. eigenvalues --   -0.05541  -0.02659  -0.02454  -0.02007  -0.01256
 Alpha virt. eigenvalues --   -0.00899  -0.00516  -0.00196   0.00240   0.00966

 Mulliken charges:
               1
     1  C   -0.135990
     2  C   -0.136881
     3  C   -0.195413
     4  C    0.060640
     5  C    0.064750
     6  C   -0.196742
     7  C    0.106724
     8  C   -0.215386
     9  C   -0.133745
    10  C   -0.211766
    11  C    0.156440
    12  C    0.011907
    13  C    0.072059
    14  C   -0.210818
    15  C    0.079032
    16  C    0.457849
    17  N   -0.545442
    18  C    0.459918
    19  C    0.069573
    20  C   -0.157462
    21  C   -0.158180
    22  C    0.270598
    23  N   -0.608557
    24  C    0.257367
    25  C   -0.145615
    26  C   -0.133665
    27  C   -0.139089
    28  C   -0.183217
    29  C    0.147156
    30  C   -0.220762
    31  C    0.153611
    32  C   -0.244269
    33  N   -0.547740
    34  C    0.460963
    35  C    0.069049
    36  C   -0.159971
    37  C   -0.159171
    38  C    0.270647
    39  N   -0.607967
    40  C    0.257260
    41  C   -0.145555
    42  C   -0.133722
    43  C   -0.139057
    44  C   -0.183107
    45  C    0.147356
    46  C   -0.220271
    47  C    0.153832
    48  C   -0.243243
    49  N   -0.548065
    50  C   -0.218536
    51  C    0.071618
    52  C    0.014266
    53  C   -0.186046
    54  C   -0.225933
    55  C    0.124521
    56  C   -0.086609
    57  C    0.106635
    58  C   -0.215475
    59  C   -0.134358
    60  C   -0.212460
    61  C    0.156356
    62  C    0.064824
    63  C   -0.196681
    64  C   -0.135863
    65  C   -0.136784
    66  C   -0.194762
    67  C    0.060851
    68  C   -0.212339
    69  C   -0.185451
    70  C   -0.227700
    71  C    0.124510
    72  C   -0.086855
    73  H    0.129135
    74  H    0.128757
    75  H    0.129573
    76  H    0.130723
    77  H    0.135223
    78  H    0.133863
    79  H    0.145259
    80  H    0.164389
    81  H    0.161133
    82  H    0.145567
    83  H    0.146984
    84  H    0.138342
    85  H    0.137306
    86  H    0.137025
    87  H    0.144982
    88  H    0.168196
    89  H    0.168046
    90  H    0.148441
    91  H    0.147341
    92  H    0.138271
    93  H    0.137108
    94  H    0.136276
    95  H    0.143458
    96  H    0.166824
    97  H    0.176129
    98  H    0.136242
    99  H    0.136709
   100  H    0.135245
   101  H    0.133781
   102  H    0.145338
   103  H    0.130528
   104  H    0.128870
   105  H    0.128794
   106  H    0.130333
   107  H    0.149753
   108  H    0.137027
   109  H    0.135439
 Sum of Mulliken charges =  -0.00000

 Dipole moment (field-independent basis, Debye):
    X=              0.0135    Y=             -1.5603    Z=              0.8939  Tot=              1.7982
 Quadrupole moment (field-independent basis, Debye-Ang):
   XX=           -366.9168   YY=           -381.5420   ZZ=           -374.0911
   XY=              8.4631   XZ=             -5.9740   YZ=            -23.1350

 Normal termination of Gaussian 16 at Sat Nov  5 11:11:45 2022.
