 Gaussian 16, Revision B.01,
 Gaussian 16:  ES64L-G16RevB.01 20-Dec-2017

 -----------------------------
 #p b3lyp/6-31g(d) opt SCF=XQC
 -----------------------------

 ------------------------------
 Gaussian input prepared by ASE
 ------------------------------
 Symbolic Z-matrix:
 Charge =  0 Multiplicity = 1

 SCF Done:  E(RB3LYP) =  -2849.30653383     A.U. after   14 cycles
 SCF Done:  E(RB3LYP) =  -2849.31906896     A.U. after   12 cycles
 SCF Done:  E(RB3LYP) =  -2849.31956203     A.U. after   12 cycles
 SCF Done:  E(RB3LYP) =  -2849.31967562     A.U. after   12 cycles
 SCF Done:  E(RB3LYP) =  -2849.31972280     A.U. after   11 cycles
 SCF Done:  E(RB3LYP) =  -2849.31975071     A.U. after   11 cycles
 SCF Done:  E(RB3LYP) =  -2849.31975681     A.U. after   10 cycles
 SCF Done:  E(RB3LYP) =  -2849.31975901     A.U. after    9 cycles
 SCF Done:  E(RB3LYP) =  -2849.31975977     A.U. after    9 cycles
 SCF Done:  E(RB3LYP) =  -2849.31975996     A.U. after    7 cycles
 SCF Done:  E(RB3LYP) =  -2849.31976011     A.U. after    7 cycles
 SCF Done:  E(RB3LYP) =  -2849.31976014     A.U. after    7 cycles
 Optimization completed.
    -- Stationary point found.

                         Standard orientation:
 ---------------------------------------------------------------------
 Center     Atomic      Atomic             Coordinates (Angstroms)
 Number     Number       Type             X           Y           Z
 ---------------------------------------------------------------------
      1          6           0      -10.699738   -2.339566    0.213561
      2          6           0      -10.498272   -1.424802   -0.824493
      3          6           0       -9.204509   -1.050873   -1.207362
      4          6           0       -8.116768   -1.604514   -0.538930
      5          6           0       -8.322306   -2.537619    0.520592
      6          6           0       -9.612310   -2.901985    0.893195
      7          6           0       -7.000728   -2.944741    1.034147
      8          6           0       -6.558919   -3.782290    2.037266
      9          6           0       -5.159762   -3.900058    2.255764
     10          6           0       -4.226277   -3.217437    1.493769
     11          6           0       -4.647376   -2.360009    0.434529
     12          6           0       -3.825612   -1.570890   -0.445012
     13          6           0       -2.339427   -1.614888   -0.395323
     14          6           0       -1.599011   -0.428161   -0.326315
     15          6           0       -0.198501   -0.455092   -0.310333
     16          6           0        0.572953    0.811492   -0.238072
     17          7           0       -0.110510    1.962325   -0.198049
     18          6           0        0.631826    3.081648   -0.133596
     19          6           0       -0.076258    4.381623   -0.081119
     20          6           0        0.669494    5.606269   -0.048291
     21          6           0        0.036520    6.816253    0.001683
     22          6           0       -1.391941    6.900301    0.025871
     23          7           0       -1.968297    8.110289    0.076645
     24          6           0       -3.311484    8.178815    0.101263
     25          6           0       -3.927576    9.467191    0.155551
     26          6           0       -5.292551    9.588240    0.183450
     27          6           0       -6.130092    8.433702    0.159156
     28          6           0       -5.580484    7.179981    0.106914
     29          6           0       -4.162449    7.009902    0.076018
     30          6           0       -3.542168    5.758956    0.022131
     31          6           0       -2.146398    5.667893   -0.004973
     32          6           0       -1.453484    4.426212   -0.059986
     33          7           0        1.971529    3.096718   -0.112748
     34          6           0        2.571192    1.894154   -0.154547
     35          6           0        4.051160    1.853155   -0.129245
     36          6           0        4.736503    0.593680   -0.170369
     37          6           0        6.101472    0.533382   -0.147121
     38          6           0        6.891051    1.725169   -0.081085
     39          7           0        8.227646    1.615820   -0.060248
     40          6           0        8.961213    2.741586    0.001556
     41          6           0       10.385586    2.626823    0.023466
     42          6           0       11.175705    3.745028    0.085988
     43          6           0       10.597070    5.048194    0.130687
     44          6           0        9.236092    5.202975    0.111688
     45          6           0        8.376869    4.063569    0.046917
     46          6           0        6.982811    4.155712    0.024662
     47          6           0        6.203250    2.995814   -0.039706
     48          6           0        4.780838    3.020657   -0.065287
     49          7           0        1.913779    0.727248   -0.215835
     50          6           0        0.470683   -1.684641   -0.364070
     51          6           0       -0.243874   -2.888429   -0.431849
     52          6           0        0.457374   -4.196261   -0.534192
     53          6           0        0.088859   -5.093305   -1.535028
     54          6           0        0.710988   -6.353010   -1.730112
     55          6           0        1.740295   -6.721847   -0.889676
     56          6           0        2.114229   -5.822209    0.141384
     57          6           0        3.165708   -6.360409    0.928985
     58          6           0        3.634990   -5.622089    1.995514
     59          6           0        3.035561   -4.362120    2.264203
     60          6           0        2.009952   -3.844298    1.490800
     61          6           0        1.515089   -4.571263    0.367703
     62          6           0        3.487372   -7.678593    0.350208
     63          6           0        4.428293   -8.640207    0.704644
     64          6           0        4.505278   -9.822241   -0.042075
     65          6           0        3.651756  -10.038506   -1.128196
     66          6           0        2.701172   -9.077668   -1.493400
     67          6           0        2.617045   -7.899024   -0.758470
     68          6           0       -1.646648   -2.835095   -0.447205
     69          6           0       -4.451988   -0.744361   -1.375886
     70          6           0       -5.859912   -0.650832   -1.522070
     71          6           0       -6.664490   -1.415760   -0.703648
     72          6           0       -6.037137   -2.248656    0.258021
     73          1           0      -11.711347   -2.617751    0.496486
     74          1           0      -11.354814   -0.999555   -1.340531
     75          1           0       -9.057861   -0.339357   -2.016230
     76          1           0       -9.779596   -3.612211    1.699121
     77          1           0       -7.249119   -4.339837    2.665334
     78          1           0       -4.811370   -4.545663    3.057539
     79          1           0       -3.170399   -3.329193    1.716515
     80          1           0       -2.106736    0.527351   -0.268334
     81          1           0        1.751251    5.545223   -0.065214
     82          1           0        0.590793    7.749176    0.025281
     83          1           0       -3.272872   10.332681    0.173714
     84          1           0       -5.749643   10.573259    0.224950
     85          1           0       -7.209217    8.556706    0.182762
     86          1           0       -6.212362    6.295067    0.088665
     87          1           0       -4.144787    4.852719    0.002003
     88          1           0       -2.018329    3.500038   -0.083464
     89          1           0        4.141905   -0.310863   -0.220136
     90          1           0        6.630137   -0.414014   -0.178181
     91          1           0       10.805820    1.626717   -0.011467
     92          1           0       12.257697    3.645236    0.101951
     93          1           0       11.245388    5.918520    0.179946
     94          1           0        8.787576    6.193127    0.145419
     95          1           0        6.501044    5.131253    0.057340
     96          1           0        4.262678    3.973505   -0.033595
     97          1           0        1.553720   -1.689691   -0.377964
     98          1           0       -0.700209   -4.799403   -2.221879
     99          1           0        0.371648   -6.993045   -2.540577
    100          1           0        4.436858   -5.982454    2.634927
    101          1           0        3.392918   -3.787122    3.114339
    102          1           0        1.577172   -2.884526    1.752194
    103          1           0        5.096359   -8.481729    1.547554
    104          1           0        5.236927  -10.579589    0.226094
    105          1           0        3.726803  -10.962090   -1.695768
    106          1           0        2.042010   -9.254645   -2.339645
    107          1           0       -2.207755   -3.762705   -0.508447
    108          1           0       -3.825600   -0.160064   -2.044521
    109          1           0       -6.272491    0.010366   -2.280005
 ---------------------------------------------------------------------

 The electronic state is 1-A.
 Alpha  occ. eigenvalues --  -14.34140 -14.34118 -14.34097 -14.32757 -14.32661
 Alpha  occ. eigenvalues --  -10.28038 -10.28033 -10.28024 -10.23127 -10.23123
 Alpha  occ. eigenvalues --  -10.23041 -10.23030 -10.21519 -10.21453 -10.21009
 Alpha  occ. eigenvalues --  -10.20989 -10.20949 -10.20929 -10.20914 -10.20882
 Alpha  occ. eigenvalues --  -10.20880 -10.20878 -10.20818 -10.20800 -10.20718
 Alpha  occ. eigenvalues --  -10.20509 -10.20451 -10.20288 -10.20266 -10.20215
 Alpha  occ. eigenvalues --  -10.20200 -10.20142 -10.20140 -10.20139 -10.20114
 Alpha  occ. eigenvalues --  -10.20106 -10.20044 -10.20019 -10.19952 -10.19851
 Alpha  occ. eigenvalues --  -10.19825 -10.19779 -10.19775 -10.19768 -10.19682
 Alpha  occ. eigenvalues --  -10.19666 -10.19665 -10.19638 -10.19614 -10.19613
 Alpha  occ. eigenvalues --  -10.19591 -10.19548 -10.19524 -10.19492 -10.19453
 Alpha  occ. eigenvalues --  -10.19446 -10.19406 -10.19374 -10.19363 -10.19303
 Alpha  occ. eigenvalues --  -10.19295 -10.19269 -10.19259 -10.19135 -10.19109
 Alpha  occ. eigenvalues --  -10.19106 -10.19088 -10.19083 -10.18950 -10.18897
 Alpha  occ. eigenvalues --  -10.18294 -10.18131  -1.02444  -0.94734  -0.94643
 Alpha  occ. eigenvalues --   -0.91072  -0.91002  -0.89938  -0.89755  -0.87313
 Alpha  occ. eigenvalues --   -0.85940  -0.85824  -0.85407  -0.84740  -0.84719
 Alpha  occ. eigenvalues --   -0.84634  -0.82846  -0.82385  -0.80917  -0.80716
 Alpha  occ. eigenvalues --   -0.80629  -0.80307  -0.77435  -0.77139  -0.76767
 Alpha  occ. eigenvalues --   -0.76482  -0.75447  -0.75374  -0.75216  -0.75100
 Alpha  occ. eigenvalues --   -0.74611  -0.74383  -0.73513  -0.73274  -0.71718
 Alpha  occ. eigenvalues --   -0.71540  -0.71483  -0.70775  -0.68966  -0.68487
 Alpha  occ. eigenvalues --   -0.66235  -0.65328  -0.64628  -0.64442  -0.63937
 Alpha  occ. eigenvalues --   -0.63849  -0.63687  -0.62194  -0.61451  -0.61270
 Alpha  occ. eigenvalues --   -0.60946  -0.60805  -0.60274  -0.59465  -0.58939
 Alpha  occ. eigenvalues --   -0.58867  -0.58662  -0.58512  -0.57146  -0.55995
 Alpha  occ. eigenvalues --   -0.55523  -0.54886  -0.54684  -0.53826  -0.53393
 Alpha  occ. eigenvalues --   -0.52564  -0.51623  -0.51459  -0.51038  -0.50908
 Alpha  occ. eigenvalues --   -0.50805  -0.50611  -0.50248  -0.49835  -0.49472
 Alpha  occ. eigenvalues --   -0.48520  -0.48113  -0.47818  -0.47402  -0.46925
 Alpha  occ. eigenvalues --   -0.46210  -0.46065  -0.45887  -0.45561  -0.45416
 Alpha  occ. eigenvalues --   -0.45259  -0.44959  -0.44735  -0.44565  -0.44405
 Alpha  occ. eigenvalues --   -0.44157  -0.43300  -0.43153  -0.42840  -0.42759
 Alpha  occ. eigenvalues --   -0.42652  -0.42557  -0.42384  -0.42251  -0.42194
 Alpha  occ. eigenvalues --   -0.42091  -0.42022  -0.41793  -0.41458  -0.41370
 Alpha  occ. eigenvalues --   -0.41295  -0.41234  -0.41130  -0.40935  -0.40201
 Alpha  occ. eigenvalues --   -0.40037  -0.39699  -0.39128  -0.38975  -0.38925
 Alpha  occ. eigenvalues --   -0.38472  -0.38054  -0.37454  -0.36937  -0.36839
 Alpha  occ. eigenvalues --   -0.36762  -0.36431  -0.36300  -0.36195  -0.36034
 Alpha  occ. eigenvalues --   -0.35964  -0.35920  -0.35377  -0.35249  -0.34808
 Alpha  occ. eigenvalues --   -0.34787  -0.34662  -0.34494  -0.34289  -0.34025
 Alpha  occ. eigenvalues --   -0.33542  -0.33178  -0.33053  -0.32949  -0.32758
 Alpha  occ. eigenvalues --   -0.32417  -0.32276  -0.32098  -0.30729  -0.30589
 Alpha  occ. eigenvalues --   -0.30175  -0.29966  -0.27126  -0.26832  -0.26718
 Alpha  occ. eigenvalues --   -0.26583  -0.26356  -0.26257  -0.25546  -0.25476
 Alpha  occ. eigenvalues --   -0.25427  -0.25337  -0.24886  -0.24751  -0.24704
 Alpha  occ. eigenvalues --   -0.24621  -0.21901  -0.21720  -0.21418  -0.21322
 Alpha  occ. eigenvalues --   -0.21139  -0.20886
 Alpha virt. eigenvalues --   -0.08989  -0.08461  -0.07079  -0.06919  -0.06346
 Alpha virt. eigenvalues --   -0.05541  -0.02659  -0.02454  -0.02007  -0.01256
 Alpha virt. eigenvalues --   -0.00899  -0.00516  -0.00196   0.00240   0.00966

 Mulliken charges:
               1
     1  C   -0.135985
     2  C   -0.136888
     3  C   -0.195418
     4  C    0.060664
     5  C    0.064722
     6  C   -0.196731
     7  C    0.106731
     8  C   -0.215395
     9  C   -0.133741
    10  C   -0.211758
    11  C    0.156433
    12  C    0.011915
    13  C    0.072067
    14  C   -0.210827
    15  C    0.079039
    16  C    0.457888
    17  N   -0.545459
    18  C    0.459942
    19  C    0.069573
    20  C   -0.157466
    21  C   -0.158178
    22  C    0.270609
    23  N   -0.608568
    24  C    0.257387
    25  C   -0.145619
    26  C   -0.133669
    27  C   -0.139093
    28  C   -0.183218
    29  C    0.147137
    30  C   -0.220741
    31  C    0.153595
    32  C   -0.244266
    33  N   -0.547753
    34  C    0.460955
    35  C    0.069055
    36  C   -0.159976
    37  C   -0.159171
    38  C    0.270650
    39  N   -0.607969
    40  C    0.257247
    41  C   -0.145548
    42  C   -0.133720
    43  C   -0.139067
    44  C   -0.183105
    45  C    0.147368
    46  C   -0.220264
    47  C    0.153838
    48  C   -0.243258
    49  N   -0.548082
    50  C   -0.218544
    51  C    0.071630
    52  C    0.014257
    53  C   -0.186049
    54  C   -0.225955
    55  C    0.124543
    56  C   -0.086614
    57  C    0.106597
    58  C   -0.215444
    59  C   -0.134367
    60  C   -0.212467
    61  C    0.156374
    62  C    0.064831
    63  C   -0.196677
    64  C   -0.135864
    65  C   -0.136788
    66  C   -0.194751
    67  C    0.060841
    68  C   -0.212333
    69  C   -0.185452
    70  C   -0.227699
    71  C    0.124509
    72  C   -0.086871
    73  H    0.129134
    74  H    0.128758
    75  H    0.129573
    76  H    0.130723
    77  H    0.135223
    78  H    0.133863
    79  H    0.145257
    80  H    0.164392
    81  H    0.161132
    82  H    0.145567
    83  H    0.146984
    84  H    0.138344
    85  H    0.137307
    86  H    0.137025
    87  H    0.144980
    88  H    0.168195
    89  H    0.168053
    90  H    0.148440
    91  H    0.147340
    92  H    0.138271
    93  H    0.137109
    94  H    0.136277
    95  H    0.143458
    96  H    0.166824
    97  H    0.176124
    98  H    0.136242
    99  H    0.136709
   100  H    0.135246
   101  H    0.133782
   102  H    0.145338
   103  H    0.130528
   104  H    0.128870
   105  H    0.128794
   106  H    0.130333
   107  H    0.149752
   108  H    0.137025
   109  H    0.135439
 Sum of Mulliken charges =  -0.00000

 Dipole moment (field-independent basis, Debye):
    X=             -1.6117    Y=              0.7384    Z=              0.3025  Tot=              1.7984
 Quadrupole moment (field-independent basis, Debye-Ang):
   XX=           -349.8869   YY=           -372.7223   ZZ=           -399.8195
   XY=              2.5427   XZ=              7.5846   YZ=             -3.3951

 1\1\GINC-NODE72\FOpt\RB3LYP\6-31G(d)\C67H37N5\WYKGROUP\05-Nov-2022\0\\
 #p b3lyp/6-31g(d) opt SCF=XQC\\Gaussian input prepared by ASE\\0,1\C,-
 6.4625980616,-6.9785770399,5.2775473752\C,-5.5732923669,-6.454305262,6
 .2205283131\C,-4.7077939646,-5.4069473053,5.8826125098\C,-4.7448008426
 ,-4.8916142903,4.5904965244\C,-5.6519332653,-5.426837824,3.6281222534\
 C,-6.5074362675,-6.4679149857,3.9745003572\C,-5.4628587491,-4.69177511
 48,2.3632149787\C,-6.0167884652,-4.7609923332,1.1017468042\C,-5.539833
 8036,-3.8714315372,0.1015241998\C,-4.5520580922,-2.932650319,0.3484904

 Normal termination of Gaussian 16 at Sat Nov  5 01:51:46 2022.
