 Gaussian 16, Revision B.01,
 Gaussian 16:  ES64L-G16RevB.01 20-Dec-2017

 -------------------------------------------------------------------
 #p b3lyp/6-31g(d) 6D 10F nosymm GFInput td=(50-50,nstate=2) SCF=XQC
 -------------------------------------------------------------------

 ------------------------------
 Gaussian input prepared by ASE
 ------------------------------
 Symbolic Z-matrix:
 Charge =  0 Multiplicity = 1

                          Input orientation:
 ---------------------------------------------------------------------
 Center     Atomic      Atomic             Coordinates (Angstroms)
 Number     Number       Type             X           Y           Z
 ---------------------------------------------------------------------
      1          6           0       -0.760279   -1.365133   -2.849072
      2          7           0       -0.539882   -1.362004   -1.687744
      3          6           0       -0.251241   -1.382622   -0.333825
      4          6           0        1.015117   -1.836100    0.053238
      5          6           0        1.350105   -1.911772    1.405874
      6          7           0        2.638887   -2.358936    1.795009
      7          6           0        2.907297   -3.417083    2.681519
      8          6           0        2.018096   -4.279456    3.325754
      9          6           0        2.559139   -5.269576    4.143654
     10          6           0        3.947648   -5.403656    4.313547
     11          6           0        4.828231   -4.549087    3.657644
     12          6           0        4.309459   -3.546430    2.830365
     13          6           0        4.913112   -2.522358    2.003334
     14          6           0        6.228340   -2.145689    1.746176
     15          6           0        6.486769   -1.071221    0.882184
     16          6           0        7.846764   -0.743208    0.578023
     17          7           0        8.965749   -0.517389    0.352957
     18          6           0        5.411078   -0.346761    0.296782
     19          7           0        5.665554    0.757529   -0.552641
     20          6           0        5.267864    0.854062   -1.893858
     21          6           0        4.692711   -0.115443   -2.717910
     22          6           0        4.410231    0.239664   -4.035835
     23          6           0        4.699081    1.525193   -4.523788
     24          6           0        5.282648    2.482820   -3.698658
     25          6           0        5.573277    2.153212   -2.369898
     26          6           0        6.165048    2.879596   -1.264331
     27          6           0        6.641621    4.186993   -1.113570
     28          6           0        7.133249    4.590183    0.124450
     29          6           0        7.148635    3.701144    1.212424
     30          6           0        6.681872    2.394209    1.088776
     31          6           0        6.201794    1.994230   -0.159193
     32          6           0        4.090504   -0.719045    0.547446
     33          6           0        3.852106   -1.813185    1.380294
     34          6           0        0.403229   -1.545796    2.370323
     35          6           0       -0.856980   -1.111477    1.973419
     36          6           0       -1.222210   -1.006231    0.621967
     37          6           0       -2.580947   -0.531522    0.255481
     38          6           0       -2.788566    0.459607   -0.719089
     39          6           0       -4.069711    0.916729   -1.004958
     40          6           0       -5.191737    0.397605   -0.347450
     41          7           0       -6.484031    0.867671   -0.661598
     42          6           0       -7.063691    0.839961   -1.940817
     43          6           0       -6.580963    0.265780   -3.118241
     44          6           0       -7.378538    0.361909   -4.257489
     45          6           0       -8.626584    1.005993   -4.224203
     46          6           0       -9.104749    1.566329   -3.042789
     47          6           0       -8.322404    1.486657   -1.885234
     48          6           0       -8.505316    1.941113   -0.521052
     49          6           0       -9.519259    2.653069    0.129594
     50          6           0       -9.368933    2.967734    1.477141
     51          6           0       -8.212924    2.583672    2.176707
     52          6           0       -7.189408    1.873073    1.552552
     53          6           0       -7.354580    1.548549    0.205323
     54          6           0       -4.989625   -0.613690    0.615882
     55          7           0       -6.062265   -1.206099    1.251094
     56          6           0       -6.970723   -1.730397    1.796769
     57          6           0       -3.696326   -1.055084    0.918453
     58          1           0        1.720473   -2.147006   -0.708817
     59          1           0        0.945215   -4.191699    3.191545
     60          1           0        1.889533   -5.953750    4.656962
     61          1           0        4.335355   -6.185644    4.959449
     62          1           0        5.901830   -4.660550    3.781846
     63          1           0        7.061008   -2.677352    2.195295
     64          1           0        4.481222   -1.114650   -2.350270
     65          1           0        3.961521   -0.495896   -4.697721
     66          1           0        4.467944    1.770726   -5.556281
     67          1           0        5.512603    3.473678   -4.081408
     68          1           0        6.623327    4.878398   -1.951915
     69          1           0        7.507953    5.601526    0.253315
     70          1           0        7.533938    4.035701    2.171592
     71          1           0        6.697639    1.714340    1.934252
     72          1           0        3.283659   -0.144810    0.107020
     73          1           0        0.664843   -1.582061    3.422589
     74          1           0       -1.574175   -0.807362    2.729504
     75          1           0       -1.942762    0.898368   -1.236402
     76          1           0       -4.217762    1.702694   -1.738217
     77          1           0       -5.622606   -0.242607   -3.149940
     78          1           0       -7.025647   -0.074994   -5.187493
     79          1           0       -9.224582    1.062930   -5.129132
     80          1           0      -10.074255    2.056705   -3.017826
     81          1           0      -10.409158    2.960836   -0.412986
     82          1           0      -10.149772    3.518584    1.993411
     83          1           0       -8.111147    2.843966    3.226566
     84          1           0       -6.297659    1.586169    2.100062
     85          1           0       -3.581877   -1.844076    1.654093
 ---------------------------------------------------------------------

 SCF Done:  E(RB3LYP) =  -2288.76839764     A.U. after   16 cycles

 Excitation energies and oscillator strengths:

 Excited state symmetry could not be determined.
 Excited State   1:      Triplet-?Sym    2.7851 eV  445.17 nm  f=0.0000  <S**2>=2.000
     180 ->189         0.20681
     184 ->189        -0.15784
     187 ->189         0.58363
     187 ->190        -0.15243
     187 ->195        -0.10290
 This state for optimization and/or second-order correction.
 Total Energy, E(TD-HF/TD-DFT) =  -2288.66604643
 Copying the excited state density for this state as the 1-particle RhoCI density.

 Excited state symmetry could not be determined.
 Excited State   2:      Triplet-?Sym    2.9281 eV  423.43 nm  f=0.0000  <S**2>=2.000
     183 ->191         0.27885
     184 ->193        -0.16940
     188 ->189         0.43544
     188 ->191        -0.36796
     188 ->193        -0.10739

 Excited state symmetry could not be determined.
 Excited State   3:      Singlet-?Sym    2.9782 eV  416.30 nm  f=0.0089  <S**2>=0.000
     188 ->189         0.69614

 Excited state symmetry could not be determined.
 Excited State   4:      Singlet-?Sym    3.0168 eV  410.98 nm  f=0.1627  <S**2>=0.000
     187 ->189         0.68625
     187 ->190        -0.10122

 Alpha  occ. eigenvalues --  -14.41872 -14.39650 -14.39525 -14.38902 -14.38645
 Alpha  occ. eigenvalues --  -14.33306 -10.29243 -10.28177 -10.27870 -10.27011
 Alpha  occ. eigenvalues --  -10.26617 -10.26376 -10.25438 -10.25145 -10.24454
 Alpha  occ. eigenvalues --  -10.24443 -10.24220 -10.24184 -10.23829 -10.23733
 Alpha  occ. eigenvalues --  -10.23483 -10.23415 -10.23252 -10.23204 -10.23062
 Alpha  occ. eigenvalues --  -10.22870 -10.22862 -10.22713 -10.22710 -10.22702
 Alpha  occ. eigenvalues --  -10.22451 -10.22408 -10.21765 -10.21525 -10.21423
 Alpha  occ. eigenvalues --  -10.21298 -10.20660 -10.19544 -10.19507 -10.19496
 Alpha  occ. eigenvalues --  -10.19433 -10.19388 -10.19323 -10.19315 -10.19288
 Alpha  occ. eigenvalues --  -10.19266 -10.19119 -10.19061 -10.19051 -10.18980
 Alpha  occ. eigenvalues --  -10.18978 -10.18889 -10.18798 -10.18745 -10.18663
 Alpha  occ. eigenvalues --  -10.18423 -10.18224  -1.02578  -1.00628  -0.99747
 Alpha  occ. eigenvalues --   -0.98901  -0.97422  -0.91199  -0.90510  -0.89475
 Alpha  occ. eigenvalues --   -0.88262  -0.87284  -0.85635  -0.84977  -0.84920
 Alpha  occ. eigenvalues --   -0.84515  -0.82668  -0.81037  -0.80624  -0.79812
 Alpha  occ. eigenvalues --   -0.79355  -0.78799  -0.77907  -0.76999  -0.75474
 Alpha  occ. eigenvalues --   -0.75413  -0.75160  -0.75010  -0.73069  -0.72104
 Alpha  occ. eigenvalues --   -0.71993  -0.71704  -0.70211  -0.69410  -0.68867
 Alpha  occ. eigenvalues --   -0.66648  -0.65996  -0.64538  -0.64043  -0.63407
 Alpha  occ. eigenvalues --   -0.62676  -0.61424  -0.61254  -0.60661  -0.60426
 Alpha  occ. eigenvalues --   -0.59855  -0.58690  -0.58066  -0.57695  -0.57492
 Alpha  occ. eigenvalues --   -0.56727  -0.54986  -0.54605  -0.54007  -0.53446
 Alpha  occ. eigenvalues --   -0.52635  -0.51923  -0.51782  -0.51340  -0.50979
 Alpha  occ. eigenvalues --   -0.50798  -0.50112  -0.50028  -0.48476  -0.48037
 Alpha  occ. eigenvalues --   -0.47159  -0.46981  -0.46751  -0.46263  -0.45994
 Alpha  occ. eigenvalues --   -0.45920  -0.45626  -0.45574  -0.45423  -0.45206
 Alpha  occ. eigenvalues --   -0.44944  -0.44637  -0.43886  -0.43811  -0.43618
 Alpha  occ. eigenvalues --   -0.43248  -0.43190  -0.42755  -0.42557  -0.42175
 Alpha  occ. eigenvalues --   -0.41972  -0.41914  -0.41603  -0.41330  -0.41030
 Alpha  occ. eigenvalues --   -0.40141  -0.39909  -0.39571  -0.38696  -0.37882
 Alpha  occ. eigenvalues --   -0.37562  -0.37057  -0.36975  -0.36875  -0.36632
 Alpha  occ. eigenvalues --   -0.36625  -0.36490  -0.36316  -0.35883  -0.35584
 Alpha  occ. eigenvalues --   -0.35420  -0.35337  -0.34569  -0.34231  -0.34116
 Alpha  occ. eigenvalues --   -0.33892  -0.33725  -0.33309  -0.32862  -0.32851
 Alpha  occ. eigenvalues --   -0.32285  -0.31258  -0.30709  -0.30512  -0.28996
 Alpha  occ. eigenvalues --   -0.28346  -0.28039  -0.27961  -0.27704  -0.26784
 Alpha  occ. eigenvalues --   -0.25588  -0.25240  -0.24514  -0.23030  -0.21801
 Alpha  occ. eigenvalues --   -0.21400  -0.20867  -0.20384
 Alpha virt. eigenvalues --   -0.08021  -0.06348  -0.05993  -0.05683  -0.04877
 Alpha virt. eigenvalues --   -0.03154  -0.02921  -0.02798  -0.00814   0.00179
 Alpha virt. eigenvalues --    0.00552   0.00713   0.00971   0.01812   0.02366

 Mulliken charges:
               1
     1  C   -0.061472
     2  N   -0.344755
     3  C    0.252743
     4  C   -0.155213
     5  C    0.271109
     6  N   -0.752920
     7  C    0.313612
     8  C   -0.174922
     9  C   -0.137926
    10  C   -0.142662
    11  C   -0.190950
    12  C    0.060422
    13  C    0.078604
    14  C   -0.245712
    15  C    0.126123
    16  C    0.243370
    17  N   -0.479188
    18  C    0.254451
    19  N   -0.756524
    20  C    0.315654
    21  C   -0.177565
    22  C   -0.140231
    23  C   -0.143569
    24  C   -0.196266
    25  C    0.059693
    26  C    0.064892
    27  C   -0.196005
    28  C   -0.142477
    29  C   -0.140348
    30  C   -0.163826
    31  C    0.317327
    32  C   -0.210145
    33  C    0.332737
    34  C   -0.139988
    35  C   -0.209863
    36  C    0.104483
    37  C    0.089045
    38  C   -0.158133
    39  C   -0.167744
    40  C    0.290398
    41  N   -0.746442
    42  C    0.313507
    43  C   -0.176789
    44  C   -0.141123
    45  C   -0.142645
    46  C   -0.196101
    47  C    0.060754
    48  C    0.064323
    49  C   -0.195341
    50  C   -0.142245
    51  C   -0.140242
    52  C   -0.164962
    53  C    0.318916
    54  C    0.295285
    55  N   -0.336750
    56  C   -0.057887
    57  C   -0.181186
    58  H    0.182110
    59  H    0.145242
    60  H    0.140004
    61  H    0.138375
    62  H    0.143234
    63  H    0.167820
    64  H    0.131001
    65  H    0.131183
    66  H    0.127473
    67  H    0.132609
    68  H    0.131164
    69  H    0.125969
    70  H    0.129362
    71  H    0.135768
    72  H    0.170714
    73  H    0.168415
    74  H    0.160709
    75  H    0.161628
    76  H    0.173316
    77  H    0.142568
    78  H    0.132691
    79  H    0.128450
    80  H    0.133650
    81  H    0.133060
    82  H    0.127894
    83  H    0.130159
    84  H    0.132787
    85  H    0.165314
 Sum of Mulliken charges =  -0.00000

 Dipole moment (field-independent basis, Debye):
    X=             -2.3184    Y=             -0.7091    Z=              3.5984  Tot=              4.3389
 Quadrupole moment (field-independent basis, Debye-Ang):
   XX=           -404.7821   YY=           -304.8547   ZZ=           -304.3547
   XY=            -22.4722   XZ=             20.6280   YZ=            -12.8858

 Normal termination of Gaussian 16 at Sat Nov  5 11:13:43 2022.
