 Gaussian 16, Revision B.01,
 Gaussian 16:  ES64L-G16RevB.01 20-Dec-2017

 -----------------------------
 #p b3lyp/6-31g(d) opt SCF=XQC
 -----------------------------

 ------------------------------
 Gaussian input prepared by ASE
 ------------------------------
 Symbolic Z-matrix:
 Charge =  0 Multiplicity = 1

 SCF Done:  E(RB3LYP) =  -2288.75295651     A.U. after   16 cycles
 SCF Done:  E(RB3LYP) =  -2288.76641058     A.U. after   13 cycles
 SCF Done:  E(RB3LYP) =  -2288.76762126     A.U. after   12 cycles
 SCF Done:  E(RB3LYP) =  -2288.76820030     A.U. after   12 cycles
 SCF Done:  E(RB3LYP) =  -2288.76834538     A.U. after   12 cycles
 SCF Done:  E(RB3LYP) =  -2288.76837805     A.U. after   11 cycles
 SCF Done:  E(RB3LYP) =  -2288.76838994     A.U. after   10 cycles
 SCF Done:  E(RB3LYP) =  -2288.76839325     A.U. after    9 cycles
 SCF Done:  E(RB3LYP) =  -2288.76839446     A.U. after    9 cycles
 SCF Done:  E(RB3LYP) =  -2288.76839567     A.U. after    9 cycles
 SCF Done:  E(RB3LYP) =  -2288.76839610     A.U. after    7 cycles
 SCF Done:  E(RB3LYP) =  -2288.76839621     A.U. after    7 cycles
 SCF Done:  E(RB3LYP) =  -2288.76839624     A.U. after    6 cycles
 SCF Done:  E(RB3LYP) =  -2288.76839626     A.U. after    5 cycles
 Optimization completed.
    -- Stationary point found.

                         Standard orientation:
 ---------------------------------------------------------------------
 Center     Atomic      Atomic             Coordinates (Angstroms)
 Number     Number       Type             X           Y           Z
 ---------------------------------------------------------------------
      1          6           0        0.963396   -0.912424   -2.961615
      2          7           0        0.650283   -0.154056   -2.110670
      3          6           0        0.251679    0.743930   -1.135185
      4          6           0       -1.076372    1.185130   -1.162486
      5          6           0       -1.525640    2.116715   -0.225536
      6          7           0       -2.875581    2.552075   -0.247029
      7          6           0       -3.305557    3.888952   -0.321181
      8          6           0       -2.549482    5.056891   -0.438106
      9          6           0       -3.238712    6.265566   -0.516171
     10          6           0       -4.642816    6.313293   -0.484363
     11          6           0       -5.390058    5.144136   -0.381287
     12          6           0       -4.721096    3.917364   -0.301539
     13          6           0       -5.164807    2.542076   -0.207720
     14          6           0       -6.417318    1.938418   -0.139534
     15          6           0       -6.510886    0.542455   -0.038124
     16          6           0       -7.808218   -0.063037   -0.037527
     17          7           0       -8.881498   -0.512172   -0.048689
     18          6           0       -5.332630   -0.252441    0.028971
     19          7           0       -5.420887   -1.659712    0.161384
     20          6           0       -4.908489   -2.591266   -0.752945
     21          6           0       -4.353955   -2.377551   -2.016519
     22          6           0       -3.935542   -3.494692   -2.737454
     23          6           0       -4.071720   -4.792713   -2.217154
     24          6           0       -4.635721   -4.998074   -0.960901
     25          6           0       -5.060908   -3.893069   -0.214651
     26          6           0       -5.675835   -3.741549    1.088810
     27          6           0       -6.048521   -4.644994    2.090823
     28          6           0       -6.602679   -4.157251    3.270641
     29          6           0       -6.783229   -2.776629    3.459318
     30          6           0       -6.422451   -1.856315    2.477433
     31          6           0       -5.878675   -2.354499    1.292527
     32          6           0       -4.073905    0.344269   -0.040967
     33          6           0       -3.999388    1.731036   -0.178580
     34          6           0       -0.632390    2.616764    0.729831
     35          6           0        0.688704    2.182076    0.736862
     36          6           0        1.170456    1.233413   -0.179023
     37          6           0        2.590391    0.801700   -0.122132
     38          6           0        2.961392   -0.553399   -0.158123
     39          6           0        4.296202   -0.926932   -0.054350
     40          6           0        5.311992    0.028449    0.072796
     41          7           0        6.661291   -0.372317    0.164736
     42          6           0        7.338607   -1.150094   -0.788931
     43          6           0        6.905604   -1.588236   -2.041759
     44          6           0        7.798586   -2.335232   -2.808459
     45          6           0        9.090679   -2.632187   -2.343826
     46          6           0        9.517633   -2.181832   -1.097532
     47          6           0        8.639703   -1.432573   -0.306208
     48          6           0        8.749474   -0.816559    1.001254
     49          6           0        9.764714   -0.772301    1.963352
     50          6           0        9.532894   -0.105610    3.163050
     51          6           0        8.294962    0.510005    3.411632
     52          6           0        7.268177    0.481574    2.469820
     53          6           0        7.513861   -0.175984    1.263636
     54          6           0        4.945633    1.391225    0.086815
     55          7           0        5.907878    2.378842    0.147625
     56          6           0        6.720266    3.236882    0.189351
     57          6           0        3.598753    1.763216    0.005976
     58          1           0       -1.741533    0.810871   -1.932167
     59          1           0       -1.465679    5.029526   -0.475641
     60          1           0       -2.674648    7.189400   -0.607351
     61          1           0       -5.147833    7.272544   -0.546042
     62          1           0       -6.475804    5.181844   -0.367245
     63          1           0       -7.326539    2.529858   -0.174542
     64          1           0       -4.260095   -1.378060   -2.429447
     65          1           0       -3.499577   -3.355934   -3.722930
     66          1           0       -3.736977   -5.643029   -2.804234
     67          1           0       -4.747407   -6.003931   -0.564728
     68          1           0       -5.902457   -5.712687    1.949774
     69          1           0       -6.897975   -4.848538    4.054699
     70          1           0       -7.215033   -2.415371    4.388526
     71          1           0       -6.565592   -0.791865    2.631568
     72          1           0       -3.187360   -0.275248    0.029428
     73          1           0       -0.980950    3.324951    1.474143
     74          1           0        1.365521    2.558624    1.497553
     75          1           0        2.201527   -1.322699   -0.237443
     76          1           0        4.570711   -1.976682   -0.053972
     77          1           0        5.912732   -1.354347   -2.412451
     78          1           0        7.486203   -2.690002   -3.786662
     79          1           0        9.763036   -3.215660   -2.966109
     80          1           0       10.520569   -2.405888   -0.744046
     81          1           0       10.719053   -1.257743    1.777297
     82          1           0       10.313716   -0.063090    3.916834
     83          1           0        8.130892    1.020246    4.356646
     84          1           0        6.313399    0.954992    2.673712
     85          1           0        3.357154    2.820762    0.005294
 ---------------------------------------------------------------------

 The electronic state is 1-A.
 Alpha  occ. eigenvalues --  -14.41872 -14.39650 -14.39525 -14.38902 -14.38645
 Alpha  occ. eigenvalues --  -14.33306 -10.29243 -10.28177 -10.27870 -10.27011
 Alpha  occ. eigenvalues --  -10.26617 -10.26376 -10.25437 -10.25145 -10.24454
 Alpha  occ. eigenvalues --  -10.24443 -10.24220 -10.24184 -10.23829 -10.23733
 Alpha  occ. eigenvalues --  -10.23483 -10.23415 -10.23252 -10.23204 -10.23062
 Alpha  occ. eigenvalues --  -10.22870 -10.22862 -10.22713 -10.22710 -10.22702
 Alpha  occ. eigenvalues --  -10.22451 -10.22408 -10.21765 -10.21525 -10.21423
 Alpha  occ. eigenvalues --  -10.21298 -10.20660 -10.19544 -10.19506 -10.19496
 Alpha  occ. eigenvalues --  -10.19433 -10.19388 -10.19323 -10.19315 -10.19288
 Alpha  occ. eigenvalues --  -10.19265 -10.19119 -10.19061 -10.19051 -10.18980
 Alpha  occ. eigenvalues --  -10.18978 -10.18890 -10.18798 -10.18745 -10.18663
 Alpha  occ. eigenvalues --  -10.18423 -10.18224  -1.02578  -1.00628  -0.99747
 Alpha  occ. eigenvalues --   -0.98901  -0.97422  -0.91199  -0.90510  -0.89475
 Alpha  occ. eigenvalues --   -0.88262  -0.87284  -0.85635  -0.84977  -0.84920
 Alpha  occ. eigenvalues --   -0.84515  -0.82668  -0.81037  -0.80624  -0.79812
 Alpha  occ. eigenvalues --   -0.79355  -0.78799  -0.77907  -0.76999  -0.75474
 Alpha  occ. eigenvalues --   -0.75413  -0.75160  -0.75010  -0.73069  -0.72104
 Alpha  occ. eigenvalues --   -0.71993  -0.71704  -0.70211  -0.69410  -0.68867
 Alpha  occ. eigenvalues --   -0.66648  -0.65996  -0.64538  -0.64043  -0.63407
 Alpha  occ. eigenvalues --   -0.62676  -0.61424  -0.61254  -0.60661  -0.60426
 Alpha  occ. eigenvalues --   -0.59855  -0.58690  -0.58066  -0.57695  -0.57492
 Alpha  occ. eigenvalues --   -0.56727  -0.54986  -0.54605  -0.54007  -0.53446
 Alpha  occ. eigenvalues --   -0.52635  -0.51923  -0.51782  -0.51340  -0.50979
 Alpha  occ. eigenvalues --   -0.50798  -0.50112  -0.50028  -0.48476  -0.48037
 Alpha  occ. eigenvalues --   -0.47159  -0.46981  -0.46751  -0.46263  -0.45994
 Alpha  occ. eigenvalues --   -0.45920  -0.45627  -0.45574  -0.45423  -0.45206
 Alpha  occ. eigenvalues --   -0.44944  -0.44637  -0.43886  -0.43811  -0.43618
 Alpha  occ. eigenvalues --   -0.43248  -0.43190  -0.42755  -0.42557  -0.42175
 Alpha  occ. eigenvalues --   -0.41972  -0.41914  -0.41603  -0.41330  -0.41030
 Alpha  occ. eigenvalues --   -0.40141  -0.39909  -0.39571  -0.38696  -0.37882
 Alpha  occ. eigenvalues --   -0.37562  -0.37057  -0.36975  -0.36875  -0.36632
 Alpha  occ. eigenvalues --   -0.36625  -0.36490  -0.36316  -0.35883  -0.35584
 Alpha  occ. eigenvalues --   -0.35420  -0.35337  -0.34569  -0.34231  -0.34116
 Alpha  occ. eigenvalues --   -0.33892  -0.33725  -0.33309  -0.32862  -0.32851
 Alpha  occ. eigenvalues --   -0.32285  -0.31258  -0.30709  -0.30512  -0.28996
 Alpha  occ. eigenvalues --   -0.28346  -0.28039  -0.27961  -0.27704  -0.26784
 Alpha  occ. eigenvalues --   -0.25588  -0.25240  -0.24514  -0.23030  -0.21801
 Alpha  occ. eigenvalues --   -0.21400  -0.20867  -0.20384
 Alpha virt. eigenvalues --   -0.08021  -0.06348  -0.05993  -0.05683  -0.04877
 Alpha virt. eigenvalues --   -0.03153  -0.02921  -0.02798  -0.00814   0.00179
 Alpha virt. eigenvalues --    0.00552   0.00713   0.00971   0.01812   0.02366

 Mulliken charges:
               1
     1  C   -0.061472
     2  N   -0.344756
     3  C    0.252718
     4  C   -0.155239
     5  C    0.271164
     6  N   -0.752937
     7  C    0.313625
     8  C   -0.174931
     9  C   -0.137924
    10  C   -0.142666
    11  C   -0.190947
    12  C    0.060425
    13  C    0.078611
    14  C   -0.245721
    15  C    0.126141
    16  C    0.243366
    17  N   -0.479193
    18  C    0.254441
    19  N   -0.756507
    20  C    0.315666
    21  C   -0.177561
    22  C   -0.140238
    23  C   -0.143569
    24  C   -0.196253
    25  C    0.059686
    26  C    0.064896
    27  C   -0.196011
    28  C   -0.142476
    29  C   -0.140348
    30  C   -0.163818
    31  C    0.317296
    32  C   -0.210146
    33  C    0.332731
    34  C   -0.140020
    35  C   -0.209857
    36  C    0.104517
    37  C    0.089045
    38  C   -0.158143
    39  C   -0.167742
    40  C    0.290400
    41  N   -0.746458
    42  C    0.313536
    43  C   -0.176795
    44  C   -0.141123
    45  C   -0.142641
    46  C   -0.196102
    47  C    0.060732
    48  C    0.064337
    49  C   -0.195344
    50  C   -0.142244
    51  C   -0.140243
    52  C   -0.164974
    53  C    0.318938
    54  C    0.295272
    55  N   -0.336755
    56  C   -0.057890
    57  C   -0.181173
    58  H    0.182118
    59  H    0.145243
    60  H    0.140004
    61  H    0.138376
    62  H    0.143234
    63  H    0.167820
    64  H    0.131000
    65  H    0.131183
    66  H    0.127472
    67  H    0.132607
    68  H    0.131165
    69  H    0.125970
    70  H    0.129362
    71  H    0.135767
    72  H    0.170713
    73  H    0.168416
    74  H    0.160709
    75  H    0.161629
    76  H    0.173314
    77  H    0.142567
    78  H    0.132691
    79  H    0.128449
    80  H    0.133650
    81  H    0.133060
    82  H    0.127893
    83  H    0.130159
    84  H    0.132791
    85  H    0.165313
 Sum of Mulliken charges =  -0.00000

 Dipole moment (field-independent basis, Debye):
    X=              1.9478    Y=              3.2277    Z=              2.1481  Tot=              4.3389
 Quadrupole moment (field-independent basis, Debye-Ang):
   XX=           -395.6400   YY=           -300.9515   ZZ=           -317.2185
   XY=            -42.7751   XZ=              0.3688   YZ=              1.1636

 1\1\GINC-NODE96\FOpt\RB3LYP\6-31G(d)\C51H28N6\WYKGROUP\05-Nov-2022\0\\
 #p b3lyp/6-31g(d) opt SCF=XQC\\Gaussian input prepared by ASE\\0,1\C,-
 0.7602787838,-1.3651325841,-2.8490722266\N,-0.5398823495,-1.3620042296
 ,-1.6877437341\C,-0.2512410499,-1.382621716,-0.3338252754\C,1.01511678
 13,-1.8360997176,0.0532382077\C,1.3501045066,-1.911772018,1.4058740332
 \N,2.6388870321,-2.3589361654,1.7950094051\C,2.9072970199,-3.417082955
 ,2.6815192529\C,2.0180964705,-4.2794556886,3.3257536982\C,2.5591393823
 ,-5.2695764796,4.1436536198\C,3.9476484225,-5.4036559261,4.3135468136\

 Normal termination of Gaussian 16 at Sat Nov  5 01:39:21 2022.
