 Gaussian 16, Revision B.01,
 Gaussian 16:  ES64L-G16RevB.01 20-Dec-2017

 -----------------------------
 #p b3lyp/6-31g(d) opt SCF=XQC
 -----------------------------

 ------------------------------
 Gaussian input prepared by ASE
 ------------------------------
 Symbolic Z-matrix:
 Charge =  0 Multiplicity = 1

 SCF Done:  E(RB3LYP) =  -2354.00700567     A.U. after   16 cycles
 SCF Done:  E(RB3LYP) =  -2354.02229263     A.U. after   13 cycles
 SCF Done:  E(RB3LYP) =  -2354.02358601     A.U. after   12 cycles
 SCF Done:  E(RB3LYP) =  -2354.02387700     A.U. after   12 cycles
 SCF Done:  E(RB3LYP) =  -2354.02396300     A.U. after   12 cycles
 SCF Done:  E(RB3LYP) =  -2354.02399772     A.U. after   10 cycles
 SCF Done:  E(RB3LYP) =  -2354.02401497     A.U. after   10 cycles
 SCF Done:  E(RB3LYP) =  -2354.02401650     A.U. after    8 cycles
 SCF Done:  E(RB3LYP) =  -2354.02401742     A.U. after    8 cycles
 SCF Done:  E(RB3LYP) =  -2354.02401762     A.U. after    7 cycles
 SCF Done:  E(RB3LYP) =  -2354.02401771     A.U. after    7 cycles
 SCF Done:  E(RB3LYP) =  -2354.02401774     A.U. after    7 cycles
 Optimization completed.
    -- Stationary point found.

                         Standard orientation:
 ---------------------------------------------------------------------
 Center     Atomic      Atomic             Coordinates (Angstroms)
 Number     Number       Type             X           Y           Z
 ---------------------------------------------------------------------
      1          8           0       -1.306366    5.060942   -1.391758
      2         16           0       -0.699739    4.676509   -0.102941
      3          8           0       -1.404779    5.022608    1.141483
      4          6           0       -0.237522    2.915685   -0.091823
      5          6           0       -1.314186    1.924972   -0.021932
      6          6           0       -2.505734    2.099221   -0.752514
      7          6           0       -3.541825    1.178077   -0.668467
      8          6           0       -3.428363    0.039944    0.148931
      9          7           0       -4.479216   -0.900489    0.235705
     10          6           0       -5.281492   -1.193102   -0.904777
     11          6           0       -6.677229   -1.278747   -0.786908
     12          6           0       -7.458171   -1.582184   -1.900715
     13          6           0       -6.865622   -1.787445   -3.148401
     14          6           0       -5.477370   -1.695205   -3.269562
     15          6           0       -4.686996   -1.410378   -2.157640
     16          6           0       -4.762540   -1.552580    1.470370
     17          6           0       -5.024744   -2.931070    1.498733
     18          6           0       -5.317351   -3.565165    2.704878
     19          6           0       -5.336270   -2.842764    3.899865
     20          6           0       -5.068690   -1.472263    3.874772
     21          6           0       -4.793228   -0.825996    2.671043
     22          6           0       -2.241327   -0.137126    0.885231
     23          6           0       -1.212446    0.789684    0.805407
     24          6           0        1.115970    2.790023   -0.046779
     25          6           0        1.849734    1.503279   -0.076613
     26          6           0        2.806592    1.181867    0.901009
     27          6           0        3.489382   -0.029995    0.873848
     28          6           0        3.257419   -0.959900   -0.154929
     29          7           0        3.958222   -2.186452   -0.194673
     30          6           0        5.314561   -2.255026    0.236821
     31          6           0        5.741015   -3.301435    1.068891
     32          6           0        7.071763   -3.376089    1.476583
     33          6           0        7.991668   -2.404108    1.077677
     34          6           0        7.567983   -1.357942    0.255195
     35          6           0        6.243363   -1.285363   -0.172160
     36          6           0        3.317251   -3.369893   -0.662632
     37          6           0        3.989162   -4.240641   -1.534345
     38          6           0        3.368173   -5.406769   -1.978174
     39          6           0        2.066601   -5.714608   -1.576731
     40          6           0        1.393210   -4.845681   -0.715456
     41          6           0        2.013003   -3.686699   -0.251677
     42          6           0        2.310266   -0.636926   -1.144409
     43          6           0        1.615904    0.565011   -1.096071
     44          6           0        1.845131    4.086007   -0.026654
     45          6           0        3.226966    4.295333   -0.038200
     46          6           0        3.723545    5.603578   -0.046062
     47          6           0        2.863733    6.704036   -0.058089
     48          6           0        1.476530    6.510058   -0.069621
     49          6           0        1.008254    5.208423   -0.047051
     50          1           0       -2.622467    2.971428   -1.387632
     51          1           0       -4.451897    1.342168   -1.235397
     52          1           0       -7.142005   -1.106301    0.178640
     53          1           0       -8.537880   -1.643877   -1.793012
     54          1           0       -7.478065   -2.016175   -4.015880
     55          1           0       -5.001846   -1.859519   -4.232942
     56          1           0       -3.607178   -1.353401   -2.252524
     57          1           0       -4.999577   -3.497127    0.572869
     58          1           0       -5.519051   -4.633168    2.709987
     59          1           0       -5.558378   -3.341315    4.839068
     60          1           0       -5.088991   -0.895435    4.795631
     61          1           0       -4.601512    0.242249    2.653736
     62          1           0       -2.134621   -1.004644    1.527818
     63          1           0       -0.314529    0.634759    1.393922
     64          1           0        2.994591    1.874493    1.716873
     65          1           0        4.203933   -0.263680    1.655940
     66          1           0        5.025426   -4.051710    1.390152
     67          1           0        7.386367   -4.192760    2.120945
     68          1           0        9.026521   -2.461792    1.402684
     69          1           0        8.275329   -0.599863   -0.070746
     70          1           0        5.920886   -0.480259   -0.825033
     71          1           0        4.996290   -3.998050   -1.858352
     72          1           0        3.902227   -6.070677   -2.652843
     73          1           0        1.583070   -6.620773   -1.930186
     74          1           0        0.382861   -5.076301   -0.388136
     75          1           0        1.491120   -3.021688    0.429182
     76          1           0        2.125949   -1.333218   -1.955592
     77          1           0        0.893027    0.794575   -1.873038
     78          1           0        3.909514    3.452279   -0.048166
     79          1           0        4.798328    5.762741   -0.049424
     80          1           0        3.268197    7.711835   -0.065696
     81          1           0        0.789859    7.350661   -0.096001
 ---------------------------------------------------------------------

 The electronic state is 1-A.
 Alpha  occ. eigenvalues --  -89.08342 -19.13270 -19.13207 -14.37307 -14.36868
 Alpha  occ. eigenvalues --  -10.24106 -10.23615 -10.23550 -10.23466 -10.23125
 Alpha  occ. eigenvalues --  -10.23109 -10.22616 -10.22535 -10.22169 -10.22037
 Alpha  occ. eigenvalues --  -10.21424 -10.20877 -10.20760 -10.20745 -10.20730
 Alpha  occ. eigenvalues --  -10.20407 -10.20211 -10.19987 -10.19774 -10.19732
 Alpha  occ. eigenvalues --  -10.19704 -10.19638 -10.19630 -10.19565 -10.19551
 Alpha  occ. eigenvalues --  -10.19483 -10.19424 -10.19421 -10.19389 -10.19367
 Alpha  occ. eigenvalues --  -10.19286 -10.19249 -10.19244 -10.19235 -10.19222
 Alpha  occ. eigenvalues --  -10.19031 -10.19022 -10.19019 -10.18972 -10.18965
 Alpha  occ. eigenvalues --  -10.18918 -10.18888 -10.18854 -10.18728  -8.11272
 Alpha  occ. eigenvalues --   -6.07682  -6.07635  -6.07607  -1.08760  -0.98243
 Alpha  occ. eigenvalues --   -0.97213  -0.96730  -0.89560  -0.86666  -0.86047
 Alpha  occ. eigenvalues --   -0.85995  -0.85542  -0.84573  -0.83949  -0.82645
 Alpha  occ. eigenvalues --   -0.78030  -0.77386  -0.76437  -0.76346  -0.75877
 Alpha  occ. eigenvalues --   -0.75221  -0.75032  -0.74927  -0.74766  -0.74555
 Alpha  occ. eigenvalues --   -0.74407  -0.73427  -0.72015  -0.70402  -0.68304
 Alpha  occ. eigenvalues --   -0.64456  -0.63449  -0.63287  -0.62886  -0.61539
 Alpha  occ. eigenvalues --   -0.61405  -0.60988  -0.60755  -0.60651  -0.60226
 Alpha  occ. eigenvalues --   -0.59928  -0.58884  -0.57942  -0.57355  -0.56323
 Alpha  occ. eigenvalues --   -0.54049  -0.53892  -0.53442  -0.53332  -0.51936
 Alpha  occ. eigenvalues --   -0.50716  -0.50005  -0.49848  -0.49097  -0.48781
 Alpha  occ. eigenvalues --   -0.48239  -0.47188  -0.46981  -0.46387  -0.45989
 Alpha  occ. eigenvalues --   -0.45791  -0.45469  -0.45291  -0.44923  -0.44883
 Alpha  occ. eigenvalues --   -0.44710  -0.44502  -0.44294  -0.44139  -0.43498
 Alpha  occ. eigenvalues --   -0.43458  -0.42944  -0.42887  -0.42754  -0.42603
 Alpha  occ. eigenvalues --   -0.42495  -0.42324  -0.42164  -0.42068  -0.39340
 Alpha  occ. eigenvalues --   -0.39036  -0.38733  -0.38488  -0.37927  -0.37708
 Alpha  occ. eigenvalues --   -0.37251  -0.37146  -0.37019  -0.36846  -0.36770
 Alpha  occ. eigenvalues --   -0.36464  -0.36295  -0.36159  -0.35884  -0.35826
 Alpha  occ. eigenvalues --   -0.35189  -0.34909  -0.34848  -0.34416  -0.34235
 Alpha  occ. eigenvalues --   -0.33317  -0.31609  -0.31226  -0.31014  -0.30409
 Alpha  occ. eigenvalues --   -0.28929  -0.28093  -0.26763  -0.26504  -0.26448
 Alpha  occ. eigenvalues --   -0.26294  -0.26150  -0.26023  -0.25794  -0.25428
 Alpha  occ. eigenvalues --   -0.25257  -0.24884  -0.24747  -0.22856  -0.19298
 Alpha  occ. eigenvalues --   -0.18262
 Alpha virt. eigenvalues --   -0.07128  -0.02786  -0.02221  -0.02160  -0.01727
 Alpha virt. eigenvalues --   -0.01486  -0.01247  -0.00913  -0.00248   0.00047
 Alpha virt. eigenvalues --    0.00505   0.00715   0.01885   0.02887   0.04634

 Mulliken charges:
               1
     1  O   -0.528581
     2  S    1.144709
     3  O   -0.498162
     4  C   -0.352028
     5  C    0.125792
     6  C   -0.201532
     7  C   -0.178576
     8  C    0.305366
     9  N   -0.652300
    10  C    0.269407
    11  C   -0.159077
    12  C   -0.139998
    13  C   -0.126709
    14  C   -0.139909
    15  C   -0.158079
    16  C    0.267474
    17  C   -0.159953
    18  C   -0.140477
    19  C   -0.127159
    20  C   -0.140877
    21  C   -0.160794
    22  C   -0.181386
    23  C   -0.163513
    24  C    0.076197
    25  C    0.060411
    26  C   -0.184904
    27  C   -0.179197
    28  C    0.304485
    29  N   -0.652930
    30  C    0.266654
    31  C   -0.158734
    32  C   -0.140110
    33  C   -0.126795
    34  C   -0.140489
    35  C   -0.158272
    36  C    0.269140
    37  C   -0.160002
    38  C   -0.139928
    39  C   -0.126982
    40  C   -0.140296
    41  C   -0.159456
    42  C   -0.177793
    43  C   -0.158102
    44  C    0.134868
    45  C   -0.187180
    46  C   -0.130243
    47  C   -0.120164
    48  C   -0.168374
    49  C   -0.198780
    50  H    0.185513
    51  H    0.152510
    52  H    0.146378
    53  H    0.133705
    54  H    0.129835
    55  H    0.133276
    56  H    0.143366
    57  H    0.143567
    58  H    0.132089
    59  H    0.129464
    60  H    0.135487
    61  H    0.152343
    62  H    0.146518
    63  H    0.145860
    64  H    0.145529
    65  H    0.150730
    66  H    0.146094
    67  H    0.134721
    68  H    0.131022
    69  H    0.133505
    70  H    0.142833
    71  H    0.145317
    72  H    0.134145
    73  H    0.130762
    74  H    0.135184
    75  H    0.144731
    76  H    0.151789
    77  H    0.150236
    78  H    0.150494
    79  H    0.141570
    80  H    0.144190
    81  H    0.170579
 Sum of Mulliken charges =  -0.00000

 Dipole moment (field-independent basis, Debye):
    X=              4.1257    Y=             -4.7838    Z=              0.1098  Tot=              6.3181
 Quadrupole moment (field-independent basis, Debye-Ang):
   XX=           -252.3986   YY=           -282.6039   ZZ=           -280.2888
   XY=             26.4223   XZ=              2.6235   YZ=              1.1732

 Normal termination of Gaussian 16 at Sat Nov  5 01:43:44 2022.
