 Gaussian 16, Revision B.01,
 Gaussian 16:  ES64L-G16RevB.01 20-Dec-2017

 -------------------------------------------------------------------
 #p b3lyp/6-31g(d) 6D 10F nosymm GFInput td=(50-50,nstate=2) SCF=XQC
 -------------------------------------------------------------------

 ------------------------------
 Gaussian input prepared by ASE
 ------------------------------
 Symbolic Z-matrix:
 Charge =  0 Multiplicity = 1

                          Input orientation:
 ---------------------------------------------------------------------
 Center     Atomic      Atomic             Coordinates (Angstroms)
 Number     Number       Type             X           Y           Z
 ---------------------------------------------------------------------
      1          8           0        1.827497    3.373632    4.399063
      2         16           0        1.302234    3.901672    3.125443
      3          8           0        2.150825    4.803426    2.330340
      4          6           0        0.654178    2.563448    2.074991
      5          6           0        1.618573    1.658553    1.445142
      6          6           0        2.750696    1.204408    2.149377
      7          6           0        3.683779    0.369198    1.548683
      8          6           0        3.521915   -0.050417    0.216735
      9          7           0        4.467761   -0.901572   -0.397385
     10          6           0        5.126534   -1.913109    0.359438
     11          6           0        6.509578   -2.110424    0.226904
     12          6           0        7.148478   -3.112088    0.955594
     13          6           0        6.426264   -3.918863    1.837346
     14          6           0        5.051047   -3.719240    1.976496
     15          6           0        4.400615   -2.732243    1.238278
     16          6           0        4.789439   -0.745212   -1.776504
     17          6           0        4.901645   -1.869652   -2.608870
     18          6           0        5.231880   -1.716793   -3.954254
     19          6           0        5.437711   -0.445468   -4.494238
     20          6           0        5.319612    0.675238   -3.669270
     21          6           0        5.007893    0.531108   -2.318507
     22          6           0        2.394470    0.404159   -0.493740
     23          6           0        1.469523    1.245345    0.106947
     24          6           0       -0.695234    2.680399    1.951817
     25          6           0       -1.564254    1.736370    1.211127
     26          6           0       -2.457624    2.183270    0.222796
     27          6           0       -3.267798    1.293554   -0.475469
     28          6           0       -3.232751   -0.082669   -0.189650
     29          7           0       -4.063496   -0.988926   -0.886569
     30          6           0       -5.374418   -0.600935   -1.288429
     31          6           0       -5.834809   -0.894308   -2.581158
     32          6           0       -7.123221   -0.528657   -2.967124
     33          6           0       -7.964358    0.147580   -2.080958
     34          6           0       -7.505865    0.446730   -0.796147
     35          6           0       -6.225530    0.068839   -0.395572
     36          6           0       -3.600210   -2.299596   -1.199413
     37          6           0       -4.439218   -3.409239   -1.014193
     38          6           0       -3.991636   -4.689176   -1.336527
     39          6           0       -2.700219   -4.886061   -1.829971
     40          6           0       -1.860891   -3.784161   -2.007815
     41          6           0       -2.306254   -2.498504   -1.705799
     42          6           0       -2.349896   -0.533849    0.809092
     43          6           0       -1.527423    0.358609    1.484507
     44          6           0       -1.274254    3.833010    2.692004
     45          6           0       -2.620429    4.189286    2.811598
     46          6           0       -2.970422    5.302543    3.583814
     47          6           0       -2.000689    6.055212    4.249800
     48          6           0       -0.649628    5.697036    4.157946
     49          6           0       -0.325597    4.601634    3.377469
     50          1           0        2.903431    1.516703    3.177430
     51          1           0        4.551025    0.041965    2.112038
     52          1           0        7.076114   -1.476073   -0.447389
     53          1           0        8.220364   -3.251458    0.842404
     54          1           0        6.928862   -4.693509    2.409396
     55          1           0        4.474952   -4.344299    2.653725
     56          1           0        3.329272   -2.589173    1.338331
     57          1           0        4.731076   -2.858260   -2.194334
     58          1           0        5.315850   -2.597579   -4.585526
     59          1           0        5.688656   -0.329466   -5.544742
     60          1           0        5.486081    1.670245   -4.073464
     61          1           0        4.932725    1.403577   -1.677141
     62          1           0        2.252849    0.098550   -1.524971
     63          1           0        0.617268    1.590764   -0.468337
     64          1           0       -2.494294    3.239348   -0.030313
     65          1           0       -3.929523    1.662644   -1.251841
     66          1           0       -5.178864   -1.409310   -3.275924
     67          1           0       -7.464951   -0.763123   -3.971802
     68          1           0       -8.965525    0.436860   -2.387323
     69          1           0       -8.153226    0.964092   -0.092926
     70          1           0       -5.878038    0.287976    0.609245
     71          1           0       -5.439227   -3.261163   -0.618979
     72          1           0       -4.653786   -5.537991   -1.187409
     73          1           0       -2.352225   -5.885789   -2.073514
     74          1           0       -0.856091   -3.921178   -2.398624
     75          1           0       -1.655470   -1.643482   -1.859385
     76          1           0       -2.316844   -1.589617    1.056223
     77          1           0       -0.857438   -0.011976    2.254388
     78          1           0       -3.388688    3.604880    2.316665
     79          1           0       -4.017355    5.579999    3.670145
     80          1           0       -2.292152    6.915001    4.845719
     81          1           0        0.119145    6.257742    4.680845
 ---------------------------------------------------------------------

 SCF Done:  E(RB3LYP) =  -2354.02401079     A.U. after   16 cycles

 Excitation energies and oscillator strengths:

 Excited state symmetry could not be determined.
 Excited State   1:      Triplet-?Sym    2.0153 eV  615.21 nm  f=0.0000  <S**2>=2.000
     169 ->172         0.31593
     171 ->172         0.60883
 This state for optimization and/or second-order correction.
 Total Energy, E(TD-HF/TD-DFT) =  -2353.94994899
 Copying the excited state density for this state as the 1-particle RhoCI density.

 Excited state symmetry could not be determined.
 Excited State   2:      Singlet-?Sym    2.6082 eV  475.36 nm  f=0.3541  <S**2>=0.000
     171 ->172         0.69909

 Excited state symmetry could not be determined.
 Excited State   3:      Triplet-?Sym    2.6334 eV  470.81 nm  f=0.0000  <S**2>=2.000
     170 ->172         0.64636
     170 ->175        -0.14700

 Excited state symmetry could not be determined.
 Excited State   4:      Singlet-?Sym    2.9075 eV  426.42 nm  f=0.1607  <S**2>=0.000
     170 ->172         0.69867

 Alpha  occ. eigenvalues --  -89.08342 -19.13270 -19.13207 -14.37307 -14.36868
 Alpha  occ. eigenvalues --  -10.24106 -10.23615 -10.23550 -10.23466 -10.23125
 Alpha  occ. eigenvalues --  -10.23109 -10.22616 -10.22535 -10.22169 -10.22037
 Alpha  occ. eigenvalues --  -10.21424 -10.20877 -10.20760 -10.20745 -10.20730
 Alpha  occ. eigenvalues --  -10.20407 -10.20211 -10.19987 -10.19774 -10.19732
 Alpha  occ. eigenvalues --  -10.19704 -10.19638 -10.19630 -10.19566 -10.19551
 Alpha  occ. eigenvalues --  -10.19483 -10.19424 -10.19421 -10.19389 -10.19367
 Alpha  occ. eigenvalues --  -10.19286 -10.19249 -10.19243 -10.19235 -10.19222
 Alpha  occ. eigenvalues --  -10.19031 -10.19022 -10.19019 -10.18972 -10.18965
 Alpha  occ. eigenvalues --  -10.18918 -10.18888 -10.18854 -10.18728  -8.11272
 Alpha  occ. eigenvalues --   -6.07682  -6.07635  -6.07608  -1.08760  -0.98244
 Alpha  occ. eigenvalues --   -0.97213  -0.96730  -0.89560  -0.86666  -0.86047
 Alpha  occ. eigenvalues --   -0.85995  -0.85542  -0.84573  -0.83949  -0.82645
 Alpha  occ. eigenvalues --   -0.78030  -0.77386  -0.76437  -0.76346  -0.75877
 Alpha  occ. eigenvalues --   -0.75221  -0.75032  -0.74927  -0.74766  -0.74555
 Alpha  occ. eigenvalues --   -0.74407  -0.73427  -0.72015  -0.70402  -0.68304
 Alpha  occ. eigenvalues --   -0.64456  -0.63448  -0.63287  -0.62886  -0.61539
 Alpha  occ. eigenvalues --   -0.61405  -0.60988  -0.60755  -0.60651  -0.60226
 Alpha  occ. eigenvalues --   -0.59928  -0.58884  -0.57942  -0.57355  -0.56323
 Alpha  occ. eigenvalues --   -0.54049  -0.53892  -0.53442  -0.53332  -0.51936
 Alpha  occ. eigenvalues --   -0.50716  -0.50005  -0.49848  -0.49097  -0.48781
 Alpha  occ. eigenvalues --   -0.48239  -0.47188  -0.46981  -0.46387  -0.45989
 Alpha  occ. eigenvalues --   -0.45791  -0.45469  -0.45291  -0.44923  -0.44883
 Alpha  occ. eigenvalues --   -0.44710  -0.44502  -0.44294  -0.44139  -0.43498
 Alpha  occ. eigenvalues --   -0.43458  -0.42944  -0.42887  -0.42754  -0.42603
 Alpha  occ. eigenvalues --   -0.42495  -0.42324  -0.42164  -0.42068  -0.39340
 Alpha  occ. eigenvalues --   -0.39036  -0.38733  -0.38488  -0.37927  -0.37708
 Alpha  occ. eigenvalues --   -0.37251  -0.37146  -0.37019  -0.36846  -0.36770
 Alpha  occ. eigenvalues --   -0.36464  -0.36295  -0.36159  -0.35884  -0.35826
 Alpha  occ. eigenvalues --   -0.35189  -0.34909  -0.34848  -0.34416  -0.34235
 Alpha  occ. eigenvalues --   -0.33317  -0.31609  -0.31226  -0.31014  -0.30409
 Alpha  occ. eigenvalues --   -0.28929  -0.28093  -0.26763  -0.26503  -0.26448
 Alpha  occ. eigenvalues --   -0.26294  -0.26150  -0.26023  -0.25794  -0.25427
 Alpha  occ. eigenvalues --   -0.25257  -0.24884  -0.24747  -0.22856  -0.19298
 Alpha  occ. eigenvalues --   -0.18262
 Alpha virt. eigenvalues --   -0.07128  -0.02786  -0.02221  -0.02160  -0.01727
 Alpha virt. eigenvalues --   -0.01486  -0.01247  -0.00913  -0.00248   0.00047
 Alpha virt. eigenvalues --    0.00505   0.00715   0.01886   0.02887   0.04634

 Mulliken charges:
               1
     1  O   -0.528583
     2  S    1.144718
     3  O   -0.498157
     4  C   -0.352026
     5  C    0.125791
     6  C   -0.201527
     7  C   -0.178575
     8  C    0.305359
     9  N   -0.652286
    10  C    0.269383
    11  C   -0.159066
    12  C   -0.140006
    13  C   -0.126708
    14  C   -0.139907
    15  C   -0.158068
    16  C    0.267478
    17  C   -0.159951
    18  C   -0.140474
    19  C   -0.127159
    20  C   -0.140877
    21  C   -0.160804
    22  C   -0.181382
    23  C   -0.163529
    24  C    0.076177
    25  C    0.060399
    26  C   -0.184906
    27  C   -0.179181
    28  C    0.304468
    29  N   -0.652925
    30  C    0.266649
    31  C   -0.158737
    32  C   -0.140110
    33  C   -0.126783
    34  C   -0.140493
    35  C   -0.158286
    36  C    0.269157
    37  C   -0.160010
    38  C   -0.139935
    39  C   -0.126976
    40  C   -0.140302
    41  C   -0.159452
    42  C   -0.177794
    43  C   -0.158081
    44  C    0.134891
    45  C   -0.187181
    46  C   -0.130246
    47  C   -0.120162
    48  C   -0.168377
    49  C   -0.198787
    50  H    0.185512
    51  H    0.152510
    52  H    0.146376
    53  H    0.133706
    54  H    0.129835
    55  H    0.133276
    56  H    0.143364
    57  H    0.143565
    58  H    0.132088
    59  H    0.129463
    60  H    0.135487
    61  H    0.152343
    62  H    0.146519
    63  H    0.145863
    64  H    0.145530
    65  H    0.150727
    66  H    0.146093
    67  H    0.134721
    68  H    0.131020
    69  H    0.133506
    70  H    0.142834
    71  H    0.145320
    72  H    0.134146
    73  H    0.130762
    74  H    0.135185
    75  H    0.144730
    76  H    0.151791
    77  H    0.150235
    78  H    0.150493
    79  H    0.141570
    80  H    0.144191
    81  H    0.170578
 Sum of Mulliken charges =  -0.00000

 Dipole moment (field-independent basis, Debye):
    X=             -4.5944    Y=             -3.1836    Z=             -2.9452  Tot=              6.3181
 Quadrupole moment (field-independent basis, Debye-Ang):
   XX=           -260.1367   YY=           -275.7174   ZZ=           -284.1162
   XY=            -27.7633   XZ=            -14.8811   YZ=             -1.6245

 Normal termination of Gaussian 16 at Sat Nov  5 10:56:05 2022.
