 Gaussian 16, Revision B.01,
 Gaussian 16:  ES64L-G16RevB.01 20-Dec-2017

 -------------------------------------------------------------------
 #p b3lyp/6-31g(d) 6D 10F nosymm GFInput td=(50-50,nstate=2) SCF=XQC
 -------------------------------------------------------------------

 ------------------------------
 Gaussian input prepared by ASE
 ------------------------------
 Symbolic Z-matrix:
 Charge =  0 Multiplicity = 1

                          Input orientation:
 ---------------------------------------------------------------------
 Center     Atomic      Atomic             Coordinates (Angstroms)
 Number     Number       Type             X           Y           Z
 ---------------------------------------------------------------------
      1          7           0        3.116984   -2.042167    2.267342
      2          6           0        2.476872   -1.720241    1.350983
      3          6           0        1.640474   -1.331467    0.250482
      4          6           0        0.272167   -1.159302    0.512143
      5          6           0       -0.611981   -0.835851   -0.518995
      6          7           0       -1.992626   -0.674841   -0.254306
      7          6           0       -2.820189   -1.601978    0.397307
      8          6           0       -2.506581   -2.872237    0.886365
      9          6           0       -3.527187   -3.602158    1.491080
     10          6           0       -4.828231   -3.084817    1.600941
     11          6           0       -5.140763   -1.827271    1.094392
     12          6           0       -4.132694   -1.071494    0.478824
     13          6           0       -4.095256    0.234482   -0.151918
     14          6           0       -5.043824    1.251359   -0.364240
     15          7           0       -6.401908    1.083998    0.029889
     16          6           0       -7.051474    1.808412    1.034975
     17          6           0       -6.525666    2.745082    1.927988
     18          6           0       -7.396505    3.312129    2.855925
     19          6           0       -8.755696    2.954961    2.898805
     20          6           0       -9.271258    2.017198    2.008664
     21          6           0       -8.418900    1.432846    1.064031
     22          6           0       -8.605721    0.450584    0.015328
     23          6           0       -9.711578   -0.268513   -0.454341
     24          6           0       -9.547121   -1.143410   -1.524546
     25          6           0       -8.289206   -1.305298   -2.131172
     26          6           0       -7.171670   -0.603947   -1.683497
     27          6           0       -7.343281    0.268177   -0.605890
     28          6           0       -4.641616    2.446587   -0.963205
     29          6           0       -3.309216    2.642254   -1.350993
     30          6           0       -2.350382    1.648238   -1.170961
     31          6           0       -2.759628    0.449152   -0.583744
     32          6           0       -0.111343   -0.676201   -1.818178
     33          6           0        1.249183   -0.823221   -2.068264
     34          6           0        2.161063   -1.153172   -1.054383
     35          6           0        3.602506   -1.312043   -1.383333
     36          6           0        3.985083   -2.081604   -2.494312
     37          6           0        5.330797   -2.224215   -2.827627
     38          6           0        6.316004   -1.589082   -2.073727
     39          6           0        5.947184   -0.821174   -0.962883
     40          7           0        6.944240   -0.164347   -0.190916
     41          6           0        8.028100   -0.783300    0.443686
     42          6           0        8.345818   -2.141506    0.521868
     43          6           0        9.484553   -2.495923    1.240056
     44          6           0       10.286839   -1.527809    1.869892
     45          6           0        9.960796   -0.178069    1.801039
     46          6           0        8.818110    0.205932    1.083317
     47          6           0        8.180823    1.476272    0.818411
     48          6           0        8.474339    2.812945    1.157633
     49          6           0        9.624370    3.132781    1.948642
     50          7           0       10.560720    3.390912    2.590367
     51          6           0        7.632048    3.839699    0.707129
     52          6           0        6.512756    3.544699   -0.078682
     53          6           0        6.197568    2.232550   -0.429592
     54          6           0        7.029619    1.210528    0.031601
     55          6           0        4.599041   -0.691017   -0.615828
     56          1           0       -0.097089   -1.280835    1.524293
     57          1           0       -1.506541   -3.283254    0.797512
     58          1           0       -3.308002   -4.591424    1.883016
     59          1           0       -5.601679   -3.676298    2.081760
     60          1           0       -6.150435   -1.440774    1.170110
     61          1           0       -5.476245    3.020308    1.899220
     62          1           0       -7.013864    4.044346    3.561839
     63          1           0       -9.407894    3.415835    3.635169
     64          1           0      -10.321914    1.741078    2.046149
     65          1           0      -10.686767   -0.140861    0.008481
     66          1           0      -10.398235   -1.706178   -1.897283
     67          1           0       -8.183296   -1.991164   -2.967352
     68          1           0       -6.202102   -0.730564   -2.154163
     69          1           0       -5.381693    3.222770   -1.129259
     70          1           0       -3.020628    3.584569   -1.807427
     71          1           0       -1.319217    1.810145   -1.465905
     72          1           0       -0.793234   -0.440099   -2.628714
     73          1           0        1.621749   -0.674284   -3.077090
     74          1           0        3.225297   -2.588087   -3.082267
     75          1           0        5.613998   -2.827348   -3.685395
     76          1           0        7.364217   -1.674737   -2.341499
     77          1           0        7.723480   -2.894570    0.050228
     78          1           0        9.753623   -3.545707    1.317964
     79          1           0       11.168463   -1.839699    2.421886
     80          1           0       10.575324    0.566293    2.296507
     81          1           0        7.860286    4.866532    0.972031
     82          1           0        5.877897    4.355140   -0.423884
     83          1           0        5.332101    2.014912   -1.046438
     84          1           0        4.335849   -0.100153    0.254530
 ---------------------------------------------------------------------

 SCF Done:  E(RB3LYP) =  -2196.60318360     A.U. after   16 cycles

 Excitation energies and oscillator strengths:

 Excited state symmetry could not be determined.
 Excited State   1:      Triplet-?Sym    2.8672 eV  432.43 nm  f=0.0000  <S**2>=2.000
     170 ->183        -0.12440
     174 ->183        -0.19794
     175 ->183        -0.10364
     179 ->183         0.47293
     182 ->183         0.37075
 This state for optimization and/or second-order correction.
 Total Energy, E(TD-HF/TD-DFT) =  -2196.49781691
 Copying the excited state density for this state as the 1-particle RhoCI density.

 Excited state symmetry could not be determined.
 Excited State   2:      Triplet-?Sym    2.8947 eV  428.31 nm  f=0.0000  <S**2>=2.000
     175 ->184         0.19700
     178 ->184         0.33670
     180 ->184         0.52947
     180 ->190        -0.10933

 Excited state symmetry could not be determined.
 Excited State   3:      Singlet-?Sym    3.0464 eV  406.98 nm  f=0.0223  <S**2>=0.000
     179 ->183         0.14879
     182 ->183         0.68909

 Excited state symmetry could not be determined.
 Excited State   4:      Singlet-?Sym    3.2823 eV  377.73 nm  f=0.0056  <S**2>=0.000
     180 ->183         0.70214

 Alpha  occ. eigenvalues --  -14.40394 -14.39779 -14.38185 -14.34855 -14.33093
 Alpha  occ. eigenvalues --  -10.27044 -10.26072 -10.25830 -10.24671 -10.24620
 Alpha  occ. eigenvalues --  -10.24455 -10.24441 -10.24138 -10.24070 -10.23695
 Alpha  occ. eigenvalues --  -10.23653 -10.23489 -10.23371 -10.23328 -10.23170
 Alpha  occ. eigenvalues --  -10.22464 -10.22424 -10.22418 -10.22050 -10.22011
 Alpha  occ. eigenvalues --  -10.21956 -10.21915 -10.21400 -10.21133 -10.21035
 Alpha  occ. eigenvalues --  -10.20878 -10.20857 -10.20756 -10.20723 -10.20419
 Alpha  occ. eigenvalues --  -10.20150 -10.20079 -10.20027 -10.19940 -10.19712
 Alpha  occ. eigenvalues --  -10.19701 -10.19617 -10.19404 -10.19121 -10.18914
 Alpha  occ. eigenvalues --  -10.18882 -10.18861 -10.18846 -10.18806 -10.18803
 Alpha  occ. eigenvalues --  -10.18788 -10.18784 -10.18735 -10.18224 -10.18150
 Alpha  occ. eigenvalues --   -1.01178  -1.00660  -0.99009  -0.92399  -0.90391
 Alpha  occ. eigenvalues --   -0.90172  -0.88928  -0.87269  -0.86504  -0.85878
 Alpha  occ. eigenvalues --   -0.85284  -0.84299  -0.84183  -0.81833  -0.80471
 Alpha  occ. eigenvalues --   -0.79919  -0.79180  -0.78549  -0.78149  -0.76837
 Alpha  occ. eigenvalues --   -0.76153  -0.75961  -0.74834  -0.73893  -0.73495
 Alpha  occ. eigenvalues --   -0.73317  -0.72984  -0.71499  -0.71285  -0.68230
 Alpha  occ. eigenvalues --   -0.67290  -0.66830  -0.65277  -0.64153  -0.63494
 Alpha  occ. eigenvalues --   -0.62914  -0.62423  -0.62112  -0.61187  -0.60701
 Alpha  occ. eigenvalues --   -0.60554  -0.60237  -0.59315  -0.57914  -0.57402
 Alpha  occ. eigenvalues --   -0.56651  -0.55607  -0.53851  -0.53601  -0.52965
 Alpha  occ. eigenvalues --   -0.52644  -0.52049  -0.51548  -0.51455  -0.51067
 Alpha  occ. eigenvalues --   -0.50835  -0.50164  -0.49265  -0.48939  -0.48722
 Alpha  occ. eigenvalues --   -0.48079  -0.47456  -0.47021  -0.46686  -0.46580
 Alpha  occ. eigenvalues --   -0.45714  -0.45552  -0.45307  -0.44903  -0.44413
 Alpha  occ. eigenvalues --   -0.44266  -0.44010  -0.43900  -0.43636  -0.43445
 Alpha  occ. eigenvalues --   -0.43290  -0.43141  -0.42906  -0.42361  -0.41938
 Alpha  occ. eigenvalues --   -0.41873  -0.41435  -0.41391  -0.40433  -0.39542
 Alpha  occ. eigenvalues --   -0.39251  -0.38794  -0.38566  -0.38529  -0.38326
 Alpha  occ. eigenvalues --   -0.38017  -0.37614  -0.37064  -0.36882  -0.36795
 Alpha  occ. eigenvalues --   -0.36439  -0.36323  -0.36307  -0.35991  -0.35322
 Alpha  occ. eigenvalues --   -0.35315  -0.35176  -0.35053  -0.34920  -0.34385
 Alpha  occ. eigenvalues --   -0.34065  -0.33833  -0.33441  -0.32626  -0.32246
 Alpha  occ. eigenvalues --   -0.31985  -0.30374  -0.29371  -0.29153  -0.28643
 Alpha  occ. eigenvalues --   -0.27823  -0.27794  -0.26734  -0.26447  -0.26190
 Alpha  occ. eigenvalues --   -0.25016  -0.22946  -0.22692  -0.21742  -0.21335
 Alpha  occ. eigenvalues --   -0.21244  -0.20010
 Alpha virt. eigenvalues --   -0.07562  -0.05753  -0.05597  -0.04476  -0.03576
 Alpha virt. eigenvalues --   -0.02666  -0.01872  -0.01570  -0.01159   0.00714
 Alpha virt. eigenvalues --    0.01325   0.01594   0.02571   0.02626   0.02830

 Mulliken charges:
               1
     1  N   -0.475310
     2  C    0.228253
     3  C    0.102502
     4  C   -0.180724
     5  C    0.286185
     6  N   -0.748404
     7  C    0.314573
     8  C   -0.181046
     9  C   -0.136940
    10  C   -0.148589
    11  C   -0.187665
    12  C    0.061730
    13  C    0.059873
    14  C    0.162342
    15  N   -0.730709
    16  C    0.309147
    17  C   -0.174253
    18  C   -0.142243
    19  C   -0.144513
    20  C   -0.197594
    21  C    0.058639
    22  C    0.065896
    23  C   -0.198905
    24  C   -0.144725
    25  C   -0.142190
    26  C   -0.172812
    27  C    0.295586
    28  C   -0.148150
    29  C   -0.158473
    30  C   -0.166380
    31  C    0.301434
    32  C   -0.142512
    33  C   -0.202007
    34  C    0.087469
    35  C    0.061475
    36  C   -0.156808
    37  C   -0.145156
    38  C   -0.142560
    39  C    0.262531
    40  N   -0.741652
    41  C    0.317860
    42  C   -0.175097
    43  C   -0.135498
    44  C   -0.147888
    45  C   -0.196600
    46  C    0.060109
    47  C    0.035579
    48  C    0.089946
    49  C    0.245236
    50  N   -0.503381
    51  C   -0.154711
    52  C   -0.149049
    53  C   -0.160793
    54  C    0.319446
    55  C   -0.183670
    56  H    0.185393
    57  H    0.141761
    58  H    0.135168
    59  H    0.134468
    60  H    0.164848
    61  H    0.138850
    62  H    0.127322
    63  H    0.124253
    64  H    0.129592
    65  H    0.130039
    66  H    0.123967
    67  H    0.126627
    68  H    0.137475
    69  H    0.148781
    70  H    0.138663
    71  H    0.140797
    72  H    0.166448
    73  H    0.156116
    74  H    0.143757
    75  H    0.147940
    76  H    0.160735
    77  H    0.143883
    78  H    0.133826
    79  H    0.134325
    80  H    0.168958
    81  H    0.151827
    82  H    0.140211
    83  H    0.145327
    84  H    0.169840
 Sum of Mulliken charges =  -0.00000

 Dipole moment (field-independent basis, Debye):
    X=             -3.8809    Y=             -1.9397    Z=             -6.8765  Tot=              8.1308
 Quadrupole moment (field-independent basis, Debye-Ang):
   XX=           -380.9986   YY=           -299.9420   ZZ=           -312.6572
   XY=            -25.6557   XZ=            -41.2849   YZ=              0.7295

 Normal termination of Gaussian 16 at Sat Nov  5 11:28:54 2022.
