 Gaussian 16, Revision B.01,
 Gaussian 16:  ES64L-G16RevB.01 20-Dec-2017

 -----------------------------
 #p b3lyp/6-31g(d) opt SCF=XQC
 -----------------------------

 ------------------------------
 Gaussian input prepared by ASE
 ------------------------------
 Symbolic Z-matrix:
 Charge =  0 Multiplicity = 1

 SCF Done:  E(RB3LYP) =  -2196.58972583     A.U. after   16 cycles
 SCF Done:  E(RB3LYP) =  -2196.60186945     A.U. after   13 cycles
 SCF Done:  E(RB3LYP) =  -2196.60243551     A.U. after   12 cycles
 SCF Done:  E(RB3LYP) =  -2196.60280872     A.U. after   13 cycles
 SCF Done:  E(RB3LYP) =  -2196.60311704     A.U. after   12 cycles
 SCF Done:  E(RB3LYP) =  -2196.60316660     A.U. after   11 cycles
 SCF Done:  E(RB3LYP) =  -2196.60317593     A.U. after   10 cycles
 SCF Done:  E(RB3LYP) =  -2196.60317875     A.U. after    9 cycles
 SCF Done:  E(RB3LYP) =  -2196.60318180     A.U. after    9 cycles
 SCF Done:  E(RB3LYP) =  -2196.60318247     A.U. after    8 cycles
 SCF Done:  E(RB3LYP) =  -2196.60318278     A.U. after    8 cycles
 SCF Done:  E(RB3LYP) =  -2196.60318293     A.U. after    7 cycles
 SCF Done:  E(RB3LYP) =  -2196.60318299     A.U. after    7 cycles
 Optimization completed.
    -- Stationary point found.

                         Standard orientation:
 ---------------------------------------------------------------------
 Center     Atomic      Atomic             Coordinates (Angstroms)
 Number     Number       Type             X           Y           Z
 ---------------------------------------------------------------------
      1          7           0        2.940300   -1.227918    2.646507
      2          6           0        2.283530   -1.238456    1.686489
      3          6           0        1.427113   -1.249555    0.533998
      4          6           0        0.060547   -1.008825    0.745935
      5          6           0       -0.841834   -1.058355   -0.318415
      6          7           0       -2.220555   -0.827193   -0.099654
      7          6           0       -3.027361   -1.485982    0.840615
      8          6           0       -2.691189   -2.514598    1.723804
      9          6           0       -3.694112   -3.004908    2.556777
     10          6           0       -4.999837   -2.489972    2.508284
     11          6           0       -5.335017   -1.479216    1.612898
     12          6           0       -4.345103   -0.968315    0.761210
     13          6           0       -4.332708    0.048597   -0.273464
     14          6           0       -5.296720    0.927577   -0.799744
     15          7           0       -6.646996    0.893443   -0.348821
     16          6           0       -7.291464    1.909850    0.364262
     17          6           0       -6.764965    3.096511    0.879946
     18          6           0       -7.629784    3.937202    1.577296
     19          6           0       -8.983696    3.605902    1.761604
     20          6           0       -9.499898    2.419252    1.248816
     21          6           0       -8.653573    1.556509    0.541904
     22          6           0       -8.842745    0.276791   -0.110825
     23          6           0       -9.946003   -0.566327   -0.291333
     24          6           0       -9.785593   -1.749763   -1.006581
     25          6           0       -8.534333   -2.097952   -1.544784
     26          6           0       -7.419484   -1.278877   -1.379197
     27          6           0       -7.586909   -0.095605   -0.655924
     28          6           0       -4.917799    1.853512   -1.773480
     29          6           0       -3.593466    1.916252   -2.227534
     30          6           0       -2.619924    1.047973   -1.739533
     31          6           0       -3.005999    0.114394   -0.775432
     32          6           0       -0.361365   -1.342780   -1.603817
     33          6           0        0.997270   -1.555989   -1.813201
     34          6           0        1.927218   -1.518204   -0.763384
     35          6           0        3.365805   -1.768602   -1.044407
     36          6           0        3.742418   -2.865102   -1.837323
     37          6           0        5.085029   -3.102338   -2.126281
     38          6           0        6.072661   -2.243234   -1.647832
     39          6           0        5.709821   -1.148239   -0.854723
     40          7           0        6.709282   -0.262536   -0.366785
     41          6           0        7.809495   -0.623536    0.420481
     42          6           0        8.145147   -1.873506    0.946496
     43          6           0        9.298096   -1.956901    1.722302
     44          6           0       10.096968   -0.827470    1.974872
     45          6           0        9.753227    0.417619    1.460637
     46          6           0        8.595966    0.528993    0.675363
     47          6           0        7.939292    1.631023    0.008741
     48          6           0        8.220849    3.005805   -0.127695
     49          6           0        9.377717    3.581773    0.489135
     50          7           0       10.319629    4.047800    0.989948
     51          6           0        7.359653    3.814489   -0.883345
     52          6           0        6.233283    3.263870   -1.504187
     53          6           0        5.929590    1.908078   -1.386645
     54          6           0        6.780638    1.107383   -0.622353
     55          6           0        4.365128   -0.918110   -0.548591
     56          1           0       -0.293036   -0.784416    1.746028
     57          1           0       -1.687446   -2.924470    1.761433
     58          1           0       -3.457196   -3.802429    3.255442
     59          1           0       -5.759093   -2.890016    3.173682
     60          1           0       -6.348269   -1.096925    1.571340
     61          1           0       -5.719553    3.353260    0.741910
     62          1           0       -7.246489    4.867284    1.988274
     63          1           0       -9.631260    4.283559    2.310642
     64          1           0      -10.546412    2.164592    1.395380
     65          1           0      -10.916164   -0.296889    0.118158
     66          1           0      -10.634748   -2.411235   -1.152964
     67          1           0       -8.431553   -3.024913   -2.102464
     68          1           0       -6.455065   -1.550026   -1.796323
     69          1           0       -5.669717    2.522981   -2.178668
     70          1           0       -3.323013    2.651383   -2.979869
     71          1           0       -1.595061    1.108136   -2.089596
     72          1           0       -1.057364   -1.398707   -2.434566
     73          1           0        1.353867   -1.753456   -2.819462
     74          1           0        2.980878   -3.545543   -2.206847
     75          1           0        5.363739   -3.957454   -2.735245
     76          1           0        7.118028   -2.406833   -1.889148
     77          1           0        7.525719   -2.745872    0.767215
     78          1           0        9.581267   -2.916966    2.144916
     79          1           0       10.990007   -0.928694    2.584354
     80          1           0       10.365287    1.289776    1.665416
     81          1           0        7.578764    4.872072   -0.984144
     82          1           0        5.583641    3.905898   -2.091376
     83          1           0        5.058391    1.489061   -1.878919
     84          1           0        4.106752   -0.070156    0.076013
 ---------------------------------------------------------------------

 The electronic state is 1-A.
 Alpha  occ. eigenvalues --  -14.40394 -14.39780 -14.38185 -14.34855 -14.33093
 Alpha  occ. eigenvalues --  -10.27044 -10.26072 -10.25830 -10.24671 -10.24620
 Alpha  occ. eigenvalues --  -10.24455 -10.24441 -10.24138 -10.24070 -10.23695
 Alpha  occ. eigenvalues --  -10.23653 -10.23489 -10.23371 -10.23328 -10.23170
 Alpha  occ. eigenvalues --  -10.22464 -10.22424 -10.22418 -10.22050 -10.22011
 Alpha  occ. eigenvalues --  -10.21956 -10.21915 -10.21400 -10.21133 -10.21035
 Alpha  occ. eigenvalues --  -10.20878 -10.20857 -10.20756 -10.20723 -10.20419
 Alpha  occ. eigenvalues --  -10.20150 -10.20079 -10.20027 -10.19940 -10.19712
 Alpha  occ. eigenvalues --  -10.19701 -10.19617 -10.19404 -10.19121 -10.18914
 Alpha  occ. eigenvalues --  -10.18882 -10.18861 -10.18846 -10.18806 -10.18803
 Alpha  occ. eigenvalues --  -10.18788 -10.18784 -10.18735 -10.18224 -10.18150
 Alpha  occ. eigenvalues --   -1.01178  -1.00660  -0.99009  -0.92399  -0.90391
 Alpha  occ. eigenvalues --   -0.90172  -0.88928  -0.87269  -0.86504  -0.85878
 Alpha  occ. eigenvalues --   -0.85284  -0.84299  -0.84183  -0.81833  -0.80471
 Alpha  occ. eigenvalues --   -0.79919  -0.79180  -0.78549  -0.78149  -0.76837
 Alpha  occ. eigenvalues --   -0.76153  -0.75961  -0.74834  -0.73893  -0.73495
 Alpha  occ. eigenvalues --   -0.73317  -0.72984  -0.71499  -0.71285  -0.68230
 Alpha  occ. eigenvalues --   -0.67290  -0.66830  -0.65277  -0.64153  -0.63494
 Alpha  occ. eigenvalues --   -0.62914  -0.62423  -0.62112  -0.61187  -0.60701
 Alpha  occ. eigenvalues --   -0.60554  -0.60237  -0.59315  -0.57914  -0.57402
 Alpha  occ. eigenvalues --   -0.56651  -0.55607  -0.53851  -0.53601  -0.52965
 Alpha  occ. eigenvalues --   -0.52644  -0.52049  -0.51548  -0.51455  -0.51067
 Alpha  occ. eigenvalues --   -0.50835  -0.50164  -0.49265  -0.48939  -0.48722
 Alpha  occ. eigenvalues --   -0.48079  -0.47456  -0.47021  -0.46686  -0.46580
 Alpha  occ. eigenvalues --   -0.45714  -0.45552  -0.45307  -0.44903  -0.44413
 Alpha  occ. eigenvalues --   -0.44266  -0.44010  -0.43900  -0.43636  -0.43445
 Alpha  occ. eigenvalues --   -0.43290  -0.43141  -0.42906  -0.42361  -0.41938
 Alpha  occ. eigenvalues --   -0.41873  -0.41435  -0.41391  -0.40433  -0.39542
 Alpha  occ. eigenvalues --   -0.39251  -0.38794  -0.38566  -0.38529  -0.38326
 Alpha  occ. eigenvalues --   -0.38017  -0.37614  -0.37064  -0.36882  -0.36795
 Alpha  occ. eigenvalues --   -0.36439  -0.36323  -0.36307  -0.35991  -0.35322
 Alpha  occ. eigenvalues --   -0.35315  -0.35176  -0.35053  -0.34920  -0.34385
 Alpha  occ. eigenvalues --   -0.34065  -0.33833  -0.33441  -0.32626  -0.32246
 Alpha  occ. eigenvalues --   -0.31985  -0.30374  -0.29371  -0.29153  -0.28643
 Alpha  occ. eigenvalues --   -0.27823  -0.27794  -0.26734  -0.26447  -0.26190
 Alpha  occ. eigenvalues --   -0.25017  -0.22946  -0.22692  -0.21742  -0.21335
 Alpha  occ. eigenvalues --   -0.21244  -0.20010
 Alpha virt. eigenvalues --   -0.07562  -0.05753  -0.05597  -0.04476  -0.03576
 Alpha virt. eigenvalues --   -0.02666  -0.01872  -0.01570  -0.01159   0.00714
 Alpha virt. eigenvalues --    0.01325   0.01594   0.02571   0.02626   0.02830

 Mulliken charges:
               1
     1  N   -0.475318
     2  C    0.228260
     3  C    0.102480
     4  C   -0.180707
     5  C    0.286168
     6  N   -0.748393
     7  C    0.314584
     8  C   -0.181047
     9  C   -0.136944
    10  C   -0.148584
    11  C   -0.187665
    12  C    0.061737
    13  C    0.059868
    14  C    0.162367
    15  N   -0.730709
    16  C    0.309123
    17  C   -0.174236
    18  C   -0.142239
    19  C   -0.144513
    20  C   -0.197597
    21  C    0.058643
    22  C    0.065904
    23  C   -0.198907
    24  C   -0.144728
    25  C   -0.142184
    26  C   -0.172799
    27  C    0.295548
    28  C   -0.148159
    29  C   -0.158478
    30  C   -0.166369
    31  C    0.301407
    32  C   -0.142505
    33  C   -0.202013
    34  C    0.087490
    35  C    0.061488
    36  C   -0.156817
    37  C   -0.145158
    38  C   -0.142558
    39  C    0.262539
    40  N   -0.741653
    41  C    0.317845
    42  C   -0.175100
    43  C   -0.135483
    44  C   -0.147892
    45  C   -0.196621
    46  C    0.060152
    47  C    0.035580
    48  C    0.089942
    49  C    0.245235
    50  N   -0.503381
    51  C   -0.154715
    52  C   -0.149048
    53  C   -0.160789
    54  C    0.319432
    55  C   -0.183684
    56  H    0.185392
    57  H    0.141762
    58  H    0.135168
    59  H    0.134467
    60  H    0.164848
    61  H    0.138849
    62  H    0.127322
    63  H    0.124253
    64  H    0.129591
    65  H    0.130039
    66  H    0.123967
    67  H    0.126627
    68  H    0.137473
    69  H    0.148786
    70  H    0.138663
    71  H    0.140797
    72  H    0.166448
    73  H    0.156116
    74  H    0.143757
    75  H    0.147941
    76  H    0.160734
    77  H    0.143883
    78  H    0.133825
    79  H    0.134325
    80  H    0.168958
    81  H    0.151828
    82  H    0.140211
    83  H    0.145329
    84  H    0.169840
 Sum of Mulliken charges =  -0.00000

 Dipole moment (field-independent basis, Debye):
    X=             -3.9519    Y=             -4.1727    Z=             -5.7516  Tot=              8.1308
 Quadrupole moment (field-independent basis, Debye-Ang):
   XX=           -379.6411   YY=           -300.6945   ZZ=           -309.2427
   XY=            -37.3572   XZ=            -27.1534   YZ=             -1.9764

 1\1\GINC-NODE76\FOpt\RB3LYP\6-31G(d)\C50H29N5\WYKGROUP\05-Nov-2022\0\\
 #p b3lyp/6-31g(d) opt SCF=XQC\\Gaussian input prepared by ASE\\0,1\N,3
 .1169843514,-2.0421665684,2.2673417938\C,2.4768718664,-1.7202412637,1.
 3509834725\C,1.6404742749,-1.3314667091,0.2504823894\C,0.2721672132,-1
 .1593018482,0.5121432253\C,-0.6119813609,-0.8358507688,-0.5189945923\N
 ,-1.9926258479,-0.67484134,-0.2543061635\C,-2.8201891664,-1.6019782591
 ,0.3973069742\C,-2.5065805456,-2.8722366676,0.8863652214\C,-3.52718715
 73,-3.6021581072,1.4910802042\C,-4.8282312507,-3.0848171893,1.60094112

 Normal termination of Gaussian 16 at Sat Nov  5 01:32:01 2022.
