 Gaussian 16, Revision B.01,
 Gaussian 16:  ES64L-G16RevB.01 20-Dec-2017

 -------------------------------------------------------------------
 #p b3lyp/6-31g(d) 6D 10F nosymm GFInput td=(50-50,nstate=2) SCF=XQC
 -------------------------------------------------------------------

 ------------------------------
 Gaussian input prepared by ASE
 ------------------------------
 Symbolic Z-matrix:
 Charge =  0 Multiplicity = 1

                          Input orientation:
 ---------------------------------------------------------------------
 Center     Atomic      Atomic             Coordinates (Angstroms)
 Number     Number       Type             X           Y           Z
 ---------------------------------------------------------------------
      1          6           0        5.747113   -0.721091   -4.188632
      2          6           0        6.847720   -0.589296   -3.338805
      3          6           0        6.682034   -0.687508   -1.959881
      4          6           0        5.409218   -0.900666   -1.404885
      5          6           0        5.286710   -1.056538    0.070017
      6          7           0        6.294969   -1.658950    0.679125
      7          6           0        6.190622   -1.944365    2.003437
      8          6           0        7.256175   -2.597768    2.673258
      9          6           0        7.122213   -2.939797    4.000999
     10          6           0        5.926883   -2.647483    4.707134
     11          6           0        4.878467   -2.008223    4.082076
     12          6           0        4.995821   -1.636448    2.719531
     13          7           0        3.993677   -0.945784    2.112943
     14          6           0        4.138552   -0.630965    0.845340
     15          7           0        3.106804    0.147429    0.271920
     16          6           0        1.732466   -0.135956    0.375116
     17          6           0        1.091174   -1.259480    0.896014
     18          6           0       -0.298273   -1.309891    0.819333
     19          6           0       -1.066259   -0.272843    0.243528
     20          6           0       -2.547766   -0.367079    0.191149
     21          6           0       -3.256260    0.092903   -0.944007
     22          6           0       -4.642887    0.032371   -1.033338
     23          6           0       -5.345970   -0.504477    0.048073
     24          6           0       -4.666671   -0.990181    1.193031
     25          6           0       -3.273013   -0.913055    1.257821
     26          6           0       -5.679101   -1.496168    2.097142
     27          6           0       -5.634462   -2.075241    3.370590
     28          6           0       -6.824857   -2.445301    3.989670
     29          6           0       -8.058436   -2.235093    3.349638
     30          6           0       -8.131268   -1.661518    2.081917
     31          6           0       -6.931816   -1.303739    1.460189
     32          7           0       -6.721008   -0.699908    0.214309
     33          6           0       -7.730858   -0.341222   -0.718918
     34          6           0       -8.634643   -1.306028   -1.182030
     35          6           0       -9.630086   -0.947585   -2.090714
     36          6           0       -9.719295    0.365146   -2.557993
     37          6           0       -8.811581    1.323744   -2.103309
     38          6           0       -7.825558    0.978287   -1.179465
     39          6           0       -0.396554    0.845857   -0.272047
     40          6           0        0.995756    0.917955   -0.210991
     41          6           0        1.954976    1.921495   -0.639392
     42          6           0        1.824909    3.164477   -1.224018
     43          6           0        2.974918    3.947156   -1.489063
     44          6           0        2.884764    5.234873   -2.088717
     45          6           0        4.009614    5.987700   -2.329854
     46          6           0        5.289527    5.486159   -1.979971
     47          6           0        5.415796    4.246198   -1.398628
     48          6           0        4.274978    3.437107   -1.134585
     49          6           0        4.397438    2.157656   -0.535222
     50          6           0        3.257164    1.418870   -0.311163
     51          6           0        4.309826   -1.038345   -2.267482
     52          6           0        4.481570   -0.953565   -3.648242
     53          1           0        5.875710   -0.646235   -5.265074
     54          1           0        7.837453   -0.412400   -3.751256
     55          1           0        7.535309   -0.606952   -1.294512
     56          1           0        8.155524   -2.821495    2.107966
     57          1           0        7.935680   -3.442820    4.516298
     58          1           0        5.843786   -2.928958    5.753155
     59          1           0        3.959100   -1.762105    4.604200
     60          1           0        1.650875   -2.065509    1.355910
     61          1           0       -0.808832   -2.190335    1.198535
     62          1           0       -2.695153    0.481966   -1.788787
     63          1           0       -5.155901    0.377182   -1.925105
     64          1           0       -2.751119   -1.256322    2.146879
     65          1           0       -4.681722   -2.228768    3.870753
     66          1           0       -6.802818   -2.896341    4.977630
     67          1           0       -8.977773   -2.522335    3.852852
     68          1           0       -9.088104   -1.493583    1.598799
     69          1           0       -8.544077   -2.330846   -0.835717
     70          1           0      -10.328589   -1.701115   -2.444187
     71          1           0      -10.491003    0.639292   -3.271715
     72          1           0       -8.877854    2.348953   -2.457162
     73          1           0       -7.133889    1.725212   -0.802501
     74          1           0       -0.965126    1.668618   -0.696566
     75          1           0        0.843517    3.560599   -1.474179
     76          1           0        1.900579    5.615142   -2.353375
     77          1           0        3.922517    6.968986   -2.788352
     78          1           0        6.173585    6.087780   -2.173925
     79          1           0        6.397598    3.861820   -1.131951
     80          1           0        5.382136    1.787302   -0.270441
     81          1           0        3.321435   -1.229970   -1.864210
     82          1           0        3.621923   -1.070584   -4.302289
 ---------------------------------------------------------------------

 SCF Done:  E(RB3LYP) =  -2066.26564422     A.U. after   16 cycles

 Excitation energies and oscillator strengths:

 Excited state symmetry could not be determined.
 Excited State   1:      Triplet-?Sym    2.1954 eV  564.75 nm  f=0.0000  <S**2>=2.000
     172 ->174         0.16044
     173 ->174         0.64566
     173 ->175        -0.12231
 This state for optimization and/or second-order correction.
 Total Energy, E(TD-HF/TD-DFT) =  -2066.18496499
 Copying the excited state density for this state as the 1-particle RhoCI density.

 Excited state symmetry could not be determined.
 Excited State   2:      Triplet-?Sym    2.3354 eV  530.88 nm  f=0.0000  <S**2>=2.000
     171 ->175         0.12207
     172 ->175         0.29062
     172 ->176        -0.16003
     173 ->174         0.13893
     173 ->175         0.44941
     173 ->176        -0.27235

 Excited state symmetry could not be determined.
 Excited State   3:      Singlet-?Sym    2.3553 eV  526.41 nm  f=0.0417  <S**2>=0.000
     172 ->174         0.12714
     173 ->174         0.69137

 Excited state symmetry could not be determined.
 Excited State   4:      Singlet-?Sym    2.9598 eV  418.90 nm  f=0.0044  <S**2>=0.000
     172 ->174         0.68705
     173 ->174        -0.12860

 Alpha  occ. eigenvalues --  -14.38399 -14.38145 -14.35058 -14.34828 -10.27996
 Alpha  occ. eigenvalues --  -10.25155 -10.23983 -10.23620 -10.23466 -10.22780
 Alpha  occ. eigenvalues --  -10.22597 -10.22288 -10.22244 -10.20616 -10.20559
 Alpha  occ. eigenvalues --  -10.20314 -10.20159 -10.20153 -10.20110 -10.20107
 Alpha  occ. eigenvalues --  -10.20055 -10.20054 -10.19910 -10.19411 -10.19315
 Alpha  occ. eigenvalues --  -10.19314 -10.19293 -10.19122 -10.19102 -10.19086
 Alpha  occ. eigenvalues --  -10.19079 -10.19064 -10.19005 -10.18918 -10.18907
 Alpha  occ. eigenvalues --  -10.18788 -10.18754 -10.18734 -10.18686 -10.18685
 Alpha  occ. eigenvalues --  -10.18658 -10.18641 -10.18617 -10.18605 -10.18602
 Alpha  occ. eigenvalues --  -10.18533 -10.18525 -10.18387 -10.18378 -10.18259
 Alpha  occ. eigenvalues --  -10.18222 -10.18009  -1.00977  -0.98859  -0.97167
 Alpha  occ. eigenvalues --   -0.91735  -0.87085  -0.86839  -0.86146  -0.85473
 Alpha  occ. eigenvalues --   -0.84994  -0.83987  -0.83643  -0.81681  -0.79160
 Alpha  occ. eigenvalues --   -0.78246  -0.77458  -0.76614  -0.76043  -0.75557
 Alpha  occ. eigenvalues --   -0.75352  -0.75127  -0.74594  -0.73943  -0.73417
 Alpha  occ. eigenvalues --   -0.72073  -0.71372  -0.71096  -0.70237  -0.67406
 Alpha  occ. eigenvalues --   -0.66337  -0.64688  -0.63681  -0.62475  -0.61898
 Alpha  occ. eigenvalues --   -0.61596  -0.61181  -0.60294  -0.59972  -0.59565
 Alpha  occ. eigenvalues --   -0.59404  -0.58515  -0.57827  -0.57024  -0.56943
 Alpha  occ. eigenvalues --   -0.55169  -0.54576  -0.53767  -0.53135  -0.52895
 Alpha  occ. eigenvalues --   -0.51459  -0.51210  -0.50403  -0.50136  -0.49474
 Alpha  occ. eigenvalues --   -0.48315  -0.47936  -0.47263  -0.46962  -0.46265
 Alpha  occ. eigenvalues --   -0.45905  -0.45506  -0.45271  -0.44842  -0.44766
 Alpha  occ. eigenvalues --   -0.44376  -0.44202  -0.43979  -0.43582  -0.43402
 Alpha  occ. eigenvalues --   -0.43240  -0.43084  -0.42757  -0.42623  -0.42227
 Alpha  occ. eigenvalues --   -0.42085  -0.41870  -0.41664  -0.41476  -0.41161
 Alpha  occ. eigenvalues --   -0.41067  -0.40446  -0.39590  -0.37990  -0.37559
 Alpha  occ. eigenvalues --   -0.37471  -0.37438  -0.37237  -0.37091  -0.36729
 Alpha  occ. eigenvalues --   -0.36245  -0.35993  -0.35753  -0.35283  -0.35102
 Alpha  occ. eigenvalues --   -0.34979  -0.34836  -0.34442  -0.34101  -0.33895
 Alpha  occ. eigenvalues --   -0.33544  -0.33452  -0.32793  -0.32473  -0.31983
 Alpha  occ. eigenvalues --   -0.31439  -0.30371  -0.28419  -0.27707  -0.27378
 Alpha  occ. eigenvalues --   -0.26250  -0.26136  -0.26057  -0.25876  -0.25302
 Alpha  occ. eigenvalues --   -0.25069  -0.24693  -0.23477  -0.22687  -0.21190
 Alpha  occ. eigenvalues --   -0.20975  -0.19800  -0.18128
 Alpha virt. eigenvalues --   -0.07652  -0.04518  -0.04097  -0.02540  -0.01827
 Alpha virt. eigenvalues --   -0.01237  -0.01071  -0.00063   0.00129   0.00519
 Alpha virt. eigenvalues --    0.01084   0.02166   0.02371   0.04027   0.04505

 Mulliken charges:
               1
     1  C   -0.118878
     2  C   -0.136260
     3  C   -0.146358
     4  C    0.099306
     5  C    0.213140
     6  N   -0.544520
     7  C    0.283791
     8  C   -0.154360
     9  C   -0.135061
    10  C   -0.134632
    11  C   -0.158941
    12  C    0.279277
    13  N   -0.517853
    14  C    0.400295
    15  N   -0.740957
    16  C    0.330366
    17  C   -0.168106
    18  C   -0.193630
    19  C    0.085026
    20  C    0.083403
    21  C   -0.192928
    22  C   -0.179449
    23  C    0.317829
    24  C    0.065594
    25  C   -0.259789
    26  C    0.057723
    27  C   -0.196641
    28  C   -0.145252
    29  C   -0.141730
    30  C   -0.176597
    31  C    0.311540
    32  N   -0.736487
    33  C    0.264154
    34  C   -0.149380
    35  C   -0.142768
    36  C   -0.121321
    37  C   -0.142825
    38  C   -0.149238
    39  C   -0.257370
    40  C    0.061188
    41  C    0.086990
    42  C   -0.296324
    43  C    0.135740
    44  C   -0.188706
    45  C   -0.141955
    46  C   -0.137092
    47  C   -0.193613
    48  C    0.134555
    49  C   -0.251054
    50  C    0.327900
    51  C   -0.156441
    52  C   -0.137993
    53  H    0.133356
    54  H    0.133026
    55  H    0.146989
    56  H    0.148986
    57  H    0.140895
    58  H    0.141433
    59  H    0.151820
    60  H    0.144141
    61  H    0.131900
    62  H    0.129011
    63  H    0.140388
    64  H    0.133523
    65  H    0.130487
    66  H    0.124029
    67  H    0.126535
    68  H    0.139330
    69  H    0.152549
    70  H    0.138529
    71  H    0.135290
    72  H    0.138562
    73  H    0.152558
    74  H    0.133531
    75  H    0.132223
    76  H    0.125503
    77  H    0.125750
    78  H    0.126261
    79  H    0.126249
    80  H    0.138403
    81  H    0.149254
    82  H    0.136182
 Sum of Mulliken charges =  -0.00000

 Dipole moment (field-independent basis, Debye):
    X=             -0.6955    Y=             -0.6588    Z=             -0.8601  Tot=              1.2874
 Quadrupole moment (field-independent basis, Debye-Ang):
   XX=           -243.0879   YY=           -286.4422   ZZ=           -272.9966
   XY=             -5.8779   XZ=             18.0435   YZ=            -16.3093

 Normal termination of Gaussian 16 at Sat Nov  5 10:42:31 2022.
