 Gaussian 16, Revision B.01,
 Gaussian 16:  ES64L-G16RevB.01 20-Dec-2017

 -----------------------------
 #p b3lyp/6-31g(d) opt SCF=XQC
 -----------------------------

 ------------------------------
 Gaussian input prepared by ASE
 ------------------------------
 Symbolic Z-matrix:
 Charge =  0 Multiplicity = 1

 SCF Done:  E(RB3LYP) =  -2066.25096117     A.U. after   16 cycles
 SCF Done:  E(RB3LYP) =  -2066.25947482     A.U. after   15 cycles
 SCF Done:  E(RB3LYP) =  -2066.26305143     A.U. after   13 cycles
 SCF Done:  E(RB3LYP) =  -2066.26506457     A.U. after   13 cycles
 SCF Done:  E(RB3LYP) =  -2066.26542978     A.U. after   12 cycles
 SCF Done:  E(RB3LYP) =  -2066.26554857     A.U. after   11 cycles
 SCF Done:  E(RB3LYP) =  -2066.26560699     A.U. after   11 cycles
 SCF Done:  E(RB3LYP) =  -2066.26563001     A.U. after   10 cycles
 SCF Done:  E(RB3LYP) =  -2066.26563754     A.U. after   10 cycles
 SCF Done:  E(RB3LYP) =  -2066.26563953     A.U. after    9 cycles
 SCF Done:  E(RB3LYP) =  -2066.26564046     A.U. after    9 cycles
 SCF Done:  E(RB3LYP) =  -2066.26564058     A.U. after    7 cycles
 SCF Done:  E(RB3LYP) =  -2066.26564059     A.U. after    6 cycles
 Optimization completed.
    -- Stationary point found.

                         Standard orientation:
 ---------------------------------------------------------------------
 Center     Atomic      Atomic             Coordinates (Angstroms)
 Number     Number       Type             X           Y           Z
 ---------------------------------------------------------------------
      1          6           0        5.680515   -2.112892    3.664953
      2          6           0        6.762535   -1.519290    3.010905
      3          6           0        6.549393   -0.483324    2.105435
      4          6           0        5.248256   -0.034842    1.823615
      5          6           0        5.070920    1.112881    0.893064
      6          7           0        6.011857    2.042403    0.926611
      7          6           0        5.847143    3.175157    0.194567
      8          6           0        6.839501    4.187771    0.223570
      9          6           0        6.640844    5.360371   -0.471677
     10          6           0        5.451127    5.568263   -1.216152
     11          6           0        4.473454    4.598626   -1.266009
     12          6           0        4.658854    3.379244   -0.567975
     13          7           0        3.730683    2.390207   -0.665766
     14          6           0        3.936370    1.280184    0.006886
     15          7           0        2.984426    0.251106   -0.177533
     16          6           0        1.590013    0.420200   -0.095206
     17          6           0        0.849698    1.528674    0.314811
     18          6           0       -0.536684    1.405815    0.357653
     19          6           0       -1.205912    0.213708    0.000111
     20          6           0       -2.688107    0.131913    0.053883
     21          6           0       -3.325719   -1.049276    0.501511
     22          6           0       -4.709692   -1.173829    0.560531
     23          6           0       -5.483214   -0.082345    0.157659
     24          6           0       -4.876953    1.121631   -0.279578
     25          6           0       -3.483983    1.217661   -0.332890
     26          6           0       -5.951215    2.042483   -0.590133
     27          6           0       -5.988394    3.355729   -1.072825
     28          6           0       -7.221262    3.965691   -1.285493
     29          6           0       -8.415831    3.271864   -1.026350
     30          6           0       -8.407339    1.964431   -0.544732
     31          6           0       -7.166306    1.361858   -0.321174
     32          7           0       -6.873455    0.069929    0.133168
     33          6           0       -7.825084   -0.919403    0.500577
     34          6           0       -8.785974   -0.640633    1.480950
     35          6           0       -9.723985   -1.611284    1.831760
     36          6           0       -9.698832   -2.868581    1.225014
     37          6           0       -8.734254   -3.148700    0.255109
     38          6           0       -7.805084   -2.177071   -0.115901
     39          6           0       -0.437805   -0.885490   -0.409265
     40          6           0        0.953546   -0.788694   -0.456425
     41          6           0        1.998833   -1.723770   -0.835544
     42          6           0        1.981381   -3.018668   -1.311616
     43          6           0        3.195137   -3.668896   -1.642307
     44          6           0        3.221324   -5.002799   -2.138237
     45          6           0        4.407021   -5.617030   -2.465387
     46          6           0        5.634024   -4.921986   -2.312032
     47          6           0        5.648018   -3.631818   -1.835925
     48          6           0        4.441434   -2.963132   -1.485461
     49          6           0        4.448084   -1.632810   -0.994107
     50          6           0        3.248590   -1.041689   -0.665440
     51          6           0        4.167372   -0.633308    2.490863
     52          6           0        4.385579   -1.660725    3.407367
     53          1           0        5.846023   -2.920394    4.373060
     54          1           0        7.774581   -1.862251    3.208693
     55          1           0        7.386415   -0.003356    1.609141
     56          1           0        7.735335    4.009853    0.810310
     57          1           0        7.397995    6.139163   -0.449324
     58          1           0        5.316068    6.502147   -1.754590
     59          1           0        3.560648    4.728713   -1.838971
     60          1           0        1.332404    2.461227    0.582758
     61          1           0       -1.123962    2.253268    0.699081
     62          1           0       -2.711944   -1.879826    0.838158
     63          1           0       -5.168433   -2.086928    0.925405
     64          1           0       -3.016195    2.128418   -0.696656
     65          1           0       -5.065280    3.889572   -1.283346
     66          1           0       -7.262793    4.984837   -1.659128
     67          1           0       -9.368818    3.761779   -1.207216
     68          1           0       -9.333935    1.432308   -0.356567
     69          1           0       -8.784214    0.329342    1.968323
     70          1           0      -10.467353   -1.387167    2.591913
     71          1           0      -10.426029   -3.625044    1.506149
     72          1           0       -8.711550   -4.122492   -0.226420
     73          1           0       -7.069721   -2.380387   -0.888112
     74          1           0       -0.929112   -1.805281   -0.714270
     75          1           0        1.040910   -3.546821   -1.450151
     76          1           0        2.277283   -5.530365   -2.255413
     77          1           0        4.408688   -6.635977   -2.842841
     78          1           0        6.566794   -5.414844   -2.573097
     79          1           0        6.589310   -3.100121   -1.717331
     80          1           0        5.393390   -1.112058   -0.884042
     81          1           0        3.155807   -0.286459    2.310035
     82          1           0        3.539088   -2.107608    3.921382
 ---------------------------------------------------------------------

 The electronic state is 1-A.
 Alpha  occ. eigenvalues --  -14.38399 -14.38145 -14.35058 -14.34828 -10.27996
 Alpha  occ. eigenvalues --  -10.25155 -10.23983 -10.23620 -10.23466 -10.22780
 Alpha  occ. eigenvalues --  -10.22597 -10.22288 -10.22244 -10.20616 -10.20558
 Alpha  occ. eigenvalues --  -10.20314 -10.20158 -10.20153 -10.20110 -10.20106
 Alpha  occ. eigenvalues --  -10.20055 -10.20054 -10.19910 -10.19411 -10.19315
 Alpha  occ. eigenvalues --  -10.19314 -10.19293 -10.19122 -10.19102 -10.19086
 Alpha  occ. eigenvalues --  -10.19079 -10.19064 -10.19005 -10.18918 -10.18907
 Alpha  occ. eigenvalues --  -10.18788 -10.18754 -10.18734 -10.18686 -10.18685
 Alpha  occ. eigenvalues --  -10.18658 -10.18641 -10.18617 -10.18605 -10.18602
 Alpha  occ. eigenvalues --  -10.18533 -10.18525 -10.18387 -10.18378 -10.18259
 Alpha  occ. eigenvalues --  -10.18222 -10.18009  -1.00977  -0.98859  -0.97167
 Alpha  occ. eigenvalues --   -0.91735  -0.87085  -0.86839  -0.86146  -0.85473
 Alpha  occ. eigenvalues --   -0.84994  -0.83987  -0.83643  -0.81681  -0.79160
 Alpha  occ. eigenvalues --   -0.78246  -0.77458  -0.76614  -0.76043  -0.75557
 Alpha  occ. eigenvalues --   -0.75352  -0.75127  -0.74594  -0.73943  -0.73417
 Alpha  occ. eigenvalues --   -0.72073  -0.71372  -0.71096  -0.70238  -0.67406
 Alpha  occ. eigenvalues --   -0.66337  -0.64688  -0.63681  -0.62475  -0.61898
 Alpha  occ. eigenvalues --   -0.61596  -0.61181  -0.60294  -0.59972  -0.59565
 Alpha  occ. eigenvalues --   -0.59404  -0.58515  -0.57827  -0.57024  -0.56943
 Alpha  occ. eigenvalues --   -0.55169  -0.54576  -0.53767  -0.53134  -0.52895
 Alpha  occ. eigenvalues --   -0.51459  -0.51210  -0.50403  -0.50135  -0.49474
 Alpha  occ. eigenvalues --   -0.48315  -0.47936  -0.47263  -0.46962  -0.46265
 Alpha  occ. eigenvalues --   -0.45905  -0.45506  -0.45271  -0.44842  -0.44766
 Alpha  occ. eigenvalues --   -0.44376  -0.44202  -0.43979  -0.43582  -0.43402
 Alpha  occ. eigenvalues --   -0.43240  -0.43084  -0.42757  -0.42623  -0.42227
 Alpha  occ. eigenvalues --   -0.42085  -0.41870  -0.41664  -0.41476  -0.41161
 Alpha  occ. eigenvalues --   -0.41067  -0.40446  -0.39590  -0.37990  -0.37559
 Alpha  occ. eigenvalues --   -0.37471  -0.37438  -0.37237  -0.37091  -0.36729
 Alpha  occ. eigenvalues --   -0.36245  -0.35993  -0.35753  -0.35283  -0.35102
 Alpha  occ. eigenvalues --   -0.34979  -0.34836  -0.34442  -0.34101  -0.33895
 Alpha  occ. eigenvalues --   -0.33544  -0.33452  -0.32793  -0.32473  -0.31983
 Alpha  occ. eigenvalues --   -0.31439  -0.30371  -0.28419  -0.27707  -0.27378
 Alpha  occ. eigenvalues --   -0.26250  -0.26136  -0.26057  -0.25876  -0.25302
 Alpha  occ. eigenvalues --   -0.25069  -0.24693  -0.23477  -0.22687  -0.21190
 Alpha  occ. eigenvalues --   -0.20975  -0.19800  -0.18128
 Alpha virt. eigenvalues --   -0.07652  -0.04518  -0.04097  -0.02540  -0.01827
 Alpha virt. eigenvalues --   -0.01237  -0.01071  -0.00063   0.00129   0.00519
 Alpha virt. eigenvalues --    0.01084   0.02166   0.02371   0.04027   0.04505

 Mulliken charges:
               1
     1  C   -0.118882
     2  C   -0.136259
     3  C   -0.146354
     4  C    0.099286
     5  C    0.213164
     6  N   -0.544512
     7  C    0.283799
     8  C   -0.154368
     9  C   -0.135064
    10  C   -0.134625
    11  C   -0.158937
    12  C    0.279267
    13  N   -0.517844
    14  C    0.400279
    15  N   -0.740954
    16  C    0.330359
    17  C   -0.168105
    18  C   -0.193626
    19  C    0.085020
    20  C    0.083405
    21  C   -0.192931
    22  C   -0.179451
    23  C    0.317821
    24  C    0.065592
    25  C   -0.259787
    26  C    0.057716
    27  C   -0.196623
    28  C   -0.145255
    29  C   -0.141737
    30  C   -0.176589
    31  C    0.311531
    32  N   -0.736476
    33  C    0.264152
    34  C   -0.149375
    35  C   -0.142768
    36  C   -0.121326
    37  C   -0.142814
    38  C   -0.149247
    39  C   -0.257370
    40  C    0.061186
    41  C    0.087020
    42  C   -0.296343
    43  C    0.135740
    44  C   -0.188710
    45  C   -0.141955
    46  C   -0.137083
    47  C   -0.193617
    48  C    0.134566
    49  C   -0.251071
    50  C    0.327887
    51  C   -0.156435
    52  C   -0.137994
    53  H    0.133357
    54  H    0.133025
    55  H    0.146989
    56  H    0.148986
    57  H    0.140896
    58  H    0.141432
    59  H    0.151817
    60  H    0.144147
    61  H    0.131900
    62  H    0.129012
    63  H    0.140388
    64  H    0.133523
    65  H    0.130487
    66  H    0.124029
    67  H    0.126535
    68  H    0.139328
    69  H    0.152547
    70  H    0.138529
    71  H    0.135290
    72  H    0.138561
    73  H    0.152559
    74  H    0.133532
    75  H    0.132225
    76  H    0.125503
    77  H    0.125749
    78  H    0.126259
    79  H    0.126254
    80  H    0.138401
    81  H    0.149256
    82  H    0.136182
 Sum of Mulliken charges =  -0.00000

 Dipole moment (field-independent basis, Debye):
    X=             -0.7182    Y=             -0.2019    Z=              1.0492  Tot=              1.2874
 Quadrupole moment (field-independent basis, Debye-Ang):
   XX=           -245.0803   YY=           -260.6437   ZZ=           -296.5806
   XY=             18.5979   XZ=             -6.3766   YZ=             -6.5455

 1\1\GINC-NODE14\FOpt\RB3LYP\6-31G(d)\C48H30N4\WYKGROUP\05-Nov-2022\0\\
 #p b3lyp/6-31g(d) opt SCF=XQC\\Gaussian input prepared by ASE\\0,1\C,5
 .7471126403,-0.7210910374,-4.1886321296\C,6.8477196165,-0.5892955178,-
 3.3388053799\C,6.6820338336,-0.6875078352,-1.9598806874\C,5.4092178641
 ,-0.9006656374,-1.4048850084\C,5.286709854,-1.0565381883,0.0700170356\
 N,6.2949687411,-1.6589504008,0.6791250945\C,6.1906215052,-1.944364686,
 2.0034368819\C,7.2561750957,-2.5977680672,2.673258128\C,7.1222128894,-
 2.9397972582,4.0009988121\C,5.926882722,-2.6474832929,4.7071336752\C,4

 Normal termination of Gaussian 16 at Sat Nov  5 01:33:58 2022.
