 Gaussian 16, Revision B.01,
 Gaussian 16:  ES64L-G16RevB.01 20-Dec-2017

 -------------------------------------------------------------------
 #p b3lyp/6-31g(d) 6D 10F nosymm GFInput td=(50-50,nstate=2) SCF=XQC
 -------------------------------------------------------------------

 ------------------------------
 Gaussian input prepared by ASE
 ------------------------------
 Symbolic Z-matrix:
 Charge =  0 Multiplicity = 1

                          Input orientation:
 ---------------------------------------------------------------------
 Center     Atomic      Atomic             Coordinates (Angstroms)
 Number     Number       Type             X           Y           Z
 ---------------------------------------------------------------------
      1          6           0        2.947731    2.566232   -4.972397
      2          6           0        4.171668    1.975581   -4.650828
      3          6           0        4.259881    1.085676   -3.581921
      4          6           0        3.125521    0.776725   -2.813978
      5          6           0        3.187769   -0.178914   -1.679393
      6          6           0        4.174461   -1.167521   -1.578774
      7          6           0        4.132102   -2.033279   -0.479010
      8          6           0        5.137707   -3.108800   -0.275737
      9          6           0        6.392896   -3.073157   -0.904769
     10          6           0        7.318731   -4.095516   -0.705235
     11          6           0        7.006053   -5.172656    0.125931
     12          6           0        5.763791   -5.214939    0.763080
     13          6           0        4.840306   -4.191031    0.568367
     14          7           0        3.150468   -1.933388    0.435274
     15          6           0        2.238521   -0.966765    0.258285
     16          6           0        1.139382   -0.862213    1.255766
     17          6           0        0.879263   -1.908749    2.151655
     18          6           0       -0.192395   -1.816740    3.036959
     19          6           0       -1.006105   -0.683606    3.051485
     20          6           0       -0.723388    0.382723    2.189725
     21          7           0       -1.496146    1.583871    2.264534
     22          6           0       -1.431545    2.425471    3.395324
     23          6           0       -1.082171    2.116459    4.712106
     24          6           0       -1.097083    3.147492    5.649872
     25          6           0       -1.442520    4.460643    5.289402
     26          6           0       -1.764335    4.768575    3.971524
     27          6           0       -1.751122    3.748997    3.011720
     28          6           0       -1.981363    3.734675    1.584236
     29          6           0       -2.248479    4.773777    0.673868
     30          6           0       -2.357244    4.484971   -0.675229
     31          6           0       -2.283325    3.146617   -1.102801
     32          6           0       -2.400667    2.551300   -2.415745
     33          6           0       -2.577836    3.085730   -3.698451
     34          6           0       -2.697478    2.219548   -4.781653
     35          6           0       -2.654339    0.827895   -4.590793
     36          6           0       -2.475189    0.274058   -3.324390
     37          6           0       -2.327278    1.148386   -2.244738
     38          7           0       -2.130190    0.856041   -0.880518
     39          6           0       -2.556119   -0.388205   -0.319649
     40          6           0       -1.862825   -1.577002   -0.668300
     41          6           0       -2.287351   -2.791011   -0.182984
     42          6           0       -3.407160   -2.884587    0.686637
     43          6           0       -3.864288   -4.123086    1.209876
     44          6           0       -4.951064   -4.174187    2.053972
     45          6           0       -5.631508   -2.984703    2.413838
     46          6           0       -5.212527   -1.767848    1.924691
     47          6           0       -4.093910   -1.680887    1.051784
     48          6           0       -3.650243   -0.443117    0.518700
     49          6           0       -2.092176    2.080439   -0.187826
     50          6           0       -1.838770    2.389013    1.161701
     51          6           0        0.343122    0.289918    1.293517
     52          7           0        2.221665   -0.084231   -0.750547
     53          6           0        1.902992    1.387824   -3.138133
     54          6           0        1.813829    2.269708   -4.212320
     55          1           0        2.879737    3.256913   -5.808762
     56          1           0        5.060806    2.212339   -5.229013
     57          1           0        5.223499    0.652562   -3.329506
     58          1           0        4.916028   -1.290768   -2.357371
     59          1           0        6.663872   -2.230848   -1.534049
     60          1           0        8.287947   -4.046474   -1.194047
     61          1           0        7.727594   -5.970435    0.280266
     62          1           0        5.514011   -6.048496    1.414092
     63          1           0        3.876047   -4.212910    1.063303
     64          1           0        1.511137   -2.789212    2.131680
     65          1           0       -0.410381   -2.640413    3.710977
     66          1           0       -1.864557   -0.626433    3.712675
     67          1           0       -0.799657    1.110644    5.001483
     68          1           0       -0.834388    2.926417    6.680853
     69          1           0       -1.450765    5.241114    6.045058
     70          1           0       -2.015161    5.787295    3.687542
     71          1           0       -2.336601    5.796381    1.029317
     72          1           0       -2.521230    5.277888   -1.399300
     73          1           0       -2.631110    4.161721   -3.843009
     74          1           0       -2.835570    2.620498   -5.781912
     75          1           0       -2.762884    0.166355   -5.445892
     76          1           0       -2.455385   -0.801459   -3.187083
     77          1           0       -0.981626   -1.504641   -1.297053
     78          1           0       -1.751607   -3.699083   -0.448298
     79          1           0       -3.339411   -5.033946    0.931065
     80          1           0       -5.291966   -5.128200    2.446909
     81          1           0       -6.488579   -3.037032    3.079818
     82          1           0       -5.734069   -0.854010    2.199086
     83          1           0       -4.183290    0.468227    0.773588
     84          1           0        0.565450    1.108162    0.619540
     85          1           0        1.026974    1.155198   -2.543204
     86          1           0        0.855419    2.720438   -4.454819
 ---------------------------------------------------------------------

 SCF Done:  E(RB3LYP) =  -2143.68591676     A.U. after   16 cycles

 Excitation energies and oscillator strengths:

 Excited state symmetry could not be determined.
 Excited State   1:      Triplet-?Sym    2.6554 eV  466.91 nm  f=0.0000  <S**2>=2.000
     165 ->193        -0.10016
     177 ->183         0.38305
     178 ->183         0.42425
     180 ->182         0.11653
     180 ->183        -0.28980
 This state for optimization and/or second-order correction.
 Total Energy, E(TD-HF/TD-DFT) =  -2143.58833085
 Copying the excited state density for this state as the 1-particle RhoCI density.

 Excited state symmetry could not be determined.
 Excited State   2:      Triplet-?Sym    2.8930 eV  428.56 nm  f=0.0000  <S**2>=2.000
     174 ->181         0.12583
     176 ->182         0.27025
     177 ->182        -0.10141
     179 ->184         0.31556
     180 ->181         0.16489
     180 ->182         0.38766

 Excited state symmetry could not be determined.
 Excited State   3:      Singlet-?Sym    2.9602 eV  418.84 nm  f=0.0028  <S**2>=0.000
     180 ->181         0.70571

 Excited state symmetry could not be determined.
 Excited State   4:      Singlet-?Sym    3.0827 eV  402.20 nm  f=0.0010  <S**2>=0.000
     180 ->182         0.70206

 Alpha  occ. eigenvalues --  -14.37836 -14.37748 -14.33158 -14.33038 -10.26159
 Alpha  occ. eigenvalues --  -10.24728 -10.24590 -10.23287 -10.23120 -10.22551
 Alpha  occ. eigenvalues --  -10.22474 -10.22053 -10.21855 -10.20497 -10.20120
 Alpha  occ. eigenvalues --  -10.20085 -10.20040 -10.19987 -10.19939 -10.19852
 Alpha  occ. eigenvalues --  -10.19805 -10.19729 -10.19588 -10.19562 -10.19506
 Alpha  occ. eigenvalues --  -10.19399 -10.19362 -10.19353 -10.19346 -10.19304
 Alpha  occ. eigenvalues --  -10.19281 -10.19275 -10.19275 -10.19238 -10.19223
 Alpha  occ. eigenvalues --  -10.19184 -10.18859 -10.18848 -10.18825 -10.18724
 Alpha  occ. eigenvalues --  -10.18663 -10.18602 -10.18591 -10.18559 -10.18529
 Alpha  occ. eigenvalues --  -10.18493 -10.18371 -10.18346 -10.18313 -10.18257
 Alpha  occ. eigenvalues --  -10.18142 -10.18098 -10.18078 -10.17794  -0.98926
 Alpha  occ. eigenvalues --   -0.98536  -0.97586  -0.89599  -0.87647  -0.86680
 Alpha  occ. eigenvalues --   -0.85968  -0.85161  -0.84764  -0.83795  -0.83646
 Alpha  occ. eigenvalues --   -0.81777  -0.80843  -0.78668  -0.77445  -0.76233
 Alpha  occ. eigenvalues --   -0.76025  -0.75442  -0.75114  -0.74751  -0.74569
 Alpha  occ. eigenvalues --   -0.74500  -0.74128  -0.73472  -0.72873  -0.71581
 Alpha  occ. eigenvalues --   -0.70383  -0.69995  -0.66495  -0.66258  -0.64541
 Alpha  occ. eigenvalues --   -0.63655  -0.62459  -0.62112  -0.61694  -0.61063
 Alpha  occ. eigenvalues --   -0.60375  -0.60068  -0.59641  -0.59582  -0.59067
 Alpha  occ. eigenvalues --   -0.57925  -0.57896  -0.56632  -0.55997  -0.54190
 Alpha  occ. eigenvalues --   -0.53163  -0.52389  -0.51996  -0.51616  -0.51436
 Alpha  occ. eigenvalues --   -0.50915  -0.50607  -0.49933  -0.48872  -0.48171
 Alpha  occ. eigenvalues --   -0.48038  -0.47308  -0.46529  -0.46312  -0.45946
 Alpha  occ. eigenvalues --   -0.45603  -0.45263  -0.45112  -0.44900  -0.44339
 Alpha  occ. eigenvalues --   -0.44072  -0.43981  -0.43674  -0.43520  -0.43261
 Alpha  occ. eigenvalues --   -0.42910  -0.42797  -0.42483  -0.42456  -0.42251
 Alpha  occ. eigenvalues --   -0.41912  -0.41498  -0.41454  -0.41292  -0.40908
 Alpha  occ. eigenvalues --   -0.40826  -0.40511  -0.40050  -0.38982  -0.37816
 Alpha  occ. eigenvalues --   -0.37739  -0.37459  -0.37242  -0.36995  -0.36321
 Alpha  occ. eigenvalues --   -0.36050  -0.35645  -0.35247  -0.35182  -0.35003
 Alpha  occ. eigenvalues --   -0.34898  -0.34717  -0.34654  -0.34363  -0.34298
 Alpha  occ. eigenvalues --   -0.33616  -0.33375  -0.33151  -0.32955  -0.32052
 Alpha  occ. eigenvalues --   -0.31972  -0.31307  -0.30316  -0.29786  -0.28791
 Alpha  occ. eigenvalues --   -0.27939  -0.25731  -0.25488  -0.25316  -0.25140
 Alpha  occ. eigenvalues --   -0.24777  -0.24659  -0.24439  -0.24348  -0.23961
 Alpha  occ. eigenvalues --   -0.23168  -0.21999  -0.21205  -0.19431  -0.18552
 Alpha virt. eigenvalues --   -0.06192  -0.05407  -0.04104  -0.03045  -0.01738
 Alpha virt. eigenvalues --   -0.01161  -0.00535  -0.00342  -0.00049   0.00484
 Alpha virt. eigenvalues --    0.01201   0.02116   0.03099   0.03613   0.03656

 Mulliken charges:
               1
     1  C   -0.120557
     2  C   -0.138829
     3  C   -0.171166
     4  C    0.093041
     5  C    0.272935
     6  C   -0.222084
     7  C    0.276758
     8  C    0.092342
     9  C   -0.171019
    10  C   -0.138871
    11  C   -0.119497
    12  C   -0.136609
    13  C   -0.155371
    14  N   -0.552584
    15  C    0.428911
    16  C    0.074923
    17  C   -0.155222
    18  C   -0.148268
    19  C   -0.149645
    20  C    0.257146
    21  N   -0.733316
    22  C    0.301980
    23  C   -0.179979
    24  C   -0.141563
    25  C   -0.143590
    26  C   -0.198632
    27  C    0.062553
    28  C    0.058322
    29  C   -0.210784
    30  C   -0.210795
    31  C    0.060311
    32  C    0.061306
    33  C   -0.204147
    34  C   -0.146256
    35  C   -0.141319
    36  C   -0.180985
    37  C    0.305990
    38  N   -0.730357
    39  C    0.247446
    40  C   -0.155279
    41  C   -0.205498
    42  C    0.148734
    43  C   -0.194976
    44  C   -0.135342
    45  C   -0.137545
    46  C   -0.190660
    47  C    0.128547
    48  C   -0.217648
    49  C    0.279855
    50  C    0.285195
    51  C   -0.183359
    52  N   -0.546586
    53  C   -0.162054
    54  C   -0.140727
    55  H    0.132714
    56  H    0.131632
    57  H    0.128193
    58  H    0.151977
    59  H    0.131537
    60  H    0.134150
    61  H    0.134460
    62  H    0.134730
    63  H    0.158971
    64  H    0.153699
    65  H    0.135644
    66  H    0.149892
    67  H    0.137922
    68  H    0.125527
    69  H    0.123217
    70  H    0.128765
    71  H    0.127127
    72  H    0.126382
    73  H    0.129678
    74  H    0.123598
    75  H    0.126943
    76  H    0.140715
    77  H    0.154561
    78  H    0.135124
    79  H    0.130327
    80  H    0.130811
    81  H    0.132162
    82  H    0.135590
    83  H    0.151150
    84  H    0.178075
    85  H    0.171539
    86  H    0.148013
 Sum of Mulliken charges =  -0.00000

 Dipole moment (field-independent basis, Debye):
    X=              1.5840    Y=             -2.6150    Z=             -0.9725  Tot=              3.2082
 Quadrupole moment (field-independent basis, Debye-Ang):
   XX=           -283.9651   YY=           -280.7913   ZZ=           -287.0893
   XY=             -5.5228   XZ=            -15.2605   YZ=            -10.9090

 Normal termination of Gaussian 16 at Sat Nov  5 11:33:40 2022.
