 Gaussian 16, Revision B.01,
 Gaussian 16:  ES64L-G16RevB.01 20-Dec-2017

 -----------------------------
 #p b3lyp/6-31g(d) opt SCF=XQC
 -----------------------------

 ------------------------------
 Gaussian input prepared by ASE
 ------------------------------
 Symbolic Z-matrix:
 Charge =  0 Multiplicity = 1

 SCF Done:  E(RB3LYP) =  -2143.65781441     A.U. after   16 cycles
 SCF Done:  E(RB3LYP) =  -2143.66671027     A.U. after   15 cycles
 SCF Done:  E(RB3LYP) =  -2143.67476668     A.U. after   14 cycles
 SCF Done:  E(RB3LYP) =  -2143.67921048     A.U. after   16 cycles
 SCF Done:  E(RB3LYP) =  -2143.68247930     A.U. after   16 cycles
 SCF Done:  E(RB3LYP) =  -2143.68438950     A.U. after   13 cycles
 SCF Done:  E(RB3LYP) =  -2143.68542425     A.U. after   12 cycles
 SCF Done:  E(RB3LYP) =  -2143.68576568     A.U. after   12 cycles
 SCF Done:  E(RB3LYP) =  -2143.68584772     A.U. after   11 cycles
 SCF Done:  E(RB3LYP) =  -2143.68588668     A.U. after   11 cycles
 SCF Done:  E(RB3LYP) =  -2143.68589599     A.U. after   10 cycles
 SCF Done:  E(RB3LYP) =  -2143.68590047     A.U. after   10 cycles
 SCF Done:  E(RB3LYP) =  -2143.68590208     A.U. after   10 cycles
 SCF Done:  E(RB3LYP) =  -2143.68590246     A.U. after    7 cycles
 SCF Done:  E(RB3LYP) =  -2143.68590253     A.U. after    7 cycles
 SCF Done:  E(RB3LYP) =  -2143.68590255     A.U. after    6 cycles
 Optimization completed.
    -- Stationary point found.

                         Standard orientation:
 ---------------------------------------------------------------------
 Center     Atomic      Atomic             Coordinates (Angstroms)
 Number     Number       Type             X           Y           Z
 ---------------------------------------------------------------------
      1          6           0       -2.965088    5.598511    0.040227
      2          6           0       -4.175434    5.064434   -0.407121
      3          6           0       -4.318056    3.686669   -0.561061
      4          6           0       -3.249671    2.821399   -0.275018
      5          6           0       -3.378618    1.349016   -0.415956
      6          6           0       -4.614003    0.691500   -0.365700
      7          6           0       -4.625127   -0.703392   -0.488031
      8          6           0       -5.883818   -1.493350   -0.456893
      9          6           0       -7.130964   -0.904052   -0.721103
     10          6           0       -8.299714   -1.662051   -0.680335
     11          6           0       -8.242957   -3.022752   -0.373571
     12          6           0       -7.007413   -3.621439   -0.116731
     13          6           0       -5.838662   -2.865764   -0.162575
     14          7           0       -3.475608   -1.389786   -0.618298
     15          6           0       -2.335694   -0.684677   -0.645695
     16          6           0       -1.059130   -1.438789   -0.771013
     17          6           0       -1.016387   -2.822392   -0.548908
     18          6           0        0.199167   -3.500019   -0.611584
     19          6           0        1.378768   -2.816355   -0.907345
     20          6           0        1.334576   -1.442790   -1.173771
     21          7           0        2.524545   -0.754594   -1.568572
     22          6           0        3.144079   -1.018003   -2.808711
     23          6           0        3.090077   -2.167478   -3.600706
     24          6           0        3.802204   -2.167965   -4.798842
     25          6           0        4.546136   -1.049162   -5.209303
     26          6           0        4.575612    0.102631   -4.429755
     27          6           0        3.863440    0.126908   -3.224285
     28          6           0        3.647861    1.150666   -2.226101
     29          6           0        4.052449    2.497196   -2.171147
     30          6           0        3.639757    3.288850   -1.113664
     31          6           0        2.894093    2.711895   -0.069354
     32          6           0        2.370951    3.270534    1.157935
     33          6           0        2.380488    4.560121    1.704939
     34          6           0        1.811734    4.767500    2.958504
     35          6           0        1.247123    3.696506    3.672069
     36          6           0        1.223101    2.406072    3.145941
     37          6           0        1.769873    2.209069    1.875427
     38          7           0        1.867703    1.023467    1.120323
     39          6           0        1.874947   -0.259345    1.751576
     40          6           0        0.680368   -0.743879    2.346270
     41          6           0        0.677447   -1.950605    3.004581
     42          6           0        1.852423   -2.745110    3.089211
     43          6           0        1.878212   -3.998862    3.755593
     44          6           0        3.035173   -4.743375    3.813333
     45          6           0        4.222166   -4.265603    3.204925
     46          6           0        4.229963   -3.054593    2.549989
     47          6           0        3.052308   -2.262202    2.472018
     48          6           0        3.035006   -1.002775    1.818843
     49          6           0        2.544998    1.337641   -0.072565
     50          6           0        2.841371    0.570665   -1.214742
     51          6           0        0.120009   -0.758080   -1.101355
     52          7           0       -2.240504    0.649653   -0.559717
     53          6           0       -2.032726    3.371217    0.160691
     54          6           0       -1.894150    4.747413    0.323251
     55          1           0       -2.856732    6.672851    0.163607
     56          1           0       -5.008332    5.721526   -0.642563
     57          1           0       -5.257846    3.288159   -0.932336
     58          1           0       -5.527513    1.242754   -0.184194
     59          1           0       -7.192253    0.146903   -0.986889
     60          1           0       -9.254605   -1.190294   -0.895629
     61          1           0       -9.154571   -3.613309   -0.340461
     62          1           0       -6.954525   -4.680819    0.119788
     63          1           0       -4.874936   -3.323405    0.029860
     64          1           0       -1.935101   -3.347239   -0.313579
     65          1           0        0.235353   -4.567144   -0.411105
     66          1           0        2.331858   -3.334898   -0.918042
     67          1           0        2.508599   -3.032759   -3.303404
     68          1           0        3.778003   -3.054829   -5.426290
     69          1           0        5.095668   -1.083028   -6.145832
     70          1           0        5.136709    0.975165   -4.754108
     71          1           0        4.657694    2.914277   -2.970865
     72          1           0        3.905734    4.341248   -1.073654
     73          1           0        2.835067    5.384352    1.161346
     74          1           0        1.812509    5.762527    3.394701
     75          1           0        0.819594    3.873995    4.655089
     76          1           0        0.795506    1.584789    3.710422
     77          1           0       -0.228891   -0.160477    2.246419
     78          1           0       -0.240070   -2.320962    3.455143
     79          1           0        0.965040   -4.362024    4.221563
     80          1           0        3.042471   -5.700774    4.327228
     81          1           0        5.129641   -4.861042    3.257645
     82          1           0        5.140243   -2.685909    2.083234
     83          1           0        3.948585   -0.622321    1.371314
     84          1           0        0.077821    0.305724   -1.300705
     85          1           0       -1.204627    2.705622    0.376788
     86          1           0       -0.948649    5.150860    0.675062
 ---------------------------------------------------------------------

 The electronic state is 1-A.
 Alpha  occ. eigenvalues --  -14.37836 -14.37748 -14.33158 -14.33038 -10.26159
 Alpha  occ. eigenvalues --  -10.24728 -10.24590 -10.23286 -10.23120 -10.22551
 Alpha  occ. eigenvalues --  -10.22474 -10.22053 -10.21855 -10.20497 -10.20120
 Alpha  occ. eigenvalues --  -10.20085 -10.20040 -10.19987 -10.19939 -10.19852
 Alpha  occ. eigenvalues --  -10.19805 -10.19729 -10.19588 -10.19562 -10.19506
 Alpha  occ. eigenvalues --  -10.19399 -10.19362 -10.19353 -10.19346 -10.19304
 Alpha  occ. eigenvalues --  -10.19281 -10.19275 -10.19275 -10.19238 -10.19223
 Alpha  occ. eigenvalues --  -10.19184 -10.18859 -10.18848 -10.18825 -10.18724
 Alpha  occ. eigenvalues --  -10.18663 -10.18602 -10.18591 -10.18559 -10.18529
 Alpha  occ. eigenvalues --  -10.18492 -10.18371 -10.18346 -10.18313 -10.18257
 Alpha  occ. eigenvalues --  -10.18142 -10.18098 -10.18078 -10.17794  -0.98926
 Alpha  occ. eigenvalues --   -0.98536  -0.97586  -0.89599  -0.87647  -0.86680
 Alpha  occ. eigenvalues --   -0.85968  -0.85161  -0.84764  -0.83795  -0.83646
 Alpha  occ. eigenvalues --   -0.81777  -0.80843  -0.78668  -0.77445  -0.76233
 Alpha  occ. eigenvalues --   -0.76025  -0.75442  -0.75114  -0.74751  -0.74569
 Alpha  occ. eigenvalues --   -0.74500  -0.74128  -0.73473  -0.72873  -0.71581
 Alpha  occ. eigenvalues --   -0.70383  -0.69995  -0.66495  -0.66258  -0.64541
 Alpha  occ. eigenvalues --   -0.63655  -0.62459  -0.62112  -0.61694  -0.61063
 Alpha  occ. eigenvalues --   -0.60375  -0.60068  -0.59641  -0.59582  -0.59067
 Alpha  occ. eigenvalues --   -0.57925  -0.57896  -0.56632  -0.55997  -0.54190
 Alpha  occ. eigenvalues --   -0.53163  -0.52389  -0.51996  -0.51616  -0.51436
 Alpha  occ. eigenvalues --   -0.50915  -0.50607  -0.49933  -0.48872  -0.48171
 Alpha  occ. eigenvalues --   -0.48038  -0.47308  -0.46529  -0.46312  -0.45946
 Alpha  occ. eigenvalues --   -0.45603  -0.45263  -0.45112  -0.44900  -0.44339
 Alpha  occ. eigenvalues --   -0.44072  -0.43981  -0.43674  -0.43520  -0.43261
 Alpha  occ. eigenvalues --   -0.42910  -0.42797  -0.42483  -0.42456  -0.42251
 Alpha  occ. eigenvalues --   -0.41912  -0.41498  -0.41454  -0.41292  -0.40908
 Alpha  occ. eigenvalues --   -0.40826  -0.40511  -0.40050  -0.38982  -0.37816
 Alpha  occ. eigenvalues --   -0.37739  -0.37459  -0.37242  -0.36995  -0.36321
 Alpha  occ. eigenvalues --   -0.36049  -0.35645  -0.35247  -0.35182  -0.35003
 Alpha  occ. eigenvalues --   -0.34898  -0.34717  -0.34654  -0.34363  -0.34298
 Alpha  occ. eigenvalues --   -0.33616  -0.33375  -0.33151  -0.32955  -0.32052
 Alpha  occ. eigenvalues --   -0.31972  -0.31307  -0.30316  -0.29786  -0.28791
 Alpha  occ. eigenvalues --   -0.27939  -0.25731  -0.25488  -0.25316  -0.25140
 Alpha  occ. eigenvalues --   -0.24777  -0.24659  -0.24439  -0.24348  -0.23961
 Alpha  occ. eigenvalues --   -0.23168  -0.21999  -0.21205  -0.19431  -0.18552
 Alpha virt. eigenvalues --   -0.06192  -0.05407  -0.04104  -0.03045  -0.01738
 Alpha virt. eigenvalues --   -0.01161  -0.00535  -0.00342  -0.00049   0.00484
 Alpha virt. eigenvalues --    0.01201   0.02116   0.03099   0.03613   0.03656

 Mulliken charges:
               1
     1  C   -0.120556
     2  C   -0.138832
     3  C   -0.171163
     4  C    0.093038
     5  C    0.272935
     6  C   -0.222051
     7  C    0.276731
     8  C    0.092338
     9  C   -0.171007
    10  C   -0.138877
    11  C   -0.119499
    12  C   -0.136608
    13  C   -0.155369
    14  N   -0.552577
    15  C    0.428918
    16  C    0.074953
    17  C   -0.155252
    18  C   -0.148241
    19  C   -0.149654
    20  C    0.257132
    21  N   -0.733310
    22  C    0.302000
    23  C   -0.179968
    24  C   -0.141562
    25  C   -0.143588
    26  C   -0.198639
    27  C    0.062552
    28  C    0.058301
    29  C   -0.210769
    30  C   -0.210800
    31  C    0.060311
    32  C    0.061320
    33  C   -0.204156
    34  C   -0.146255
    35  C   -0.141314
    36  C   -0.181002
    37  C    0.306018
    38  N   -0.730385
    39  C    0.247511
    40  C   -0.155288
    41  C   -0.205501
    42  C    0.148733
    43  C   -0.194973
    44  C   -0.135346
    45  C   -0.137538
    46  C   -0.190665
    47  C    0.128560
    48  C   -0.217685
    49  C    0.279838
    50  C    0.285198
    51  C   -0.183377
    52  N   -0.546601
    53  C   -0.162060
    54  C   -0.140727
    55  H    0.132713
    56  H    0.131632
    57  H    0.128193
    58  H    0.151976
    59  H    0.131537
    60  H    0.134150
    61  H    0.134460
    62  H    0.134730
    63  H    0.158970
    64  H    0.153699
    65  H    0.135644
    66  H    0.149887
    67  H    0.137920
    68  H    0.125525
    69  H    0.123217
    70  H    0.128764
    71  H    0.127128
    72  H    0.126382
    73  H    0.129677
    74  H    0.123597
    75  H    0.126942
    76  H    0.140720
    77  H    0.154560
    78  H    0.135123
    79  H    0.130325
    80  H    0.130810
    81  H    0.132161
    82  H    0.135590
    83  H    0.151149
    84  H    0.178069
    85  H    0.171544
    86  H    0.148015
 Sum of Mulliken charges =  -0.00000

 Dipole moment (field-independent basis, Debye):
    X=             -2.7373    Y=             -0.9095    Z=              1.4046  Tot=              3.2083
 Quadrupole moment (field-independent basis, Debye-Ang):
   XX=           -274.3565   YY=           -272.1709   ZZ=           -304.7452
   XY=             -4.0816   XZ=             -3.4143   YZ=             -5.9660

 1\1\GINC-NODE60\FOpt\RB3LYP\6-31G(d)\C50H32N4\WYKGROUP\05-Nov-2022\0\\
 #p b3lyp/6-31g(d) opt SCF=XQC\\Gaussian input prepared by ASE\\0,1\C,2
 .9477310488,2.5662315223,-4.9723968151\C,4.1716678524,1.9755810703,-4.
 6508276909\C,4.2598808772,1.0856755117,-3.5819207409\C,3.1255209625,0.
 7767248651,-2.8139778054\C,3.1877691305,-0.1789135297,-1.6793925776\C,
 4.1744609186,-1.1675207096,-1.5787736335\C,4.1321022257,-2.0332794574,
 -0.4790098161\C,5.1377073466,-3.1088003017,-0.2757373506\C,6.392896016
 8,-3.0731571145,-0.9047693268\C,7.3187308722,-4.0955158168,-0.70523486

 Normal termination of Gaussian 16 at Sat Nov  5 03:14:08 2022.
