 Gaussian 16, Revision B.01,
 Gaussian 16:  ES64L-G16RevB.01 20-Dec-2017

 -----------------------------
 #p b3lyp/6-31g(d) opt SCF=XQC
 -----------------------------

 ------------------------------
 Gaussian input prepared by ASE
 ------------------------------
 Symbolic Z-matrix:
 Charge =  0 Multiplicity = 1

 SCF Done:  E(RB3LYP) =  -2594.94609372     A.U. after   16 cycles
 SCF Done:  E(RB3LYP) =  -2594.96740207     A.U. after   13 cycles
 SCF Done:  E(RB3LYP) =  -2594.97823534     A.U. after   16 cycles
 SCF Done:  E(RB3LYP) =  -2594.98069964     A.U. after   13 cycles
 SCF Done:  E(RB3LYP) =  -2594.98123578     A.U. after   13 cycles
 SCF Done:  E(RB3LYP) =  -2594.98178482     A.U. after   12 cycles
 SCF Done:  E(RB3LYP) =  -2594.98197680     A.U. after   11 cycles
 SCF Done:  E(RB3LYP) =  -2594.98202224     A.U. after   11 cycles
 SCF Done:  E(RB3LYP) =  -2594.98203291     A.U. after   10 cycles
 SCF Done:  E(RB3LYP) =  -2594.98203735     A.U. after   10 cycles
 SCF Done:  E(RB3LYP) =  -2594.98208926     A.U. after    9 cycles
 SCF Done:  E(RB3LYP) =  -2594.98209225     A.U. after    9 cycles
 SCF Done:  E(RB3LYP) =  -2594.98209550     A.U. after    9 cycles
 SCF Done:  E(RB3LYP) =  -2594.98209611     A.U. after    9 cycles
 SCF Done:  E(RB3LYP) =  -2594.98209648     A.U. after    9 cycles
 SCF Done:  E(RB3LYP) =  -2594.98209664     A.U. after    7 cycles
 SCF Done:  E(RB3LYP) =  -2594.98209678     A.U. after    7 cycles
 SCF Done:  E(RB3LYP) =  -2594.98209679     A.U. after    6 cycles
 SCF Done:  E(RB3LYP) =  -2594.98209681     A.U. after    6 cycles
 SCF Done:  E(RB3LYP) =  -2594.98209682     A.U. after    5 cycles
 Optimization completed.
    -- Stationary point found.

                         Standard orientation:
 ---------------------------------------------------------------------
 Center     Atomic      Atomic             Coordinates (Angstroms)
 Number     Number       Type             X           Y           Z
 ---------------------------------------------------------------------
      1          6           0       -9.231633   -2.206086   -2.197943
      2          6           0       -8.139277   -1.230909   -2.539016
      3          7           0       -8.485555   -0.163630   -3.282501
      4          6           0       -7.481754    0.677355   -3.562124
      5          6           0       -7.792791    1.894210   -4.389210
      6          7           0       -6.213869    0.520280   -3.160285
      7          6           0       -5.967425   -0.574882   -2.422223
      8          6           0       -4.589753   -0.803246   -1.948312
      9          6           0       -3.566547    0.117153   -2.276772
     10          6           0       -2.258843   -0.063012   -1.849981
     11          6           0       -1.974845   -1.191388   -1.071888
     12          6           0       -2.983615   -2.132290   -0.732418
     13          6           0       -4.289551   -1.932302   -1.173749
     14          6           0       -2.340795   -3.166731    0.053721
     15          6           0       -2.794722   -4.334195    0.676985
     16          6           0       -1.888756   -5.118464    1.387360
     17          6           0       -0.537105   -4.743880    1.482106
     18          6           0       -0.058297   -3.585994    0.870549
     19          6           0       -0.972405   -2.810027    0.154807
     20          7           0       -0.763902   -1.611782   -0.535547
     21          6           0        0.483414   -0.938772   -0.668548
     22          6           0        1.480579   -1.542274   -1.441881
     23          6           0        2.700796   -0.911159   -1.657210
     24          6           0        2.948161    0.364177   -1.126543
     25          6           0        4.203599    1.103838   -1.431988
     26          6           0        4.095054    2.370450   -2.027061
     27          6           0        5.206104    3.108470   -2.453231
     28          6           0        6.487086    2.590538   -2.304759
     29          6           0        6.644156    1.345443   -1.690471
     30          6           0        7.819725    0.564739   -1.376035
     31          6           0        9.190807    0.763748   -1.578751
     32          6           0       10.087968   -0.192143   -1.113359
     33          6           0        9.625901   -1.337233   -0.441441
     34          6           0        8.266746   -1.557774   -0.230098
     35          6           0        7.370390   -0.601724   -0.716316
     36          7           0        5.968880   -0.575039   -0.634153
     37          6           0        5.242241   -1.460050    0.218383
     38          6           0        5.207195   -2.827669   -0.075172
     39          6           0        4.544148   -3.707211    0.781445
     40          6           0        3.902950   -3.224455    1.924083
     41          6           0        3.932906   -1.857192    2.211202
     42          6           0        4.609703   -0.976383    1.368972
     43          6           0        5.513301    0.614089   -1.230580
     44          6           0        1.938871    0.967153   -0.366984
     45          6           0        0.719096    0.329506   -0.099770
     46          6           0       -0.242168    1.018111    0.808233
     47          7           0       -0.950102    0.274107    1.664129
     48          6           0       -1.765711    0.956369    2.488047
     49          6           0       -2.565644    0.182782    3.465162
     50          6           0       -2.462062   -1.216831    3.514561
     51          6           0       -3.216867   -1.942686    4.432640
     52          6           0       -4.080312   -1.283000    5.310556
     53          6           0       -4.187080    0.109747    5.267036
     54          6           0       -3.435373    0.839905    4.350455
     55          7           0       -1.889961    2.292892    2.483136
     56          6           0       -1.132897    2.952225    1.594713
     57          6           0       -1.231688    4.430585    1.552284
     58          6           0       -2.079647    5.112071    2.439479
     59          6           0       -2.169284    6.501073    2.397902
     60          6           0       -1.415408    7.225657    1.471229
     61          6           0       -0.570362    6.553734    0.584446
     62          6           0       -0.477632    5.164805    0.623052
     63          7           0       -0.287986    2.355365    0.735697
     64          7           0       -6.910117   -1.482209   -2.087993
     65          1           0       -9.683330   -2.599718   -3.115346
     66          1           0       -8.837000   -3.029277   -1.599978
     67          1           0      -10.028726   -1.697603   -1.644007
     68          1           0       -7.175348    1.901778   -5.294299
     69          1           0       -8.848662    1.908351   -4.664525
     70          1           0       -7.546967    2.802683   -3.827936
     71          1           0       -3.828364    0.979353   -2.879255
     72          1           0       -1.484410    0.650596   -2.112059
     73          1           0       -5.082488   -2.631646   -0.932310
     74          1           0       -3.840558   -4.621818    0.609468
     75          1           0       -2.228364   -6.028657    1.873632
     76          1           0        0.151426   -5.368488    2.045235
     77          1           0        0.984393   -3.295856    0.952131
     78          1           0        1.273527   -2.506458   -1.895842
     79          1           0        3.453996   -1.394110   -2.271684
     80          1           0        3.097801    2.766805   -2.196491
     81          1           0        5.057798    4.076773   -2.922198
     82          1           0        7.355146    3.143075   -2.654049
     83          1           0        9.548318    1.655080   -2.087750
     84          1           0       11.154439   -0.052313   -1.264919
     85          1           0       10.342232   -2.067908   -0.075693
     86          1           0        7.920086   -2.439624    0.297716
     87          1           0        5.694541   -3.191359   -0.974905
     88          1           0        4.523260   -4.768639    0.550324
     89          1           0        3.386795   -3.909482    2.591002
     90          1           0        3.438487   -1.476202    3.100274
     91          1           0        4.653016    0.084103    1.595989
     92          1           0        2.103454    1.950940    0.059080
     93          1           0       -1.791337   -1.721882    2.829487
     94          1           0       -3.132646   -3.025541    4.457267
     95          1           0       -4.669520   -1.851559    6.025507
     96          1           0       -4.858342    0.626372    5.947756
     97          1           0       -3.511640    1.920332    4.305957
     98          1           0       -2.660248    4.539087    3.153362
     99          1           0       -2.828272    7.019981    3.088705
    100          1           0       -1.486860    8.309722    1.439749
    101          1           0        0.016344    7.113681   -0.138751
    102          1           0        0.172423    4.631721   -0.061453
 ---------------------------------------------------------------------

 The electronic state is 1-A.
 Alpha  occ. eigenvalues --  -14.38651 -14.38288 -14.33892 -14.33769 -14.33707
 Alpha  occ. eigenvalues --  -14.32497 -14.32364 -14.32253 -10.27918 -10.27642
 Alpha  occ. eigenvalues --  -10.27521 -10.26289 -10.26280 -10.26277 -10.24567
 Alpha  occ. eigenvalues --  -10.24211 -10.23399 -10.22688 -10.22677 -10.22376
 Alpha  occ. eigenvalues --  -10.21552 -10.21255 -10.20658 -10.20548 -10.20521
 Alpha  occ. eigenvalues --  -10.20460 -10.20431 -10.20425 -10.20332 -10.20312
 Alpha  occ. eigenvalues --  -10.20256 -10.20141 -10.19829 -10.19735 -10.19443
 Alpha  occ. eigenvalues --  -10.19436 -10.19427 -10.19365 -10.19363 -10.19360
 Alpha  occ. eigenvalues --  -10.19297 -10.19231 -10.19160 -10.19097 -10.19064
 Alpha  occ. eigenvalues --  -10.19029 -10.19028 -10.19008 -10.18895 -10.18877
 Alpha  occ. eigenvalues --  -10.18873 -10.18802 -10.18801 -10.18783 -10.18749
 Alpha  occ. eigenvalues --  -10.18727 -10.18702 -10.18697 -10.18669 -10.18509
 Alpha  occ. eigenvalues --  -10.18474 -10.18290 -10.17964 -10.17913  -1.02161
 Alpha  occ. eigenvalues --   -1.00637  -0.99236  -0.99182  -0.90793  -0.90623
 Alpha  occ. eigenvalues --   -0.89058  -0.88921  -0.87731  -0.87378  -0.85497
 Alpha  occ. eigenvalues --   -0.85331  -0.85067  -0.84361  -0.84288  -0.83915
 Alpha  occ. eigenvalues --   -0.79979  -0.78444  -0.77535  -0.76873  -0.76518
 Alpha  occ. eigenvalues --   -0.76044  -0.75717  -0.75561  -0.75329  -0.74777
 Alpha  occ. eigenvalues --   -0.74574  -0.74344  -0.74245  -0.73146  -0.72434
 Alpha  occ. eigenvalues --   -0.71867  -0.71573  -0.70952  -0.68264  -0.67652
 Alpha  occ. eigenvalues --   -0.66245  -0.64886  -0.63677  -0.62940  -0.62454
 Alpha  occ. eigenvalues --   -0.62311  -0.61852  -0.61123  -0.60766  -0.60468
 Alpha  occ. eigenvalues --   -0.60217  -0.59352  -0.59151  -0.58262  -0.58032
 Alpha  occ. eigenvalues --   -0.57862  -0.57365  -0.56545  -0.54585  -0.54371
 Alpha  occ. eigenvalues --   -0.54067  -0.53546  -0.52818  -0.51874  -0.51612
 Alpha  occ. eigenvalues --   -0.51401  -0.51320  -0.50666  -0.49751  -0.48655
 Alpha  occ. eigenvalues --   -0.48325  -0.47501  -0.47118  -0.46832  -0.46402
 Alpha  occ. eigenvalues --   -0.45980  -0.45897  -0.45558  -0.45500  -0.45290
 Alpha  occ. eigenvalues --   -0.45143  -0.44640  -0.44435  -0.44322  -0.43810
 Alpha  occ. eigenvalues --   -0.43729  -0.43630  -0.43411  -0.43332  -0.42831
 Alpha  occ. eigenvalues --   -0.42614  -0.42574  -0.42270  -0.42106  -0.41982
 Alpha  occ. eigenvalues --   -0.41882  -0.41815  -0.41678  -0.41625  -0.41532
 Alpha  occ. eigenvalues --   -0.41299  -0.39912  -0.39381  -0.39228  -0.39100
 Alpha  occ. eigenvalues --   -0.38910  -0.38070  -0.37907  -0.37738  -0.37400
 Alpha  occ. eigenvalues --   -0.37111  -0.36826  -0.36750  -0.36577  -0.36490
 Alpha  occ. eigenvalues --   -0.36218  -0.36166  -0.35993  -0.35626  -0.35339
 Alpha  occ. eigenvalues --   -0.35273  -0.35238  -0.34862  -0.34606  -0.34268
 Alpha  occ. eigenvalues --   -0.34058  -0.34011  -0.33847  -0.33286  -0.33091
 Alpha  occ. eigenvalues --   -0.32693  -0.32506  -0.32473  -0.30170  -0.29462
 Alpha  occ. eigenvalues --   -0.28581  -0.27661  -0.27437  -0.26901  -0.26440
 Alpha  occ. eigenvalues --   -0.26025  -0.25779  -0.25478  -0.25402  -0.25081
 Alpha  occ. eigenvalues --   -0.25023  -0.24769  -0.24759  -0.24699  -0.24459
 Alpha  occ. eigenvalues --   -0.24343  -0.21600  -0.21207  -0.20410  -0.19823
 Alpha virt. eigenvalues --   -0.06827  -0.06740  -0.04725  -0.03709  -0.03035
 Alpha virt. eigenvalues --   -0.02380  -0.02179  -0.01960  -0.01749  -0.01313
 Alpha virt. eigenvalues --   -0.00230   0.00216   0.00708   0.01529   0.02430

 Mulliken charges:
               1
     1  C   -0.504407
     2  C    0.439807
     3  N   -0.465803
     4  C    0.436090
     5  C   -0.505265
     6  N   -0.495609
     7  C    0.423766
     8  C    0.072744
     9  C   -0.184222
    10  C   -0.179723
    11  C    0.336753
    12  C    0.069510
    13  C   -0.248929
    14  C    0.065064
    15  C   -0.198065
    16  C   -0.148215
    17  C   -0.148296
    18  C   -0.182260
    19  C    0.318278
    20  N   -0.732126
    21  C    0.210125
    22  C   -0.147103
    23  C   -0.157955
    24  C    0.083410
    25  C    0.064628
    26  C   -0.187057
    27  C   -0.144873
    28  C   -0.193812
    29  C    0.054784
    30  C    0.069138
    31  C   -0.195946
    32  C   -0.144259
    33  C   -0.140983
    34  C   -0.177307
    35  C    0.307257
    36  N   -0.742861
    37  C    0.244923
    38  C   -0.156041
    39  C   -0.141684
    40  C   -0.124889
    41  C   -0.140595
    42  C   -0.125625
    43  C    0.255151
    44  C   -0.236551
    45  C    0.125976
    46  C    0.387303
    47  N   -0.503727
    48  C    0.447054
    49  C    0.071823
    50  C   -0.158996
    51  C   -0.144107
    52  C   -0.115568
    53  C   -0.140198
    54  C   -0.155472
    55  N   -0.538207
    56  C    0.447677
    57  C    0.077136
    58  C   -0.156255
    59  C   -0.139630
    60  C   -0.115856
    61  C   -0.138478
    62  C   -0.157741
    63  N   -0.520028
    64  N   -0.493069
    65  H    0.174814
    66  H    0.170662
    67  H    0.175029
    68  H    0.174116
    69  H    0.172751
    70  H    0.174880
    71  H    0.159319
    72  H    0.144976
    73  H    0.160162
    74  H    0.135186
    75  H    0.123676
    76  H    0.122298
    77  H    0.148581
    78  H    0.155223
    79  H    0.146910
    80  H    0.136081
    81  H    0.128812
    82  H    0.132638
    83  H    0.130801
    84  H    0.125934
    85  H    0.128455
    86  H    0.141201
    87  H    0.148723
    88  H    0.140120
    89  H    0.139151
    90  H    0.145650
    91  H    0.151546
    92  H    0.163586
    93  H    0.181559
    94  H    0.137334
    95  H    0.132483
    96  H    0.132475
    97  H    0.159002
    98  H    0.162396
    99  H    0.134893
   100  H    0.134720
   101  H    0.134216
   102  H    0.159038
 Sum of Mulliken charges =  -0.00000

 Dipole moment (field-independent basis, Debye):
    X=              2.4407    Y=             -0.2200    Z=              1.6908  Tot=              2.9773
 Quadrupole moment (field-independent basis, Debye-Ang):
   XX=           -354.2654   YY=           -325.4417   ZZ=           -353.1441
   XY=             -6.0957   XZ=            -14.2064   YZ=             -9.2015

 1\1\GINC-NODE76\FOpt\RB3LYP\6-31G(d)\C56H38N8\WYKGROUP\05-Nov-2022\0\\
 #p b3lyp/6-31g(d) opt SCF=XQC\\Gaussian input prepared by ASE\\0,1\C,9
 .4844985524,-1.3104042117,-1.581542566\C,8.4508937727,-1.3948312778,-0
 .4929311132\N,8.9026210151,-1.5503336899,0.7654511019\C,7.9478947768,-
 1.620894746,1.7017096385\C,8.3768362669,-1.7943320923,3.1326106765\N,6
 .6319714597,-1.5480023483,1.4635694804\C,6.2799948425,-1.3917374264,0.
 1765010054\C,4.8446377261,-1.3034821865,-0.150122444\C,3.8779347341,-1
 .3876528494,0.879621275\C,2.518848698,-1.3090884437,0.6123939998\C,2.1

 Normal termination of Gaussian 16 at Sat Nov  5 06:01:16 2022.
