 Gaussian 16, Revision B.01,
 Gaussian 16:  ES64L-G16RevB.01 20-Dec-2017

 -------------------------------------------------------------------
 #p b3lyp/6-31g(d) 6D 10F nosymm GFInput td=(50-50,nstate=2) SCF=XQC
 -------------------------------------------------------------------

 ------------------------------
 Gaussian input prepared by ASE
 ------------------------------
 Symbolic Z-matrix:
 Charge =  0 Multiplicity = 1

                          Input orientation:
 ---------------------------------------------------------------------
 Center     Atomic      Atomic             Coordinates (Angstroms)
 Number     Number       Type             X           Y           Z
 ---------------------------------------------------------------------
      1          6           0        9.484499   -1.310404   -1.581543
      2          6           0        8.450894   -1.394831   -0.492931
      3          7           0        8.902621   -1.550334    0.765451
      4          6           0        7.947895   -1.620895    1.701710
      5          6           0        8.376836   -1.794332    3.132611
      6          7           0        6.631971   -1.548002    1.463569
      7          6           0        6.279995   -1.391737    0.176501
      8          6           0        4.844638   -1.303482   -0.150122
      9          6           0        3.877935   -1.387653    0.879621
     10          6           0        2.518849   -1.309088    0.612394
     11          6           0        2.123430   -1.137562   -0.719349
     12          6           0        3.074392   -1.054669   -1.771468
     13          6           0        4.433939   -1.138192   -1.480101
     14          6           0        2.322657   -0.898713   -3.001050
     15          6           0        2.681665   -0.753845   -4.345522
     16          6           0        1.679449   -0.606132   -5.301674
     17          6           0        0.325134   -0.598664   -4.924810
     18          6           0       -0.060249   -0.741419   -3.592496
     19          6           0        0.951124   -0.895985   -2.642108
     20          7           0        0.844897   -1.045274   -1.255643
     21          6           0       -0.372134   -1.097686   -0.519086
     22          6           0       -1.199769   -2.212459   -0.689085
     23          6           0       -2.374364   -2.351117    0.042149
     24          6           0       -2.741173   -1.386514    0.993080
     25          6           0       -3.936467   -1.566105    1.862298
     26          6           0       -3.749649   -1.546944    3.253316
     27          6           0       -4.781111   -1.809834    4.163097
     28          6           0       -6.056291   -2.116254    3.703494
     29          6           0       -6.294763   -2.117671    2.326755
     30          6           0       -7.490590   -2.368035    1.553678
     31          6           0       -8.806437   -2.702636    1.895953
     32          6           0       -9.751993   -2.843674    0.885385
     33          6           0       -9.394259   -2.644654   -0.459468
     34          6           0       -8.091232   -2.313451   -0.824201
     35          6           0       -7.142706   -2.191048    0.195215
     36          7           0       -5.780045   -1.864054    0.106215
     37          6           0       -5.200448   -1.349269   -1.092589
     38          6           0       -5.083266   -2.177951   -2.213901
     39          6           0       -4.567053   -1.668243   -3.405849
     40          6           0       -4.153569   -0.336514   -3.478928
     41          6           0       -4.264575    0.487162   -2.355551
     42          6           0       -4.796936   -0.011572   -1.167658
     43          6           0       -5.250066   -1.818503    1.407887
     44          6           0       -1.899114   -0.282141    1.167646
     45          6           0       -0.734190   -0.100051    0.408935
     46          6           0        0.031957    1.164204    0.602212
     47          7           0        0.589497    1.737834   -0.468940
     48          6           0        1.227758    2.899273   -0.238241
     49          6           0        1.854491    3.584476   -1.391839
     50          6           0        1.774066    3.024073   -2.676972
     51          6           0        2.366061    3.668846   -3.760150
     52          6           0        3.042089    4.877233   -3.575094
     53          6           0        3.124732    5.440551   -2.298817
     54          6           0        2.535420    4.799452   -1.212531
     55          7           0        1.321832    3.476469    0.969960
     56          6           0        0.723699    2.829861    1.980553
     57          6           0        0.796445    3.428646    3.334536
     58          6           0        1.455095    4.651759    3.536396
     59          6           0        1.520624    5.212273    4.809432
     60          6           0        0.931124    4.559469    5.894977
     61          6           0        0.275056    3.341234    5.701463
     62          6           0        0.207021    2.777567    4.429903
     63          7           0        0.061117    1.667854    1.843620
     64          7           0        7.166202   -1.310883   -0.839235
     65          1           0       10.103004   -2.214868   -1.582869
     66          1           0        9.006233   -1.190690   -2.555129
     67          1           0       10.157122   -0.465630   -1.395281
     68          1           0        7.933140   -2.704749    3.550647
     69          1           0        9.464521   -1.851044    3.200361
     70          1           0        8.013968   -0.955915    3.737726
     71          1           0        4.225575   -1.518035    1.897988
     72          1           0        1.789249   -1.377689    1.412797
     73          1           0        5.185154   -1.078808   -2.260019
     74          1           0        3.728467   -0.753534   -4.637521
     75          1           0        1.945230   -0.495345   -6.349210
     76          1           0       -0.440129   -0.477654   -5.687079
     77          1           0       -1.106554   -0.727594   -3.304239
     78          1           0       -0.893212   -2.985282   -1.387203
     79          1           0       -2.993439   -3.231553   -0.098242
     80          1           0       -2.747031   -1.359258    3.627283
     81          1           0       -4.571518   -1.796396    5.228661
     82          1           0       -6.858695   -2.346289    4.399238
     83          1           0       -9.085305   -2.844683    2.936828
     84          1           0      -10.776282   -3.104755    1.135489
     85          1           0      -10.148881   -2.748831   -1.234374
     86          1           0       -7.826640   -2.152539   -1.863681
     87          1           0       -5.391955   -3.216651   -2.142424
     88          1           0       -4.481719   -2.315418   -4.274391
     89          1           0       -3.751727    0.060199   -4.407152
     90          1           0       -3.947379    1.524833   -2.407289
     91          1           0       -4.903558    0.627669   -0.297000
     92          1           0       -2.159294    0.481383    1.892761
     93          1           0        1.249328    2.085724   -2.812720
     94          1           0        2.302282    3.222451   -4.748552
     95          1           0        3.504556    5.378208   -4.421691
     96          1           0        3.650534    6.379961   -2.150784
     97          1           0        2.595022    5.225741   -0.217622
     98          1           0        1.909389    5.148437    2.686711
     99          1           0        2.032485    6.159503    4.956038
    100          1           0        0.983560    4.998052    6.888047
    101          1           0       -0.183275    2.829733    6.543531
    102          1           0       -0.296887    1.831556    4.267306
 ---------------------------------------------------------------------

 SCF Done:  E(RB3LYP) =  -2594.98210161     A.U. after   16 cycles

 Excitation energies and oscillator strengths:

 Excited state symmetry could not be determined.
 Excited State   1:      Triplet-?Sym    2.8228 eV  439.22 nm  f=0.0000  <S**2>=2.000
     210 -> 216       -0.10156
     215 -> 216        0.59090
     215 -> 217       -0.18194
     215 -> 218       -0.17513
 This state for optimization and/or second-order correction.
 Total Energy, E(TD-HF/TD-DFT) =  -2594.87836446
 Copying the excited state density for this state as the 1-particle RhoCI density.

 Excited state symmetry could not be determined.
 Excited State   2:      Triplet-?Sym    2.9243 eV  423.98 nm  f=0.0000  <S**2>=2.000
     209 -> 218        0.13035
     213 -> 220        0.19462
     213 -> 223        0.15801
     214 -> 218        0.16484
     215 -> 216       -0.10063
     215 -> 217        0.25397
     215 -> 218       -0.48211

 Excited state symmetry could not be determined.
 Excited State   3:      Singlet-?Sym    2.9338 eV  422.60 nm  f=0.0187  <S**2>=0.000
     214 -> 216       -0.11159
     215 -> 216        0.64232
     215 -> 217       -0.25784

 Excited state symmetry could not be determined.
 Excited State   4:      Singlet-?Sym    3.0413 eV  407.66 nm  f=0.0033  <S**2>=0.000
     214 -> 217       -0.11667
     215 -> 216        0.25978
     215 -> 217        0.64397

 Alpha  occ. eigenvalues --  -14.38651 -14.38288 -14.33893 -14.33769 -14.33707
 Alpha  occ. eigenvalues --  -14.32497 -14.32364 -14.32253 -10.27919 -10.27642
 Alpha  occ. eigenvalues --  -10.27521 -10.26289 -10.26279 -10.26277 -10.24567
 Alpha  occ. eigenvalues --  -10.24211 -10.23399 -10.22688 -10.22677 -10.22376
 Alpha  occ. eigenvalues --  -10.21552 -10.21255 -10.20658 -10.20547 -10.20521
 Alpha  occ. eigenvalues --  -10.20460 -10.20431 -10.20425 -10.20332 -10.20312
 Alpha  occ. eigenvalues --  -10.20257 -10.20141 -10.19829 -10.19735 -10.19443
 Alpha  occ. eigenvalues --  -10.19436 -10.19427 -10.19365 -10.19363 -10.19360
 Alpha  occ. eigenvalues --  -10.19297 -10.19231 -10.19160 -10.19097 -10.19064
 Alpha  occ. eigenvalues --  -10.19029 -10.19028 -10.19008 -10.18895 -10.18877
 Alpha  occ. eigenvalues --  -10.18873 -10.18802 -10.18801 -10.18783 -10.18749
 Alpha  occ. eigenvalues --  -10.18727 -10.18702 -10.18697 -10.18669 -10.18509
 Alpha  occ. eigenvalues --  -10.18474 -10.18290 -10.17964 -10.17913  -1.02161
 Alpha  occ. eigenvalues --   -1.00637  -0.99236  -0.99182  -0.90793  -0.90624
 Alpha  occ. eigenvalues --   -0.89058  -0.88921  -0.87731  -0.87378  -0.85497
 Alpha  occ. eigenvalues --   -0.85331  -0.85067  -0.84361  -0.84288  -0.83915
 Alpha  occ. eigenvalues --   -0.79979  -0.78444  -0.77535  -0.76873  -0.76518
 Alpha  occ. eigenvalues --   -0.76044  -0.75717  -0.75560  -0.75329  -0.74777
 Alpha  occ. eigenvalues --   -0.74574  -0.74344  -0.74245  -0.73146  -0.72434
 Alpha  occ. eigenvalues --   -0.71867  -0.71573  -0.70952  -0.68264  -0.67652
 Alpha  occ. eigenvalues --   -0.66245  -0.64886  -0.63677  -0.62940  -0.62454
 Alpha  occ. eigenvalues --   -0.62311  -0.61852  -0.61123  -0.60766  -0.60468
 Alpha  occ. eigenvalues --   -0.60217  -0.59352  -0.59151  -0.58262  -0.58032
 Alpha  occ. eigenvalues --   -0.57862  -0.57365  -0.56545  -0.54585  -0.54371
 Alpha  occ. eigenvalues --   -0.54067  -0.53546  -0.52818  -0.51874  -0.51612
 Alpha  occ. eigenvalues --   -0.51401  -0.51320  -0.50666  -0.49751  -0.48656
 Alpha  occ. eigenvalues --   -0.48325  -0.47501  -0.47118  -0.46832  -0.46402
 Alpha  occ. eigenvalues --   -0.45980  -0.45897  -0.45558  -0.45500  -0.45290
 Alpha  occ. eigenvalues --   -0.45143  -0.44640  -0.44435  -0.44322  -0.43810
 Alpha  occ. eigenvalues --   -0.43729  -0.43629  -0.43411  -0.43332  -0.42831
 Alpha  occ. eigenvalues --   -0.42614  -0.42574  -0.42270  -0.42106  -0.41982
 Alpha  occ. eigenvalues --   -0.41882  -0.41815  -0.41678  -0.41625  -0.41533
 Alpha  occ. eigenvalues --   -0.41299  -0.39912  -0.39381  -0.39228  -0.39100
 Alpha  occ. eigenvalues --   -0.38910  -0.38071  -0.37907  -0.37738  -0.37400
 Alpha  occ. eigenvalues --   -0.37111  -0.36826  -0.36750  -0.36577  -0.36490
 Alpha  occ. eigenvalues --   -0.36218  -0.36166  -0.35993  -0.35626  -0.35339
 Alpha  occ. eigenvalues --   -0.35273  -0.35238  -0.34862  -0.34606  -0.34268
 Alpha  occ. eigenvalues --   -0.34058  -0.34011  -0.33847  -0.33286  -0.33091
 Alpha  occ. eigenvalues --   -0.32693  -0.32506  -0.32473  -0.30170  -0.29462
 Alpha  occ. eigenvalues --   -0.28581  -0.27660  -0.27437  -0.26901  -0.26440
 Alpha  occ. eigenvalues --   -0.26025  -0.25779  -0.25478  -0.25402  -0.25081
 Alpha  occ. eigenvalues --   -0.25023  -0.24769  -0.24759  -0.24699  -0.24459
 Alpha  occ. eigenvalues --   -0.24343  -0.21600  -0.21207  -0.20410  -0.19823
 Alpha virt. eigenvalues --   -0.06828  -0.06740  -0.04725  -0.03709  -0.03035
 Alpha virt. eigenvalues --   -0.02380  -0.02179  -0.01960  -0.01749  -0.01313
 Alpha virt. eigenvalues --   -0.00230   0.00216   0.00708   0.01529   0.02430

 Mulliken charges:
               1
     1  C   -0.504405
     2  C    0.439819
     3  N   -0.465823
     4  C    0.436114
     5  C   -0.505265
     6  N   -0.495630
     7  C    0.423793
     8  C    0.072723
     9  C   -0.184220
    10  C   -0.179701
    11  C    0.336698
    12  C    0.069535
    13  C   -0.248917
    14  C    0.065069
    15  C   -0.198064
    16  C   -0.148216
    17  C   -0.148294
    18  C   -0.182260
    19  C    0.318272
    20  N   -0.732093
    21  C    0.210116
    22  C   -0.147113
    23  C   -0.157938
    24  C    0.083397
    25  C    0.064619
    26  C   -0.187053
    27  C   -0.144876
    28  C   -0.193811
    29  C    0.054782
    30  C    0.069129
    31  C   -0.195940
    32  C   -0.144255
    33  C   -0.140988
    34  C   -0.177310
    35  C    0.307266
    36  N   -0.742876
    37  C    0.244943
    38  C   -0.156045
    39  C   -0.141681
    40  C   -0.124885
    41  C   -0.140600
    42  C   -0.125638
    43  C    0.255170
    44  C   -0.236551
    45  C    0.125991
    46  C    0.387268
    47  N   -0.503710
    48  C    0.447051
    49  C    0.071797
    50  C   -0.158983
    51  C   -0.144110
    52  C   -0.115569
    53  C   -0.140197
    54  C   -0.155467
    55  N   -0.538194
    56  C    0.447654
    57  C    0.077139
    58  C   -0.156259
    59  C   -0.139629
    60  C   -0.115855
    61  C   -0.138486
    62  C   -0.157737
    63  N   -0.520009
    64  N   -0.493084
    65  H    0.174815
    66  H    0.170662
    67  H    0.175029
    68  H    0.174115
    69  H    0.172750
    70  H    0.174880
    71  H    0.159319
    72  H    0.144972
    73  H    0.160161
    74  H    0.135186
    75  H    0.123675
    76  H    0.122297
    77  H    0.148571
    78  H    0.155227
    79  H    0.146907
    80  H    0.136081
    81  H    0.128813
    82  H    0.132638
    83  H    0.130802
    84  H    0.125934
    85  H    0.128456
    86  H    0.141202
    87  H    0.148725
    88  H    0.140121
    89  H    0.139152
    90  H    0.145651
    91  H    0.151547
    92  H    0.163582
    93  H    0.181561
    94  H    0.137332
    95  H    0.132484
    96  H    0.132475
    97  H    0.159003
    98  H    0.162396
    99  H    0.134893
   100  H    0.134720
   101  H    0.134217
   102  H    0.159043
 Sum of Mulliken charges =  -0.00000

 Dipole moment (field-independent basis, Debye):
    X=             -2.7007    Y=              0.9925    Z=             -0.7650  Tot=              2.9773
 Quadrupole moment (field-independent basis, Debye-Ang):
   XX=           -359.3922   YY=           -349.9674   ZZ=           -323.3774
   XY=             14.9568   XZ=              0.6818   YZ=              3.8304

 Normal termination of Gaussian 16 at Sat Nov  5 12:05:47 2022.
