 Gaussian 16, Revision B.01,
 Gaussian 16:  ES64L-G16RevB.01 20-Dec-2017

 -----------------------------
 #p b3lyp/6-31g(d) opt SCF=XQC
 -----------------------------

 ------------------------------
 Gaussian input prepared by ASE
 ------------------------------
 Symbolic Z-matrix:
 Charge =  0 Multiplicity = 1

 SCF Done:  E(RB3LYP) =  -2943.88092771     A.U. after   18 cycles
 SCF Done:  E(RB3LYP) =  -2943.90258852     A.U. after   14 cycles
 SCF Done:  E(RB3LYP) =  -2943.90465636     A.U. after   13 cycles
 SCF Done:  E(RB3LYP) =  -2943.90536688     A.U. after   13 cycles
 SCF Done:  E(RB3LYP) =  -2943.90582963     A.U. after   13 cycles
 SCF Done:  E(RB3LYP) =  -2943.90623404     A.U. after   12 cycles
 SCF Done:  E(RB3LYP) =  -2943.90625203     A.U. after   12 cycles
 SCF Done:  E(RB3LYP) =  -2943.90634044     A.U. after   11 cycles
 SCF Done:  E(RB3LYP) =  -2943.90635471     A.U. after   10 cycles
 SCF Done:  E(RB3LYP) =  -2943.90635982     A.U. after   11 cycles
 SCF Done:  E(RB3LYP) =  -2943.90636541     A.U. after   10 cycles
 SCF Done:  E(RB3LYP) =  -2943.90637246     A.U. after   10 cycles
 SCF Done:  E(RB3LYP) =  -2943.90637267     A.U. after    8 cycles
 SCF Done:  E(RB3LYP) =  -2943.90637087     A.U. after    7 cycles
 Optimization completed.
    -- Stationary point found.

                         Standard orientation:
 ---------------------------------------------------------------------
 Center     Atomic      Atomic             Coordinates (Angstroms)
 Number     Number       Type             X           Y           Z
 ---------------------------------------------------------------------
      1          7           0        2.492890   -2.135662    2.473651
      2          6           0        1.835625   -1.507603    1.749007
      3          6           0        1.031448   -0.748676    0.833964
      4          6           0       -0.206927   -0.202913    1.248528
      5          6           0       -0.655014   -0.363829    2.661218
      6          6           0       -1.841558   -1.048212    2.966050
      7          6           0       -2.237991   -1.212309    4.291837
      8          6           0       -1.460941   -0.691366    5.328111
      9          6           0       -0.279811   -0.009663    5.033772
     10          6           0        0.124064    0.149456    3.709307
     11          6           0       -0.999149    0.462989    0.288158
     12          7           0       -2.248731    1.016066    0.686559
     13          6           0       -2.423945    2.178642    1.446775
     14          6           0       -1.462913    3.050272    1.962462
     15          6           0       -1.913972    4.159607    2.675759
     16          6           0       -3.285391    4.397381    2.868844
     17          6           0       -4.237508    3.526861    2.345889
     18          6           0       -3.811136    2.405738    1.624823
     19          6           0       -4.502544    1.329079    0.945143
     20          6           0       -5.851268    0.996130    0.793926
     21          6           0       -6.191933   -0.145320    0.065298
     22          7           0       -7.560437   -0.491756   -0.114897
     23          6           0       -8.167037   -1.677846    0.310006
     24          6           0       -7.613574   -2.756481    1.005328
     25          6           0       -8.452719   -3.822584    1.322300
     26          6           0       -9.811443   -3.817766    0.961764
     27          6           0      -10.358925   -2.736060    0.277895
     28          6           0       -9.538320   -1.651247   -0.053034
     29          6           0       -9.768227   -0.390877   -0.728131
     30          6           0      -10.892444    0.201600   -1.315540
     31          6           0      -10.766660    1.453063   -1.911613
     32          6           0       -9.526542    2.114959   -1.930367
     33          6           0       -8.392060    1.548967   -1.352637
     34          6           0       -8.527402    0.296653   -0.747252
     35          6           0       -5.189010   -0.959926   -0.497004
     36          6           0       -3.839496   -0.657729   -0.337755
     37          6           0       -3.507381    0.494956    0.376616
     38          6           0       -0.587578    0.596788   -1.055749
     39          6           0       -1.415012    1.322388   -2.061442
     40          6           0       -1.738062    2.676559   -1.884773
     41          6           0       -2.492937    3.349808   -2.843371
     42          6           0       -2.940082    2.680857   -3.984306
     43          6           0       -2.623421    1.334479   -4.167441
     44          6           0       -1.861334    0.659928   -3.215145
     45          6           0        0.659096    0.043358   -1.433804
     46          6           0        1.162237    0.225016   -2.765642
     47          7           0        1.588738    0.376524   -3.836467
     48          6           0        1.468366   -0.628194   -0.498585
     49          7           0        2.707972   -1.176958   -0.894013
     50          6           0        2.882496   -2.327716   -1.682564
     51          6           0        1.921198   -3.172775   -2.235606
     52          6           0        2.373156   -4.267449   -2.970078
     53          6           0        3.744973   -4.515531   -3.143402
     54          6           0        4.696703   -3.670565   -2.580004
     55          6           0        4.268868   -2.563458   -1.838847
     56          6           0        4.961681   -1.512102   -1.120424
     57          6           0        6.311954   -1.202047   -0.938987
     58          6           0        6.654959   -0.082503   -0.178753
     59          7           0        8.024937    0.241195    0.031867
     60          6           0        8.659516    1.417054   -0.378949
     61          6           0        8.138569    2.503030   -1.087811
     62          6           0        9.001274    3.555815   -1.385303
     63          6           0       10.350909    3.530732   -0.992457
     64          6           0       10.865836    2.441383   -0.295455
     65          6           0       10.021379    1.369255    0.016451
     66          6           0       10.215502    0.105592    0.696743
     67          6           0       11.315843   -0.505172    1.310229
     68          6           0       11.155448   -1.754329    1.902825
     69          6           0        9.904504   -2.396022    1.892479
     70          6           0        8.793229   -1.811927    1.288455
     71          6           0        8.963751   -0.562169    0.686796
     72          6           0        5.654718    0.733612    0.384932
     73          6           0        4.304472    0.454008    0.196280
     74          6           0        3.972023   -0.677288   -0.548061
     75          1           0       -2.448760   -1.461790    2.167198
     76          1           0       -3.155131   -1.750221    4.514244
     77          1           0       -1.773556   -0.819032    6.360660
     78          1           0        0.331632    0.397160    5.833946
     79          1           0        1.045758    0.679803    3.487844
     80          1           0       -0.401949    2.870714    1.820003
     81          1           0       -1.187454    4.852556    3.090769
     82          1           0       -3.603608    5.270896    3.430132
     83          1           0       -5.297490    3.716326    2.492367
     84          1           0       -6.633179    1.603674    1.239122
     85          1           0       -6.566904   -2.762688    1.292001
     86          1           0       -8.045897   -4.673727    1.861809
     87          1           0      -10.438568   -4.665484    1.222678
     88          1           0      -11.411483   -2.731305    0.006559
     89          1           0      -11.850507   -0.311826   -1.308693
     90          1           0      -11.632477    1.922910   -2.369464
     91          1           0       -9.447480    3.088454   -2.406921
     92          1           0       -7.435682    2.061297   -1.376451
     93          1           0       -5.484504   -1.833041   -1.069812
     94          1           0       -3.076097   -1.292976   -0.775345
     95          1           0       -1.390584    3.206178   -1.003495
     96          1           0       -2.729376    4.400010   -2.697845
     97          1           0       -3.530187    3.207711   -4.728901
     98          1           0       -2.965987    0.806910   -5.052836
     99          1           0       -1.616536   -0.387620   -3.365588
    100          1           0        0.859549   -2.989932   -2.101764
    101          1           0        1.647010   -4.941485   -3.415558
    102          1           0        4.064182   -5.377573   -3.721562
    103          1           0        5.757064   -3.868539   -2.710438
    104          1           0        7.092869   -1.809874   -1.385284
    105          1           0        7.099686    2.523536   -1.401071
    106          1           0        8.620538    4.411821   -1.936069
    107          1           0       10.997023    4.368413   -1.239424
    108          1           0       11.911655    2.420783    0.000344
    109          1           0       12.282159   -0.007512    1.325907
    110          1           0       12.002441   -2.238182    2.380999
    111          1           0        9.797943   -3.367621    2.367445
    112          1           0        7.828096   -2.308156    1.290567
    113          1           0        5.952804    1.590635    0.980149
    114          1           0        3.542631    1.094779    0.628838
 ---------------------------------------------------------------------

 The electronic state is 1-A.
 Alpha  occ. eigenvalues --  -14.40398 -14.40387 -14.38227 -14.37514 -14.35215
 Alpha  occ. eigenvalues --  -14.35188 -10.29331 -10.28142 -10.27148 -10.27142
 Alpha  occ. eigenvalues --  -10.26301 -10.26299 -10.24641 -10.24493 -10.24463
 Alpha  occ. eigenvalues --  -10.24397 -10.24215 -10.24116 -10.23948 -10.23429
 Alpha  occ. eigenvalues --  -10.22597 -10.22593 -10.22454 -10.22439 -10.21771
 Alpha  occ. eigenvalues --  -10.21737 -10.21272 -10.21260 -10.21251 -10.21127
 Alpha  occ. eigenvalues --  -10.21109 -10.21090 -10.20975 -10.20968 -10.20826
 Alpha  occ. eigenvalues --  -10.20816 -10.20734 -10.20719 -10.20713 -10.20703
 Alpha  occ. eigenvalues --  -10.20697 -10.20697 -10.20689 -10.20556 -10.20523
 Alpha  occ. eigenvalues --  -10.20477 -10.20287 -10.20280 -10.20131 -10.20072
 Alpha  occ. eigenvalues --  -10.19828 -10.19823 -10.19818 -10.19131 -10.18940
 Alpha  occ. eigenvalues --  -10.18901 -10.18884 -10.18883 -10.18849 -10.18816
 Alpha  occ. eigenvalues --  -10.18814 -10.18779 -10.18267 -10.18243 -10.18224
 Alpha  occ. eigenvalues --  -10.18221 -10.18203 -10.18179 -10.18155 -10.18151
 Alpha  occ. eigenvalues --  -10.18108 -10.18093 -10.17595 -10.17537  -1.01726
 Alpha  occ. eigenvalues --   -1.01387  -0.99006  -0.98322  -0.93445  -0.92093
 Alpha  occ. eigenvalues --   -0.90857  -0.88166  -0.88080  -0.87347  -0.86692
 Alpha  occ. eigenvalues --   -0.86401  -0.85552  -0.84391  -0.84318  -0.83708
 Alpha  occ. eigenvalues --   -0.83633  -0.83377  -0.81770  -0.79764  -0.78517
 Alpha  occ. eigenvalues --   -0.78348  -0.77874  -0.76913  -0.76734  -0.76430
 Alpha  occ. eigenvalues --   -0.76281  -0.76235  -0.75701  -0.75009  -0.74887
 Alpha  occ. eigenvalues --   -0.74240  -0.73934  -0.73480  -0.73097  -0.71698
 Alpha  occ. eigenvalues --   -0.71522  -0.70881  -0.70842  -0.69323  -0.68347
 Alpha  occ. eigenvalues --   -0.66398  -0.65460  -0.64636  -0.64002  -0.63200
 Alpha  occ. eigenvalues --   -0.62717  -0.62589  -0.62279  -0.62092  -0.61482
 Alpha  occ. eigenvalues --   -0.60602  -0.60481  -0.60341  -0.59866  -0.59615
 Alpha  occ. eigenvalues --   -0.59012  -0.58500  -0.57784  -0.57425  -0.57338
 Alpha  occ. eigenvalues --   -0.56744  -0.55504  -0.55179  -0.54192  -0.53988
 Alpha  occ. eigenvalues --   -0.53836  -0.53428  -0.53271  -0.52779  -0.51648
 Alpha  occ. eigenvalues --   -0.51216  -0.50917  -0.50821  -0.50399  -0.49947
 Alpha  occ. eigenvalues --   -0.49068  -0.48858  -0.48315  -0.47926  -0.47857
 Alpha  occ. eigenvalues --   -0.47354  -0.47331  -0.46601  -0.46275  -0.45746
 Alpha  occ. eigenvalues --   -0.45590  -0.45359  -0.45226  -0.45007  -0.44939
 Alpha  occ. eigenvalues --   -0.44698  -0.44676  -0.44523  -0.44375  -0.44045
 Alpha  occ. eigenvalues --   -0.43926  -0.43913  -0.43730  -0.43649  -0.43294
 Alpha  occ. eigenvalues --   -0.43201  -0.43162  -0.42803  -0.42682  -0.42494
 Alpha  occ. eigenvalues --   -0.42248  -0.41959  -0.41815  -0.41665  -0.41285
 Alpha  occ. eigenvalues --   -0.41148  -0.40996  -0.40552  -0.39893  -0.39072
 Alpha  occ. eigenvalues --   -0.38440  -0.38399  -0.38146  -0.37765  -0.37481
 Alpha  occ. eigenvalues --   -0.37362  -0.37319  -0.37057  -0.36957  -0.36586
 Alpha  occ. eigenvalues --   -0.36554  -0.36512  -0.36373  -0.36253  -0.36103
 Alpha  occ. eigenvalues --   -0.35920  -0.35805  -0.35739  -0.35541  -0.35257
 Alpha  occ. eigenvalues --   -0.35172  -0.35014  -0.34692  -0.34505  -0.34475
 Alpha  occ. eigenvalues --   -0.34096  -0.33848  -0.33807  -0.33499  -0.33230
 Alpha  occ. eigenvalues --   -0.32822  -0.32136  -0.31518  -0.29985  -0.29867
 Alpha  occ. eigenvalues --   -0.29760  -0.28991  -0.27867  -0.27180  -0.27169
 Alpha  occ. eigenvalues --   -0.26704  -0.26638  -0.26322  -0.26232  -0.26002
 Alpha  occ. eigenvalues --   -0.25130  -0.24461  -0.23312  -0.22625  -0.22550
 Alpha  occ. eigenvalues --   -0.22025  -0.21260  -0.20585  -0.19732  -0.19103
 Alpha virt. eigenvalues --   -0.09274  -0.08157  -0.04821  -0.04005  -0.02685
 Alpha virt. eigenvalues --   -0.02421  -0.02191  -0.02008  -0.01968  -0.01668
 Alpha virt. eigenvalues --   -0.01397  -0.00915   0.00382   0.00688   0.01177

 Mulliken charges:
               1
     1  N   -0.469688
     2  C    0.247280
     3  C    0.093915
     4  C    0.068945
     5  C    0.051734
     6  C   -0.139100
     7  C   -0.134957
     8  C   -0.116575
     9  C   -0.129891
    10  C   -0.135290
    11  C    0.135282
    12  N   -0.753672
    13  C    0.323120
    14  C   -0.174185
    15  C   -0.141035
    16  C   -0.143443
    17  C   -0.195565
    18  C    0.061785
    19  C    0.062601
    20  C   -0.234862
    21  C    0.255991
    22  N   -0.732750
    23  C    0.312379
    24  C   -0.177077
    25  C   -0.141847
    26  C   -0.145261
    27  C   -0.197285
    28  C    0.059443
    29  C    0.059519
    30  C   -0.197296
    31  C   -0.145265
    32  C   -0.142067
    33  C   -0.178558
    34  C    0.312728
    35  C   -0.165455
    36  C   -0.185362
    37  C    0.336509
    38  C    0.069733
    39  C    0.049683
    40  C   -0.139707
    41  C   -0.135995
    42  C   -0.117180
    43  C   -0.129743
    44  C   -0.136058
    45  C    0.092483
    46  C    0.247344
    47  N   -0.468734
    48  C    0.267836
    49  N   -0.799114
    50  C    0.326717
    51  C   -0.163123
    52  C   -0.137250
    53  C   -0.140793
    54  C   -0.191514
    55  C    0.065446
    56  C    0.065747
    57  C   -0.229222
    58  C    0.254249
    59  N   -0.732327
    60  C    0.312060
    61  C   -0.178043
    62  C   -0.142281
    63  C   -0.145366
    64  C   -0.197829
    65  C    0.059449
    66  C    0.059663
    67  C   -0.197761
    68  C   -0.145311
    69  C   -0.142356
    70  C   -0.178783
    71  C    0.312441
    72  C   -0.160230
    73  C   -0.174338
    74  C    0.339780
    75  H    0.145664
    76  H    0.143150
    77  H    0.141838
    78  H    0.143807
    79  H    0.141062
    80  H    0.132323
    81  H    0.134820
    82  H    0.132723
    83  H    0.138781
    84  H    0.155063
    85  H    0.132936
    86  H    0.125607
    87  H    0.124032
    88  H    0.129824
    89  H    0.129648
    90  H    0.123646
    91  H    0.125217
    92  H    0.138147
    93  H    0.153535
    94  H    0.138147
    95  H    0.148479
    96  H    0.143008
    97  H    0.141888
    98  H    0.144574
    99  H    0.141197
   100  H    0.128055
   101  H    0.133227
   102  H    0.132327
   103  H    0.139371
   104  H    0.155510
   105  H    0.138327
   106  H    0.124953
   107  H    0.121777
   108  H    0.128018
   109  H    0.127706
   110  H    0.121886
   111  H    0.126423
   112  H    0.142857
   113  H    0.152021
   114  H    0.134106
 Sum of Mulliken charges =  -0.00000

 Dipole moment (field-independent basis, Debye):
    X=             -4.7359    Y=              1.9582    Z=              1.3983  Tot=              5.3121
 Quadrupole moment (field-independent basis, Debye-Ang):
   XX=           -446.0662   YY=           -393.6132   ZZ=           -416.9427
   XY=             -2.9946   XZ=              3.7076   YZ=             10.0721

 1\1\GINC-NODE14\FOpt\RB3LYP\6-31G(d)\C68H40N6\WYKGROUP\05-Nov-2022\0\\
 #p b3lyp/6-31g(d) opt SCF=XQC\\Gaussian input prepared by ASE\\0,1\N,2
 .4872860543,2.5906746744,-2.0460648613\C,1.8584490938,1.8381705513,-1.
 4216733735\C,1.0907344624,0.9212632077,-0.6280289797\C,-0.1774256426,0
 .4754447501,-1.0710946583\C,-0.6970862861,0.9115658013,-2.3985433368\C
 ,-1.8858304309,1.6505705273,-2.4982811069\C,-2.3492403894,2.072523032,
 -3.7428722265\C,-1.637771768,1.7579017801,-4.9021290269\C,-0.454942564
 9,1.0236073377,-4.8118468436\C,0.0159145565,0.6067424192,-3.5679990029

 Normal termination of Gaussian 16 at Sat Nov  5 03:38:45 2022.
