 Gaussian 16, Revision B.01,
 Gaussian 16:  ES64L-G16RevB.01 20-Dec-2017

 -------------------------------------------------------------------
 #p b3lyp/6-31g(d) 6D 10F nosymm GFInput td=(50-50,nstate=2) SCF=XQC
 -------------------------------------------------------------------

 ------------------------------
 Gaussian input prepared by ASE
 ------------------------------
 Symbolic Z-matrix:
 Charge =  0 Multiplicity = 1

                          Input orientation:
 ---------------------------------------------------------------------
 Center     Atomic      Atomic             Coordinates (Angstroms)
 Number     Number       Type             X           Y           Z
 ---------------------------------------------------------------------
      1          7           0        2.487286    2.590675   -2.046065
      2          6           0        1.858449    1.838171   -1.421673
      3          6           0        1.090734    0.921263   -0.628029
      4          6           0       -0.177426    0.475445   -1.071095
      5          6           0       -0.697086    0.911566   -2.398543
      6          6           0       -1.885830    1.650571   -2.498281
      7          6           0       -2.349240    2.072523   -3.742872
      8          6           0       -1.637772    1.757902   -4.902129
      9          6           0       -0.454943    1.023607   -4.811847
     10          6           0        0.015915    0.606742   -3.567999
     11          6           0       -0.929142   -0.359134   -0.215669
     12          7           0       -2.207762   -0.815195   -0.643699
     13          6           0       -2.443765   -1.806188   -1.604140
     14          6           0       -1.527140   -2.567458   -2.331822
     15          6           0       -2.035113   -3.513421   -3.220635
     16          6           0       -3.418864   -3.699350   -3.379609
     17          6           0       -4.326221   -2.940648   -2.645520
     18          6           0       -3.842273   -1.984462   -1.745438
     19          6           0       -4.477338   -1.055935   -0.832346
     20          6           0       -5.809989   -0.749299   -0.544608
     21          6           0       -6.091110    0.230768    0.409489
     22          7           0       -7.441730    0.545128    0.729325
     23          6           0       -8.048925    1.795511    0.577100
     24          6           0       -7.514171    2.984974    0.074644
     25          6           0       -8.349934    4.098292    0.017774
     26          6           0       -9.687431    4.032943    0.445526
     27          6           0      -10.216877    2.842655    0.935835
     28          6           0       -9.399214    1.708398    1.003775
     29          6           0       -9.615222    0.342338    1.433155
     30          6           0      -10.716944   -0.345243    1.956016
     31          6           0      -10.581864   -1.689687    2.289944
     32          6           0       -9.354446   -2.351299    2.110879
     33          6           0       -8.242431   -1.691652    1.591786
     34          6           0       -8.387533   -0.344492    1.249435
     35          6           0       -5.045401    0.913164    1.062522
     36          6           0       -3.711843    0.638249    0.772841
     37          6           0       -3.438701   -0.355554   -0.168997
     38          6           0       -0.449117   -0.755005    1.051708
     39          6           0       -1.234639   -1.656714    1.941896
     40          6           0       -1.590609   -2.948234    1.524026
     41          6           0       -2.305262   -3.789937    2.374214
     42          6           0       -2.679151   -3.352858    3.646352
     43          6           0       -2.329355   -2.070196    4.069398
     44          6           0       -1.607143   -1.228494    3.225234
     45          6           0        0.825524   -0.294614    1.460042
     46          6           0        1.395483   -0.735722    2.701216
     47          7           0        1.875576   -1.095885    3.696865
     48          6           0        1.595699    0.540487    0.629397
     49          7           0        2.864125    0.992967    1.054234
     50          6           0        3.100735    1.966855    2.040172
     51          6           0        2.185360    2.694790    2.799298
     52          6           0        2.695096    3.622243    3.705954
     53          6           0        4.078376    3.822129    3.847552
     54          6           0        4.983650    3.096369    3.078834
     55          6           0        4.497421    2.157853    2.161876
     56          6           0        5.132278    1.261680    1.215671
     57          6           0        6.465275    0.983374    0.902693
     58          6           0        6.747439    0.030933   -0.078239
     59          7           0        8.098315   -0.255211   -0.423543
     60          6           0        8.732878   -1.493013   -0.284684
     61          6           0        8.231179   -2.692543    0.227799
     62          6           0        9.089666   -3.789171    0.266864
     63          6           0       10.416729   -3.697588   -0.188093
     64          6           0       10.913108   -2.497017   -0.687972
     65          6           0       10.072418   -1.378739   -0.738415
     66          6           0       10.252480   -0.008185   -1.170254
     67          6           0       11.329301    0.702580   -1.713777
     68          6           0       11.159809    2.044330   -2.042823
     69          6           0        9.922771    2.680536   -1.838576
     70          6           0        8.835003    1.997848   -1.298535
     71          6           0        9.015077    0.653673   -0.961293
     72          6           0        5.704308   -0.652693   -0.733067
     73          6           0        4.371182   -0.405659   -0.418934
     74          6           0        4.098921    0.561330    0.548125
     75          1           0       -2.442251    1.904926   -1.601840
     76          1           0       -3.267220    2.649910   -3.805292
     77          1           0       -2.002545    2.086420   -5.871252
     78          1           0        0.105762    0.776105   -5.708508
     79          1           0        0.938526    0.036926   -3.505288
     80          1           0       -0.457081   -2.426577   -2.216462
     81          1           0       -1.344108   -4.117388   -3.801992
     82          1           0       -3.781934   -4.444558   -4.081165
     83          1           0       -5.395688   -3.090470   -2.766795
     84          1           0       -6.625130   -1.252970   -1.055054
     85          1           0       -6.484284    3.039504   -0.263139
     86          1           0       -7.957341    5.035316   -0.368070
     87          1           0      -10.312403    4.919648    0.389385
     88          1           0      -11.253433    2.792577    1.259207
     89          1           0      -11.664751    0.166436    2.102240
     90          1           0      -11.430307   -2.233582    2.695341
     91          1           0       -9.267439   -3.399498    2.384294
     92          1           0       -7.295383   -2.205549    1.462486
     93          1           0       -5.294471    1.660067    1.809418
     94          1           0       -2.915098    1.170704    1.282244
     95          1           0       -1.299948   -3.298518    0.538783
     96          1           0       -2.567706   -4.789992    2.041020
     97          1           0       -3.238076   -4.010457    4.306189
     98          1           0       -2.614930   -1.722758    5.058002
     99          1           0       -1.336138   -0.232059    3.562264
    100          1           0        1.115017    2.549014    2.691777
    101          1           0        2.005747    4.201723    4.313463
    102          1           0        4.443131    4.552790    4.563352
    103          1           0        6.052793    3.257659    3.186024
    104          1           0        7.279485    1.487115    1.414327
    105          1           0        7.210227   -2.766331    0.588413
    106          1           0        8.723630   -4.733341    0.661339
    107          1           0       11.060096   -4.571867   -0.144721
    108          1           0       11.941916   -2.426586   -1.031852
    109          1           0       12.284431    0.210694   -1.879463
    110          1           0       11.988625    2.606053   -2.464359
    111          1           0        9.808360    3.726759   -2.109274
    112          1           0        7.880082    2.491787   -1.150618
    113          1           0        5.955060   -1.379468   -1.498933
    114          1           0        3.576163   -0.944524   -0.924567
 ---------------------------------------------------------------------

 SCF Done:  E(RB3LYP) =  -2943.90639016     A.U. after   16 cycles

 Excitation energies and oscillator strengths:

 Excited state symmetry could not be determined.
 Excited State   1:      Triplet-?Sym    2.3058 eV  537.70 nm  f=0.0000  <S**2>=2.000
     241 -> 246        0.11548
     245 -> 246        0.69530
 This state for optimization and/or second-order correction.
 Total Energy, E(TD-HF/TD-DFT) =  -2943.82165190
 Copying the excited state density for this state as the 1-particle RhoCI density.

 Excited state symmetry could not be determined.
 Excited State   2:      Singlet-?Sym    2.3137 eV  535.86 nm  f=0.0013  <S**2>=0.000
     245 -> 246        0.69911

 Excited state symmetry could not be determined.
 Excited State   3:      Triplet-?Sym    2.4577 eV  504.48 nm  f=0.0000  <S**2>=2.000
     240 -> 246       -0.13365
     244 -> 246        0.68937

 Excited state symmetry could not be determined.
 Excited State   4:      Singlet-?Sym    2.4702 eV  501.92 nm  f=0.0018  <S**2>=0.000
     240 -> 246       -0.10815
     244 -> 246        0.69623

 Alpha  occ. eigenvalues --  -14.40398 -14.40388 -14.38227 -14.37514 -14.35215
 Alpha  occ. eigenvalues --  -14.35188 -10.29331 -10.28142 -10.27148 -10.27142
 Alpha  occ. eigenvalues --  -10.26301 -10.26299 -10.24642 -10.24493 -10.24463
 Alpha  occ. eigenvalues --  -10.24397 -10.24215 -10.24116 -10.23948 -10.23429
 Alpha  occ. eigenvalues --  -10.22597 -10.22593 -10.22454 -10.22439 -10.21771
 Alpha  occ. eigenvalues --  -10.21737 -10.21272 -10.21260 -10.21251 -10.21127
 Alpha  occ. eigenvalues --  -10.21109 -10.21090 -10.20975 -10.20968 -10.20826
 Alpha  occ. eigenvalues --  -10.20816 -10.20734 -10.20719 -10.20713 -10.20703
 Alpha  occ. eigenvalues --  -10.20698 -10.20698 -10.20689 -10.20556 -10.20523
 Alpha  occ. eigenvalues --  -10.20478 -10.20287 -10.20281 -10.20131 -10.20072
 Alpha  occ. eigenvalues --  -10.19828 -10.19824 -10.19818 -10.19131 -10.18940
 Alpha  occ. eigenvalues --  -10.18901 -10.18884 -10.18883 -10.18849 -10.18816
 Alpha  occ. eigenvalues --  -10.18814 -10.18779 -10.18267 -10.18243 -10.18224
 Alpha  occ. eigenvalues --  -10.18221 -10.18203 -10.18179 -10.18155 -10.18151
 Alpha  occ. eigenvalues --  -10.18108 -10.18093 -10.17595 -10.17537  -1.01726
 Alpha  occ. eigenvalues --   -1.01387  -0.99006  -0.98322  -0.93445  -0.92093
 Alpha  occ. eigenvalues --   -0.90857  -0.88166  -0.88080  -0.87347  -0.86692
 Alpha  occ. eigenvalues --   -0.86401  -0.85552  -0.84391  -0.84318  -0.83708
 Alpha  occ. eigenvalues --   -0.83633  -0.83377  -0.81770  -0.79764  -0.78517
 Alpha  occ. eigenvalues --   -0.78348  -0.77874  -0.76913  -0.76734  -0.76430
 Alpha  occ. eigenvalues --   -0.76281  -0.76235  -0.75702  -0.75010  -0.74887
 Alpha  occ. eigenvalues --   -0.74240  -0.73934  -0.73480  -0.73097  -0.71698
 Alpha  occ. eigenvalues --   -0.71522  -0.70881  -0.70842  -0.69323  -0.68347
 Alpha  occ. eigenvalues --   -0.66398  -0.65460  -0.64636  -0.64002  -0.63200
 Alpha  occ. eigenvalues --   -0.62717  -0.62589  -0.62279  -0.62092  -0.61482
 Alpha  occ. eigenvalues --   -0.60602  -0.60481  -0.60341  -0.59866  -0.59615
 Alpha  occ. eigenvalues --   -0.59012  -0.58500  -0.57784  -0.57425  -0.57338
 Alpha  occ. eigenvalues --   -0.56744  -0.55504  -0.55179  -0.54192  -0.53988
 Alpha  occ. eigenvalues --   -0.53836  -0.53428  -0.53271  -0.52779  -0.51648
 Alpha  occ. eigenvalues --   -0.51216  -0.50917  -0.50821  -0.50399  -0.49947
 Alpha  occ. eigenvalues --   -0.49068  -0.48858  -0.48315  -0.47926  -0.47857
 Alpha  occ. eigenvalues --   -0.47354  -0.47331  -0.46601  -0.46275  -0.45746
 Alpha  occ. eigenvalues --   -0.45590  -0.45359  -0.45226  -0.45007  -0.44939
 Alpha  occ. eigenvalues --   -0.44698  -0.44676  -0.44523  -0.44375  -0.44045
 Alpha  occ. eigenvalues --   -0.43926  -0.43913  -0.43730  -0.43649  -0.43294
 Alpha  occ. eigenvalues --   -0.43201  -0.43162  -0.42803  -0.42682  -0.42494
 Alpha  occ. eigenvalues --   -0.42248  -0.41959  -0.41815  -0.41665  -0.41285
 Alpha  occ. eigenvalues --   -0.41148  -0.40996  -0.40552  -0.39893  -0.39072
 Alpha  occ. eigenvalues --   -0.38440  -0.38399  -0.38146  -0.37765  -0.37481
 Alpha  occ. eigenvalues --   -0.37362  -0.37319  -0.37057  -0.36957  -0.36586
 Alpha  occ. eigenvalues --   -0.36554  -0.36512  -0.36373  -0.36253  -0.36103
 Alpha  occ. eigenvalues --   -0.35920  -0.35806  -0.35739  -0.35541  -0.35257
 Alpha  occ. eigenvalues --   -0.35172  -0.35014  -0.34692  -0.34505  -0.34475
 Alpha  occ. eigenvalues --   -0.34096  -0.33848  -0.33807  -0.33499  -0.33230
 Alpha  occ. eigenvalues --   -0.32822  -0.32136  -0.31518  -0.29985  -0.29867
 Alpha  occ. eigenvalues --   -0.29760  -0.28991  -0.27867  -0.27180  -0.27169
 Alpha  occ. eigenvalues --   -0.26704  -0.26638  -0.26322  -0.26232  -0.26002
 Alpha  occ. eigenvalues --   -0.25130  -0.24461  -0.23312  -0.22625  -0.22550
 Alpha  occ. eigenvalues --   -0.22025  -0.21260  -0.20585  -0.19732  -0.19103
 Alpha virt. eigenvalues --   -0.09274  -0.08157  -0.04821  -0.04005  -0.02685
 Alpha virt. eigenvalues --   -0.02421  -0.02191  -0.02008  -0.01968  -0.01668
 Alpha virt. eigenvalues --   -0.01397  -0.00915   0.00382   0.00688   0.01177

 Mulliken charges:
               1
     1  N   -0.469698
     2  C    0.247284
     3  C    0.093924
     4  C    0.068973
     5  C    0.051749
     6  C   -0.139101
     7  C   -0.134969
     8  C   -0.116564
     9  C   -0.129891
    10  C   -0.135310
    11  C    0.135260
    12  N   -0.753604
    13  C    0.323046
    14  C   -0.174163
    15  C   -0.141041
    16  C   -0.143441
    17  C   -0.195571
    18  C    0.061804
    19  C    0.062634
    20  C   -0.234863
    21  C    0.255975
    22  N   -0.732718
    23  C    0.312371
    24  C   -0.177072
    25  C   -0.141844
    26  C   -0.145262
    27  C   -0.197290
    28  C    0.059440
    29  C    0.059515
    30  C   -0.197298
    31  C   -0.145255
    32  C   -0.142068
    33  C   -0.178571
    34  C    0.312721
    35  C   -0.165456
    36  C   -0.185370
    37  C    0.336458
    38  C    0.069749
    39  C    0.049636
    40  C   -0.139685
    41  C   -0.135992
    42  C   -0.117191
    43  C   -0.129746
    44  C   -0.136019
    45  C    0.092468
    46  C    0.247325
    47  N   -0.468715
    48  C    0.267817
    49  N   -0.799114
    50  C    0.326702
    51  C   -0.163092
    52  C   -0.137249
    53  C   -0.140796
    54  C   -0.191510
    55  C    0.065449
    56  C    0.065717
    57  C   -0.229214
    58  C    0.254232
    59  N   -0.732294
    60  C    0.312055
    61  C   -0.178043
    62  C   -0.142279
    63  C   -0.145365
    64  C   -0.197834
    65  C    0.059449
    66  C    0.059654
    67  C   -0.197759
    68  C   -0.145305
    69  C   -0.142359
    70  C   -0.178781
    71  C    0.312430
    72  C   -0.160226
    73  C   -0.174345
    74  C    0.339806
    75  H    0.145669
    76  H    0.143151
    77  H    0.141838
    78  H    0.143807
    79  H    0.141066
    80  H    0.132320
    81  H    0.134820
    82  H    0.132724
    83  H    0.138781
    84  H    0.155063
    85  H    0.132938
    86  H    0.125607
    87  H    0.124032
    88  H    0.129825
    89  H    0.129648
    90  H    0.123643
    91  H    0.125217
    92  H    0.138150
    93  H    0.153535
    94  H    0.138155
    95  H    0.148482
    96  H    0.143007
    97  H    0.141890
    98  H    0.144574
    99  H    0.141194
   100  H    0.128047
   101  H    0.133227
   102  H    0.132328
   103  H    0.139371
   104  H    0.155511
   105  H    0.138328
   106  H    0.124952
   107  H    0.121777
   108  H    0.128019
   109  H    0.127706
   110  H    0.121884
   111  H    0.126422
   112  H    0.142855
   113  H    0.152022
   114  H    0.134101
 Sum of Mulliken charges =  -0.00000

 Dipole moment (field-independent basis, Debye):
    X=             -4.8374    Y=             -1.6149    Z=             -1.4861  Tot=              5.3119
 Quadrupole moment (field-independent basis, Debye-Ang):
   XX=           -447.1259   YY=           -398.5028   ZZ=           -412.2854
   XY=              4.4535   XZ=             -1.6852   YZ=             13.3321

 Normal termination of Gaussian 16 at Sat Nov  5 12:34:20 2022.
