 Gaussian 16, Revision B.01,
 Gaussian 16:  ES64L-G16RevB.01 20-Dec-2017

 -----------------------------
 #p b3lyp/6-31g(d) opt SCF=XQC
 -----------------------------

 ------------------------------
 Gaussian input prepared by ASE
 ------------------------------
 Symbolic Z-matrix:
 Charge =  0 Multiplicity = 1

 SCF Done:  E(RB3LYP) =  -2564.28108438     A.U. after   16 cycles
 SCF Done:  E(RB3LYP) =  -2564.29774878     A.U. after   15 cycles
 SCF Done:  E(RB3LYP) =  -2564.29997436     A.U. after   13 cycles
 SCF Done:  E(RB3LYP) =  -2564.30143933     A.U. after   13 cycles
 SCF Done:  E(RB3LYP) =  -2564.30195361     A.U. after   12 cycles
 SCF Done:  E(RB3LYP) =  -2564.30222335     A.U. after   12 cycles
 SCF Done:  E(RB3LYP) =  -2564.30227417     A.U. after   11 cycles
 SCF Done:  E(RB3LYP) =  -2564.30228830     A.U. after   10 cycles
 SCF Done:  E(RB3LYP) =  -2564.30229446     A.U. after   10 cycles
 SCF Done:  E(RB3LYP) =  -2564.30229605     A.U. after    9 cycles
 SCF Done:  E(RB3LYP) =  -2564.30229655     A.U. after    8 cycles
 SCF Done:  E(RB3LYP) =  -2564.30229668     A.U. after    7 cycles
 SCF Done:  E(RB3LYP) =  -2564.30229672     A.U. after    7 cycles
 Optimization completed.
    -- Stationary point found.

                         Standard orientation:
 ---------------------------------------------------------------------
 Center     Atomic      Atomic             Coordinates (Angstroms)
 Number     Number       Type             X           Y           Z
 ---------------------------------------------------------------------
      1          6           0        4.191533    7.120420   -0.857797
      2          6           0        2.865628    6.680776   -0.881428
      3          6           0        2.573124    5.330545   -0.706974
      4          6           0        3.606913    4.401860   -0.506917
      5          6           0        3.297642    2.963983   -0.321977
      6          7           0        2.007203    2.590909   -0.336194
      7          6           0        1.778066    1.280874   -0.168538
      8          6           0        0.366694    0.817967   -0.178608
      9          6           0       -0.677095    1.729234   -0.363797
     10          6           0       -2.013786    1.313800   -0.393519
     11          6           0       -3.071213    2.340120   -0.627247
     12          6           0       -3.094092    3.501676    0.161393
     13          6           0       -4.044091    4.498208   -0.060405
     14          6           0       -4.985062    4.352983   -1.080406
     15          6           0       -4.966715    3.206356   -1.876613
     16          6           0       -4.019649    2.207742   -1.653504
     17          6           0       -2.299053   -0.058685   -0.208751
     18          7           0       -3.661362   -0.493411   -0.194668
     19          6           0       -4.488645   -0.318945    0.919733
     20          6           0       -4.230058    0.330936    2.108845
     21          6           0       -5.241703    0.357557    3.100571
     22          6           0       -5.045302    1.016301    4.347949
     23          6           0       -6.031517    1.037713    5.305261
     24          6           0       -7.276401    0.398282    5.067798
     25          6           0       -7.503307   -0.247544    3.876387
     26          6           0       -6.507024   -0.292608    2.859026
     27          6           0       -6.726862   -0.958148    1.630249
     28          6           0       -5.733698   -0.978236    0.668731
     29          6           0       -5.628562   -1.561133   -0.649510
     30          6           0       -6.546953   -2.317016   -1.411793
     31          6           0       -6.190243   -2.741680   -2.666137
     32          6           0       -4.919038   -2.412045   -3.223458
     33          6           0       -4.581042   -2.829727   -4.536487
     34          6           0       -3.375516   -2.493945   -5.111769
     35          6           0       -2.448509   -1.713333   -4.388135
     36          6           0       -2.733511   -1.296886   -3.104410
     37          6           0       -3.963205   -1.635072   -2.475753
     38          6           0       -4.355995   -1.246800   -1.156510
     39          6           0       -1.259381   -0.993842    0.005883
     40          6           0       -1.501922   -2.450644    0.223033
     41          6           0       -2.320934   -2.919071    1.262033
     42          6           0       -2.485074   -4.287643    1.472865
     43          6           0       -1.836265   -5.211240    0.651409
     44          6           0       -1.017209   -4.757083   -0.382973
     45          6           0       -0.849277   -3.388672   -0.592823
     46          6           0        0.062539   -0.535861   -0.002159
     47          7           0        2.736067    0.359834    0.007353
     48          6           0        3.996492    0.823895    0.011302
     49          6           0        5.095380   -0.149810    0.205386
     50          6           0        4.803127   -1.519324    0.393508
     51          6           0        5.811969   -2.456723    0.578625
     52          6           0        7.144481   -2.024860    0.576497
     53          6           0        7.411236   -0.654021    0.386940
     54          6           0        6.426469    0.298049    0.201400
     55          8           0        8.764013   -0.393786    0.410890
     56          6           0        9.378258   -1.606952    0.617878
     57          6           0       10.749854   -1.800251    0.709445
     58          6           0       11.184663   -3.109304    0.922195
     59          6           0       10.274229   -4.174369    1.037175
     60          6           0        8.901332   -3.959000    0.942326
     61          6           0        8.441492   -2.653498    0.728883
     62          7           0        4.322737    2.115788   -0.150472
     63          6           0        4.936945    4.850927   -0.484789
     64          6           0        5.225437    6.201988   -0.658963
     65          1           0        4.418268    8.174596   -0.994016
     66          1           0        2.058571    7.391588   -1.036602
     67          1           0        1.548013    4.978731   -0.724203
     68          1           0       -0.439439    2.775222   -0.516217
     69          1           0       -2.369270    3.615057    0.963364
     70          1           0       -4.050737    5.385089    0.567668
     71          1           0       -5.726969    5.127671   -1.254465
     72          1           0       -5.689831    3.087989   -2.679091
     73          1           0       -4.006103    1.330824   -2.292271
     74          1           0       -3.280429    0.823576    2.293235
     75          1           0       -4.091867    1.506987    4.530443
     76          1           0       -5.860663    1.546294    6.250429
     77          1           0       -8.048334    0.422172    5.832234
     78          1           0       -8.455617   -0.739054    3.689494
     79          1           0       -7.679975   -1.452756    1.457808
     80          1           0       -7.523780   -2.556772   -1.000526
     81          1           0       -6.880132   -3.328400   -3.266850
     82          1           0       -5.306486   -3.421713   -5.089758
     83          1           0       -3.139831   -2.821453   -6.120700
     84          1           0       -1.502320   -1.435118   -4.844332
     85          1           0       -2.006015   -0.696067   -2.574593
     86          1           0       -2.818360   -2.211652    1.917507
     87          1           0       -3.119751   -4.631278    2.285275
     88          1           0       -1.968493   -6.277213    0.816418
     89          1           0       -0.511229   -5.467006   -1.031897
     90          1           0       -0.221691   -3.039596   -1.408158
     91          1           0        0.871073   -1.238504    0.160408
     92          1           0        3.764508   -1.827052    0.391512
     93          1           0        5.566817   -3.505044    0.722636
     94          1           0        6.658449    1.345675    0.057988
     95          1           0       11.441583   -0.969513    0.618977
     96          1           0       12.249881   -3.307346    1.000389
     97          1           0       10.649580   -5.180035    1.202643
     98          1           0        8.203091   -4.786382    1.032222
     99          1           0        5.731292    4.129871   -0.329921
    100          1           0        6.258025    6.539729   -0.639774
 ---------------------------------------------------------------------

 The electronic state is 1-A.
 Alpha  occ. eigenvalues --  -19.21327 -14.38045 -14.34031 -14.33989 -14.33966
 Alpha  occ. eigenvalues --  -10.27983 -10.27930 -10.27858 -10.25391 -10.25306
 Alpha  occ. eigenvalues --  -10.24452 -10.22863 -10.22212 -10.21317 -10.21275
 Alpha  occ. eigenvalues --  -10.20923 -10.20871 -10.20843 -10.20505 -10.20351
 Alpha  occ. eigenvalues --  -10.20277 -10.20272 -10.20236 -10.20147 -10.20135
 Alpha  occ. eigenvalues --  -10.20134 -10.20058 -10.19960 -10.19957 -10.19930
 Alpha  occ. eigenvalues --  -10.19926 -10.19643 -10.19584 -10.19557 -10.19535
 Alpha  occ. eigenvalues --  -10.19530 -10.19478 -10.19473 -10.19222 -10.18982
 Alpha  occ. eigenvalues --  -10.18901 -10.18891 -10.18882 -10.18872 -10.18838
 Alpha  occ. eigenvalues --  -10.18814 -10.18799 -10.18777 -10.18763 -10.18739
 Alpha  occ. eigenvalues --  -10.18724 -10.18714 -10.18688 -10.18665 -10.18661
 Alpha  occ. eigenvalues --  -10.18636 -10.18623 -10.18580 -10.18368 -10.18209
 Alpha  occ. eigenvalues --  -10.18198 -10.18096 -10.18085 -10.18039  -1.10948
 Alpha  occ. eigenvalues --   -1.02340  -0.98863  -0.90997  -0.90910  -0.88177
 Alpha  occ. eigenvalues --   -0.86762  -0.86447  -0.86028  -0.85869  -0.85626
 Alpha  occ. eigenvalues --   -0.85579  -0.84435  -0.82517  -0.80662  -0.79581
 Alpha  occ. eigenvalues --   -0.78969  -0.78356  -0.77129  -0.76702  -0.76437
 Alpha  occ. eigenvalues --   -0.75962  -0.75397  -0.74997  -0.74290  -0.74251
 Alpha  occ. eigenvalues --   -0.74229  -0.74144  -0.73629  -0.72041  -0.71921
 Alpha  occ. eigenvalues --   -0.71648  -0.70094  -0.68307  -0.67757  -0.65298
 Alpha  occ. eigenvalues --   -0.64128  -0.63513  -0.62993  -0.62628  -0.61524
 Alpha  occ. eigenvalues --   -0.61114  -0.60943  -0.60839  -0.60222  -0.60028
 Alpha  occ. eigenvalues --   -0.59473  -0.58977  -0.58567  -0.58485  -0.58200
 Alpha  occ. eigenvalues --   -0.57301  -0.56828  -0.54782  -0.54459  -0.53726
 Alpha  occ. eigenvalues --   -0.52690  -0.52539  -0.51883  -0.51713  -0.51308
 Alpha  occ. eigenvalues --   -0.50864  -0.50212  -0.49596  -0.49135  -0.48460
 Alpha  occ. eigenvalues --   -0.48378  -0.47431  -0.46841  -0.46598  -0.46451
 Alpha  occ. eigenvalues --   -0.46152  -0.46005  -0.45854  -0.45639  -0.45290
 Alpha  occ. eigenvalues --   -0.44748  -0.44679  -0.44601  -0.44501  -0.44432
 Alpha  occ. eigenvalues --   -0.43871  -0.43445  -0.43175  -0.42948  -0.42646
 Alpha  occ. eigenvalues --   -0.42545  -0.42435  -0.42314  -0.42281  -0.41890
 Alpha  occ. eigenvalues --   -0.41747  -0.41693  -0.41165  -0.40838  -0.40524
 Alpha  occ. eigenvalues --   -0.40427  -0.39347  -0.39245  -0.38710  -0.38284
 Alpha  occ. eigenvalues --   -0.38228  -0.38022  -0.37810  -0.37705  -0.37515
 Alpha  occ. eigenvalues --   -0.37058  -0.36750  -0.36179  -0.35971  -0.35871
 Alpha  occ. eigenvalues --   -0.35665  -0.35651  -0.35513  -0.35416  -0.34727
 Alpha  occ. eigenvalues --   -0.34671  -0.34400  -0.34300  -0.34237  -0.34053
 Alpha  occ. eigenvalues --   -0.33956  -0.33572  -0.33210  -0.33168  -0.32456
 Alpha  occ. eigenvalues --   -0.32303  -0.31455  -0.30277  -0.28578  -0.28434
 Alpha  occ. eigenvalues --   -0.27598  -0.26642  -0.26542  -0.26530  -0.26417
 Alpha  occ. eigenvalues --   -0.25808  -0.25494  -0.25209  -0.24946  -0.24784
 Alpha  occ. eigenvalues --   -0.24606  -0.23670  -0.23176  -0.23150  -0.22581
 Alpha  occ. eigenvalues --   -0.21569  -0.20994  -0.17962
 Alpha virt. eigenvalues --   -0.07688  -0.07230  -0.04569  -0.03766  -0.02992
 Alpha virt. eigenvalues --   -0.02410  -0.01229  -0.00328  -0.00319  -0.00219
 Alpha virt. eigenvalues --    0.00077   0.00206   0.00342   0.01438   0.01922

 Mulliken charges:
               1
     1  C   -0.115446
     2  C   -0.140175
     3  C   -0.157042
     4  C    0.076266
     5  C    0.451311
     6  N   -0.541898
     7  C    0.454077
     8  C    0.106052
     9  C   -0.248625
    10  C    0.083516
    11  C    0.076310
    12  C   -0.160896
    13  C   -0.134014
    14  C   -0.122106
    15  C   -0.138112
    16  C   -0.154483
    17  C    0.125663
    18  N   -0.762527
    19  C    0.341660
    20  C   -0.274130
    21  C    0.139582
    22  C   -0.193820
    23  C   -0.138311
    24  C   -0.142560
    25  C   -0.188936
    26  C    0.135431
    27  C   -0.297536
    28  C    0.083495
    29  C    0.062294
    30  C   -0.192027
    31  C   -0.211924
    32  C    0.139437
    33  C   -0.208356
    34  C   -0.127354
    35  C   -0.150989
    36  C   -0.187570
    37  C    0.126163
    38  C    0.215959
    39  C    0.090381
    40  C    0.067851
    41  C   -0.155811
    42  C   -0.136369
    43  C   -0.122554
    44  C   -0.134896
    45  C   -0.154874
    46  C   -0.246432
    47  N   -0.546782
    48  C    0.455550
    49  C    0.071505
    50  C   -0.180385
    51  C   -0.202175
    52  C    0.106813
    53  C    0.325311
    54  C   -0.246772
    55  O   -0.552405
    56  C    0.325857
    57  C   -0.201323
    58  C   -0.134562
    59  C   -0.145292
    60  C   -0.186429
    61  C    0.075376
    62  N   -0.540178
    63  C   -0.155961
    64  C   -0.139979
    65  H    0.135398
    66  H    0.135853
    67  H    0.163339
    68  H    0.172747
    69  H    0.132894
    70  H    0.131208
    71  H    0.130747
    72  H    0.134977
    73  H    0.148430
    74  H    0.137913
    75  H    0.124313
    76  H    0.125194
    77  H    0.124642
    78  H    0.124404
    79  H    0.129848
    80  H    0.130936
    81  H    0.124586
    82  H    0.128900
    83  H    0.128342
    84  H    0.129404
    85  H    0.150305
    86  H    0.149506
    87  H    0.134840
    88  H    0.129761
    89  H    0.130598
    90  H    0.134783
    91  H    0.172531
    92  H    0.164764
    93  H    0.140606
    94  H    0.176408
    95  H    0.150106
    96  H    0.137154
    97  H    0.133836
    98  H    0.139118
    99  H    0.162096
   100  H    0.135673
 Sum of Mulliken charges =  -0.00000

 Dipole moment (field-independent basis, Debye):
    X=              1.8270    Y=             -0.4718    Z=             -0.4911  Tot=              1.9498
 Quadrupole moment (field-independent basis, Debye-Ang):
   XX=           -326.4750   YY=           -322.8881   ZZ=           -355.0725
   XY=             -5.2729   XZ=              3.3474   YZ=              1.8270

 Normal termination of Gaussian 16 at Sat Nov  5 03:05:15 2022.
