 Gaussian 16, Revision B.01,
 Gaussian 16:  ES64L-G16RevB.01 20-Dec-2017

 -------------------------------------------------------------------
 #p b3lyp/6-31g(d) 6D 10F nosymm GFInput td=(50-50,nstate=2) SCF=XQC
 -------------------------------------------------------------------

 ------------------------------
 Gaussian input prepared by ASE
 ------------------------------
 Symbolic Z-matrix:
 Charge =  0 Multiplicity = 1

                          Input orientation:
 ---------------------------------------------------------------------
 Center     Atomic      Atomic             Coordinates (Angstroms)
 Number     Number       Type             X           Y           Z
 ---------------------------------------------------------------------
      1          6           0       -7.768403   -0.052456    3.149202
      2          6           0       -6.901194    0.822309    2.489958
      3          6           0       -5.619723    0.405032    2.139483
      4          6           0       -5.189706   -0.895859    2.446024
      5          6           0       -3.825626   -1.341614    2.074634
      6          7           0       -3.033338   -0.470848    1.427591
      7          6           0       -1.808743   -0.918321    1.116242
      8          6           0       -0.893894    0.008375    0.401651
      9          6           0       -1.308273    1.303290    0.076560
     10          6           0       -0.457713    2.199541   -0.581843
     11          6           0       -0.959609    3.575328   -0.867191
     12          6           0       -2.194307    3.740616   -1.515180
     13          6           0       -2.709725    5.013397   -1.758369
     14          6           0       -2.001188    6.144455   -1.351429
     15          6           0       -0.776571    5.992407   -0.698566
     16          6           0       -0.258563    4.720493   -0.458058
     17          6           0        0.838851    1.762571   -0.938508
     18          7           0        1.705171    2.651753   -1.648379
     19          6           0        1.565621    2.893217   -3.019125
     20          6           0        0.598023    2.442955   -3.893320
     21          6           0        0.686544    2.821577   -5.255841
     22          6           0       -0.281496    2.398836   -6.211171
     23          6           0       -0.188785    2.770170   -7.531414
     24          6           0        0.882848    3.589663   -7.973036
     25          6           0        1.836258    4.017542   -7.080866
     26          6           0        1.776029    3.654504   -5.704563
     27          6           0        2.753890    4.084790   -4.777306
     28          6           0        2.658574    3.710352   -3.449900
     29          6           0        3.469772    3.957317   -2.279623
     30          6           0        4.660219    4.698571   -2.108582
     31          6           0        5.224737    4.785264   -0.861680
     32          6           0        4.617475    4.161708    0.268648
     33          6           0        5.196492    4.291904    1.557265
     34          6           0        4.611007    3.730880    2.670570
     35          6           0        3.404574    3.010217    2.538257
     36          6           0        2.815267    2.850335    1.301423
     37          6           0        3.398399    3.406110    0.129759
     38          6           0        2.863641    3.304147   -1.192769
     39          6           0        1.269123    0.447887   -0.641900
     40          6           0        2.619153   -0.072895   -1.008580
     41          6           0        3.076697   -0.077628   -2.335365
     42          6           0        4.321020   -0.620360   -2.653926
     43          6           0        5.129507   -1.166441   -1.655468
     44          6           0        4.683736   -1.169820   -0.333221
     45          6           0        3.437993   -0.630592   -0.013622
     46          6           0        0.394419   -0.402067    0.043489
     47          7           0       -1.353258   -2.145315    1.406141
     48          6           0       -2.214873   -2.949203    2.050675
     49          6           0       -1.765437   -4.318167    2.393123
     50          6           0       -0.469933   -4.749810    2.030182
     51          6           0       -0.019674   -6.028079    2.336846
     52          6           0       -0.875889   -6.900095    3.021374
     53          6           0       -2.163325   -6.447053    3.372872
     54          6           0       -2.635175   -5.181458    3.079180
     55          8           0       -2.877693   -7.419350    4.038167
     56          6           0       -2.045255   -8.511415    4.117893
     57          6           0       -2.372321   -9.720610    4.716139
     58          6           0       -1.391779  -10.713651    4.697455
     59          6           0       -0.137740  -10.494167    4.101061
     60          6           0        0.170611   -9.273142    3.505877
     61          6           0       -0.797796   -8.261464    3.512517
     62          7           0       -3.458445   -2.588967    2.404723
     63          6           0       -6.066519   -1.769240    3.109002
     64          6           0       -7.347404   -1.348554    3.457263
     65          1           0       -8.768319    0.274630    3.422027
     66          1           0       -7.224303    1.831426    2.249215
     67          1           0       -4.938729    1.075842    1.628423
     68          1           0       -2.300660    1.625345    0.368539
     69          1           0       -2.745417    2.862884   -1.842664
     70          1           0       -3.662542    5.119664   -2.270155
     71          1           0       -2.400281    7.137302   -1.540759
     72          1           0       -0.221425    6.866894   -0.369987
     73          1           0        0.685428    4.617668    0.066823
     74          1           0       -0.224638    1.818466   -3.559057
     75          1           0       -1.103259    1.771332   -5.873444
     76          1           0       -0.938536    2.436384   -8.243910
     77          1           0        0.945285    3.876712   -9.019228
     78          1           0        2.659443    4.645732   -7.414257
     79          1           0        3.576644    4.705971   -5.123727
     80          1           0        5.118734    5.190916   -2.961913
     81          1           0        6.142929    5.346377   -0.709631
     82          1           0        6.120346    4.858180    1.650288
     83          1           0        5.070265    3.847187    3.648480
     84          1           0        2.932906    2.578151    3.416687
     85          1           0        1.888409    2.296453    1.230071
     86          1           0        2.451219    0.329499   -3.123111
     87          1           0        4.656302   -0.618993   -3.687606
     88          1           0        6.100043   -1.586048   -1.906468
     89          1           0        5.306894   -1.587657    0.453032
     90          1           0        3.100981   -0.622748    1.019262
     91          1           0        0.707824   -1.412128    0.278893
     92          1           0        0.172195   -4.056269    1.500936
     93          1           0        0.979491   -6.341498    2.048308
     94          1           0       -3.629250   -4.858156    3.360592
     95          1           0       -3.343831   -9.876879    5.172808
     96          1           0       -1.604153  -11.676171    5.154047
     97          1           0        0.600610  -11.290691    4.105592
     98          1           0        1.141501   -9.110037    3.046582
     99          1           0       -5.729621   -2.772493    3.343255
    100          1           0       -8.018758   -2.032118    3.969805
 ---------------------------------------------------------------------

 SCF Done:  E(RB3LYP) =  -2564.30229378     A.U. after   16 cycles

 Excitation energies and oscillator strengths:

 Excited state symmetry could not be determined.
 Excited State   1:      Triplet-?Sym    2.1770 eV  569.52 nm  f=0.0000  <S**2>=2.000
     211 -> 216       -0.13425
     211 -> 219       -0.12685
     213 -> 216        0.64829
 This state for optimization and/or second-order correction.
 Total Energy, E(TD-HF/TD-DFT) =  -2564.22229011
 Copying the excited state density for this state as the 1-particle RhoCI density.

 Excited state symmetry could not be determined.
 Excited State   2:      Triplet-?Sym    2.3580 eV  525.80 nm  f=0.0000  <S**2>=2.000
     213 -> 214        0.62651
     213 -> 215        0.27280
     213 -> 217        0.10139

 Excited state symmetry could not be determined.
 Excited State   3:      Singlet-?Sym    2.3923 eV  518.26 nm  f=0.0275  <S**2>=0.000
     213 -> 214        0.65213
     213 -> 215        0.25633

 Excited state symmetry could not be determined.
 Excited State   4:      Singlet-?Sym    2.5968 eV  477.45 nm  f=0.0011  <S**2>=0.000
     213 -> 214       -0.26078
     213 -> 215        0.65588

 Alpha  occ. eigenvalues --  -19.21327 -14.38045 -14.34031 -14.33989 -14.33966
 Alpha  occ. eigenvalues --  -10.27983 -10.27930 -10.27858 -10.25391 -10.25306
 Alpha  occ. eigenvalues --  -10.24452 -10.22863 -10.22212 -10.21317 -10.21275
 Alpha  occ. eigenvalues --  -10.20923 -10.20871 -10.20844 -10.20505 -10.20351
 Alpha  occ. eigenvalues --  -10.20277 -10.20272 -10.20236 -10.20147 -10.20135
 Alpha  occ. eigenvalues --  -10.20134 -10.20058 -10.19960 -10.19957 -10.19930
 Alpha  occ. eigenvalues --  -10.19927 -10.19643 -10.19584 -10.19557 -10.19536
 Alpha  occ. eigenvalues --  -10.19530 -10.19478 -10.19473 -10.19222 -10.18982
 Alpha  occ. eigenvalues --  -10.18901 -10.18891 -10.18882 -10.18872 -10.18838
 Alpha  occ. eigenvalues --  -10.18814 -10.18800 -10.18777 -10.18763 -10.18739
 Alpha  occ. eigenvalues --  -10.18724 -10.18714 -10.18688 -10.18665 -10.18661
 Alpha  occ. eigenvalues --  -10.18636 -10.18623 -10.18580 -10.18368 -10.18209
 Alpha  occ. eigenvalues --  -10.18198 -10.18096 -10.18085 -10.18039  -1.10948
 Alpha  occ. eigenvalues --   -1.02340  -0.98863  -0.90997  -0.90910  -0.88177
 Alpha  occ. eigenvalues --   -0.86762  -0.86447  -0.86028  -0.85869  -0.85626
 Alpha  occ. eigenvalues --   -0.85579  -0.84435  -0.82517  -0.80662  -0.79581
 Alpha  occ. eigenvalues --   -0.78969  -0.78356  -0.77129  -0.76702  -0.76437
 Alpha  occ. eigenvalues --   -0.75962  -0.75397  -0.74997  -0.74290  -0.74251
 Alpha  occ. eigenvalues --   -0.74229  -0.74144  -0.73629  -0.72041  -0.71921
 Alpha  occ. eigenvalues --   -0.71648  -0.70094  -0.68307  -0.67757  -0.65298
 Alpha  occ. eigenvalues --   -0.64128  -0.63513  -0.62993  -0.62628  -0.61524
 Alpha  occ. eigenvalues --   -0.61114  -0.60943  -0.60839  -0.60222  -0.60028
 Alpha  occ. eigenvalues --   -0.59473  -0.58977  -0.58567  -0.58485  -0.58200
 Alpha  occ. eigenvalues --   -0.57301  -0.56828  -0.54782  -0.54459  -0.53726
 Alpha  occ. eigenvalues --   -0.52690  -0.52539  -0.51883  -0.51713  -0.51308
 Alpha  occ. eigenvalues --   -0.50864  -0.50212  -0.49596  -0.49135  -0.48460
 Alpha  occ. eigenvalues --   -0.48378  -0.47431  -0.46841  -0.46598  -0.46451
 Alpha  occ. eigenvalues --   -0.46152  -0.46005  -0.45854  -0.45639  -0.45290
 Alpha  occ. eigenvalues --   -0.44748  -0.44679  -0.44601  -0.44501  -0.44432
 Alpha  occ. eigenvalues --   -0.43871  -0.43445  -0.43175  -0.42948  -0.42646
 Alpha  occ. eigenvalues --   -0.42545  -0.42435  -0.42314  -0.42281  -0.41890
 Alpha  occ. eigenvalues --   -0.41747  -0.41692  -0.41165  -0.40838  -0.40524
 Alpha  occ. eigenvalues --   -0.40427  -0.39347  -0.39245  -0.38710  -0.38284
 Alpha  occ. eigenvalues --   -0.38228  -0.38022  -0.37810  -0.37705  -0.37515
 Alpha  occ. eigenvalues --   -0.37058  -0.36750  -0.36179  -0.35971  -0.35871
 Alpha  occ. eigenvalues --   -0.35665  -0.35651  -0.35513  -0.35416  -0.34727
 Alpha  occ. eigenvalues --   -0.34671  -0.34400  -0.34300  -0.34237  -0.34053
 Alpha  occ. eigenvalues --   -0.33956  -0.33572  -0.33210  -0.33168  -0.32456
 Alpha  occ. eigenvalues --   -0.32303  -0.31456  -0.30277  -0.28578  -0.28434
 Alpha  occ. eigenvalues --   -0.27598  -0.26642  -0.26542  -0.26530  -0.26417
 Alpha  occ. eigenvalues --   -0.25808  -0.25494  -0.25209  -0.24946  -0.24784
 Alpha  occ. eigenvalues --   -0.24606  -0.23670  -0.23176  -0.23150  -0.22581
 Alpha  occ. eigenvalues --   -0.21569  -0.20994  -0.17962
 Alpha virt. eigenvalues --   -0.07688  -0.07230  -0.04569  -0.03766  -0.02992
 Alpha virt. eigenvalues --   -0.02410  -0.01229  -0.00328  -0.00319  -0.00219
 Alpha virt. eigenvalues --    0.00077   0.00206   0.00342   0.01438   0.01922

 Mulliken charges:
               1
     1  C   -0.115430
     2  C   -0.140188
     3  C   -0.157035
     4  C    0.076249
     5  C    0.451349
     6  N   -0.541907
     7  C    0.454057
     8  C    0.106015
     9  C   -0.248582
    10  C    0.083514
    11  C    0.076313
    12  C   -0.160906
    13  C   -0.134019
    14  C   -0.122100
    15  C   -0.138115
    16  C   -0.154489
    17  C    0.125660
    18  N   -0.762585
    19  C    0.341697
    20  C   -0.274124
    21  C    0.139570
    22  C   -0.193813
    23  C   -0.138308
    24  C   -0.142570
    25  C   -0.188934
    26  C    0.135429
    27  C   -0.297524
    28  C    0.083477
    29  C    0.062276
    30  C   -0.191986
    31  C   -0.211943
    32  C    0.139459
    33  C   -0.208362
    34  C   -0.127352
    35  C   -0.150992
    36  C   -0.187569
    37  C    0.126130
    38  C    0.215992
    39  C    0.090370
    40  C    0.067854
    41  C   -0.155803
    42  C   -0.136363
    43  C   -0.122565
    44  C   -0.134887
    45  C   -0.154875
    46  C   -0.246411
    47  N   -0.546778
    48  C    0.455566
    49  C    0.071489
    50  C   -0.180390
    51  C   -0.202167
    52  C    0.106811
    53  C    0.325289
    54  C   -0.246744
    55  O   -0.552400
    56  C    0.325838
    57  C   -0.201321
    58  C   -0.134560
    59  C   -0.145294
    60  C   -0.186434
    61  C    0.075395
    62  N   -0.540199
    63  C   -0.155947
    64  C   -0.140000
    65  H    0.135398
    66  H    0.135854
    67  H    0.163343
    68  H    0.172743
    69  H    0.132896
    70  H    0.131208
    71  H    0.130746
    72  H    0.134976
    73  H    0.148430
    74  H    0.137917
    75  H    0.124312
    76  H    0.125194
    77  H    0.124644
    78  H    0.124404
    79  H    0.129848
    80  H    0.130937
    81  H    0.124586
    82  H    0.128900
    83  H    0.128342
    84  H    0.129404
    85  H    0.150307
    86  H    0.149512
    87  H    0.134833
    88  H    0.129761
    89  H    0.130598
    90  H    0.134784
    91  H    0.172529
    92  H    0.164766
    93  H    0.140605
    94  H    0.176408
    95  H    0.150107
    96  H    0.137153
    97  H    0.133836
    98  H    0.139119
    99  H    0.162098
   100  H    0.135674
 Sum of Mulliken charges =  -0.00000

 Dipole moment (field-independent basis, Debye):
    X=             -0.0927    Y=             -1.4330    Z=              1.3189  Tot=              1.9498
 Quadrupole moment (field-independent basis, Debye-Ang):
   XX=           -327.1807   YY=           -325.7657   ZZ=           -351.0306
   XY=             -5.6180   XZ=             -1.7660   YZ=            -11.0848

 Normal termination of Gaussian 16 at Sat Nov  5 11:43:10 2022.
