 Gaussian 16, Revision B.01,
 Gaussian 16:  ES64L-G16RevB.01 20-Dec-2017

 -------------------------------------------------------------------
 #p b3lyp/6-31g(d) 6D 10F nosymm GFInput td=(50-50,nstate=2) SCF=XQC
 -------------------------------------------------------------------

 ------------------------------
 Gaussian input prepared by ASE
 ------------------------------
 Symbolic Z-matrix:
 Charge =  0 Multiplicity = 1

                          Input orientation:
 ---------------------------------------------------------------------
 Center     Atomic      Atomic             Coordinates (Angstroms)
 Number     Number       Type             X           Y           Z
 ---------------------------------------------------------------------
      1          6           0       -3.346126   -4.941048   -0.525129
      2          6           0       -3.595410   -3.456470   -0.662213
      3          6           0       -4.866804   -2.973866   -1.008769
      4          6           0       -5.103550   -1.605342   -1.135402
      5          6           0       -4.075678   -0.690704   -0.917334
      6          6           0       -2.796252   -1.150774   -0.576528
      7          6           0       -1.693355   -0.187745   -0.345932
      8          7           0       -2.000792    1.117655   -0.290083
      9          6           0       -0.970284    1.946729   -0.065594
     10          6           0       -1.249923    3.401634   -0.008453
     11          6           0       -2.574167    3.866957    0.004624
     12          6           0       -2.837972    5.233141    0.063334
     13          6           0       -1.784860    6.150341    0.102184
     14          6           0       -0.464338    5.694542    0.082502
     15          6           0       -0.196340    4.328890    0.029431
     16          7           0        0.299690    1.550320    0.104396
     17          6           0        0.501903    0.228861    0.024997
     18          7           0        1.802394   -0.233118    0.188157
     19          6           0        2.872722    0.480203    0.795180
     20          6           0        2.901948    1.739607    1.401174
     21          6           0        4.106877    2.167656    1.959634
     22          6           0        5.260529    1.371854    1.923128
     23          6           0        5.223532    0.113627    1.329949
     24          6           0        4.025492   -0.337133    0.768779
     25          6           0        3.665479   -1.579969    0.117969
     26          6           0        4.408628   -2.719894   -0.200914
     27          6           0        3.783688   -3.769271   -0.867741
     28          6           0        2.429340   -3.674564   -1.217444
     29          6           0        1.667379   -2.548314   -0.904398
     30          6           0        2.296178   -1.501812   -0.223446
     31          7           0       -0.454570   -0.680929   -0.199855
     32          6           0       -2.571355   -2.531438   -0.451199
     33          1           0       -4.047076   -5.401033    0.181924
     34          1           0       -3.472953   -5.457398   -1.485160
     35          1           0       -2.331158   -5.143552   -0.170036
     36          1           0       -5.678285   -3.678805   -1.177734
     37          1           0       -6.094846   -1.250323   -1.404217
     38          1           0       -4.246064    0.375499   -1.011191
     39          1           0       -3.382481    3.145267   -0.026468
     40          1           0       -3.866373    5.583701    0.078752
     41          1           0       -1.992329    7.216326    0.145537
     42          1           0        0.357638    6.404814    0.105997
     43          1           0        0.825365    3.966769    0.003216
     44          1           0        2.020793    2.362449    1.433223
     45          1           0        4.145180    3.145324    2.432393
     46          1           0        6.183908    1.737352    2.363513
     47          1           0        6.109521   -0.515200    1.307549
     48          1           0        5.460985   -2.779233    0.063499
     49          1           0        4.347029   -4.662477   -1.122693
     50          1           0        1.953630   -4.496738   -1.745256
     51          1           0        0.624446   -2.487969   -1.176584
     52          1           0       -1.580935   -2.874398   -0.170527
 ---------------------------------------------------------------------

 SCF Done:  E(RB3LYP) =  -1298.10010635     A.U. after   15 cycles

 Excitation energies and oscillator strengths:

 Excited state symmetry could not be determined.
 Excited State   1:      Triplet-?Sym    3.0945 eV  400.66 nm  f=0.0000  <S**2>=2.000
     103 ->109         0.15756
     104 ->110        -0.17146
     104 ->113        -0.10737
     105 ->109         0.36153
     106 ->109        -0.32518
     106 ->110        -0.22923
     106 ->114        -0.12476
     108 ->110         0.24898
 This state for optimization and/or second-order correction.
 Total Energy, E(TD-HF/TD-DFT) =  -1297.98638479
 Copying the excited state density for this state as the 1-particle RhoCI density.

 Excited state symmetry could not be determined.
 Excited State   2:      Triplet-?Sym    3.1167 eV  397.81 nm  f=0.0000  <S**2>=2.000
      99 ->118         0.11620
     107 ->110         0.29286
     107 ->111        -0.49458
     108 ->109         0.28161
     108 ->115        -0.19549

 Excited state symmetry could not be determined.
 Excited State   3:      Singlet-?Sym    3.3005 eV  375.65 nm  f=0.0004  <S**2>=0.000
     108 ->109         0.70371

 Excited state symmetry could not be determined.
 Excited State   4:      Singlet-?Sym    3.4793 eV  356.34 nm  f=0.0002  <S**2>=0.000
     107 ->109         0.70609

 Alpha  occ. eigenvalues --  -14.39798 -14.33854 -14.33837 -14.33429 -10.31038
 Alpha  occ. eigenvalues --  -10.27811 -10.27789 -10.22913 -10.22907 -10.20250
 Alpha  occ. eigenvalues --  -10.20160 -10.20070 -10.19897 -10.19538 -10.19510
 Alpha  occ. eigenvalues --  -10.19482 -10.19468 -10.19441 -10.19334 -10.19238
 Alpha  occ. eigenvalues --  -10.19201 -10.19151 -10.19081 -10.19018 -10.19010
 Alpha  occ. eigenvalues --  -10.18776 -10.18760 -10.18666 -10.18636 -10.18628
 Alpha  occ. eigenvalues --  -10.18556 -10.18542  -1.03677  -0.98590  -0.91139
 Alpha  occ. eigenvalues --   -0.90190  -0.85816  -0.85615  -0.84568  -0.84443
 Alpha  occ. eigenvalues --   -0.78141  -0.77934  -0.76490  -0.75850  -0.74932
 Alpha  occ. eigenvalues --   -0.74795  -0.73991  -0.71675  -0.69140  -0.67904
 Alpha  occ. eigenvalues --   -0.67647  -0.63913  -0.61799  -0.61468  -0.60544
 Alpha  occ. eigenvalues --   -0.59764  -0.58321  -0.57487  -0.57204  -0.54858
 Alpha  occ. eigenvalues --   -0.54084  -0.52005  -0.51113  -0.50692  -0.50085
 Alpha  occ. eigenvalues --   -0.47415  -0.47177  -0.46103  -0.45797  -0.45609
 Alpha  occ. eigenvalues --   -0.45085  -0.44304  -0.43583  -0.43473  -0.43221
 Alpha  occ. eigenvalues --   -0.42867  -0.42360  -0.42190  -0.42135  -0.41630
 Alpha  occ. eigenvalues --   -0.41394  -0.40906  -0.38717  -0.38244  -0.37903
 Alpha  occ. eigenvalues --   -0.36952  -0.36507  -0.36010  -0.35717  -0.35258
 Alpha  occ. eigenvalues --   -0.34896  -0.34830  -0.34653  -0.34432  -0.33961
 Alpha  occ. eigenvalues --   -0.33518  -0.32738  -0.30419  -0.27783  -0.26633
 Alpha  occ. eigenvalues --   -0.26563  -0.25531  -0.25189  -0.25137  -0.24739
 Alpha  occ. eigenvalues --   -0.24278  -0.21483  -0.21172
 Alpha virt. eigenvalues --   -0.06899  -0.05419  -0.02701  -0.00581  -0.00211
 Alpha virt. eigenvalues --    0.00134   0.00555   0.03510   0.04188   0.04508
 Alpha virt. eigenvalues --    0.09066   0.09656   0.09965   0.10809   0.11491

 Mulliken charges:
               1
     1  C   -0.531973
     2  C    0.172530
     3  C   -0.164175
     4  C   -0.137036
     5  C   -0.161296
     6  C    0.083005
     7  C    0.452233
     8  N   -0.543012
     9  C    0.452264
    10  C    0.076558
    11  C   -0.155507
    12  C   -0.139331
    13  C   -0.116070
    14  C   -0.139881
    15  C   -0.160502
    16  N   -0.550859
    17  C    0.710515
    18  N   -0.760176
    19  C    0.307320
    20  C   -0.146264
    21  C   -0.146771
    22  C   -0.138336
    23  C   -0.195951
    24  C    0.054646
    25  C    0.054680
    26  C   -0.195996
    27  C   -0.138315
    28  C   -0.147141
    29  C   -0.146466
    30  C    0.307093
    31  N   -0.550779
    32  C   -0.224410
    33  H    0.163223
    34  H    0.164361
    35  H    0.161223
    36  H    0.127313
    37  H    0.133516
    38  H    0.159240
    39  H    0.161799
    40  H    0.135053
    41  H    0.135164
    42  H    0.135609
    43  H    0.164604
    44  H    0.172468
    45  H    0.128498
    46  H    0.127451
    47  H    0.131696
    48  H    0.131745
    49  H    0.127327
    50  H    0.127883
    51  H    0.173086
    52  H    0.158141
 Sum of Mulliken charges =  -0.00000

 Dipole moment (field-independent basis, Debye):
    X=             -1.1022    Y=             -0.0502    Z=             -0.1230  Tot=              1.1101
 Quadrupole moment (field-independent basis, Debye-Ang):
   XX=           -161.3804   YY=           -155.5051   ZZ=           -186.2862
   XY=              1.3222   XZ=              5.0899   YZ=              5.7018

 Normal termination of Gaussian 16 at Sat Nov  5 11:15:46 2022.
