 Gaussian 16, Revision B.01,
 Gaussian 16:  ES64L-G16RevB.01 20-Dec-2017

 -------------------------------------------------------------------
 #p b3lyp/6-31g(d) 6D 10F nosymm GFInput td=(50-50,nstate=2) SCF=XQC
 -------------------------------------------------------------------

 ------------------------------
 Gaussian input prepared by ASE
 ------------------------------
 Symbolic Z-matrix:
 Charge =  0 Multiplicity = 1

                          Input orientation:
 ---------------------------------------------------------------------
 Center     Atomic      Atomic             Coordinates (Angstroms)
 Number     Number       Type             X           Y           Z
 ---------------------------------------------------------------------
      1          6           0        0.741804    4.224710   -1.967813
      2          6           0        0.479135    3.006544   -2.884518
      3          6           0       -0.528722    3.404197   -3.989095
      4          6           0        1.808439    2.626312   -3.564125
      5          6           0       -0.104553    1.849796   -2.048212
      6          6           0        0.514010    0.595203   -1.986397
      7          6           0       -0.071961   -0.429203   -1.238053
      8          8           0        0.447080   -1.709333   -1.205930
      9          6           0        1.812897   -1.921381   -1.140059
     10          6           0        2.296964   -3.025516   -1.861486
     11          6           0        3.640988   -3.368426   -1.785125
     12          6           0        4.503993   -2.600320   -0.995942
     13          6           0        5.921504   -2.673312   -0.712365
     14          6           0        6.924606   -3.568145   -1.103321
     15          6           0        8.230048   -3.424654   -0.626782
     16          6           0        9.373535   -4.375894   -1.026857
     17          6           0       10.501141   -3.569032   -1.713765
     18          6           0        9.938161   -5.070039    0.235594
     19          6           0        8.907904   -5.471217   -2.004879
     20          6           0        8.489448   -2.362394    0.268604
     21          6           0        7.513813   -1.455330    0.672478
     22          6           0        6.222631   -1.602817    0.158987
     23          7           0        5.047591   -0.870682    0.411284
     24          6           0        4.955297    0.329130    1.151154
     25          6           0        5.965042    1.296267    1.061164
     26          6           0        5.875918    2.473226    1.814432
     27          6           0        6.982781    3.536361    1.721071
     28          6           0        7.075806    4.047764    0.263555
     29          6           0        6.709541    4.740372    2.641947
     30          6           0        8.334693    2.906272    2.131992
     31          6           0        4.732853    2.620036    2.611987
     32          6           0        3.762011    1.620124    2.599828
     33          7           0        3.857402    0.486855    1.899959
     34          6           0        3.989658   -1.493004   -0.276640
     35          6           0        2.639537   -1.141555   -0.331448
     36          6           0       -1.257710   -0.234607   -0.538734
     37          6           0       -1.888329    1.020379   -0.591109
     38          7           0       -3.097324    1.206775    0.084885
     39          6           0       -3.969860    0.082545    0.413370
     40          7           0       -5.231425    0.732798    0.753367
     41          6           0       -6.434444    0.017605    0.817103
     42          6           0       -6.408520   -1.362734    1.068683
     43          6           0       -7.588260   -2.115043    1.107523
     44          6           0       -7.507348   -3.628860    1.390469
     45          6           0       -6.858713   -3.862688    2.775821
     46          6           0       -6.647361   -4.312046    0.300654
     47          6           0       -8.892612   -4.303277    1.394866
     48          6           0       -8.805383   -1.453407    0.896207
     49          6           0       -8.864404   -0.076391    0.631830
     50          6           0      -10.195240    0.655900    0.363487
     51          6           0      -11.416446   -0.276275    0.480640
     52          6           0      -10.371459    1.802887    1.386700
     53          6           0      -10.178872    1.245391   -1.067224
     54          6           0       -7.668355    0.646028    0.587442
     55          6           0       -4.992401    2.093194    0.991942
     56          6           0       -5.782987    3.069859    1.585284
     57          6           0       -5.249392    4.360196    1.744976
     58          6           0       -3.950854    4.649306    1.340841
     59          6           0       -3.139600    3.658280    0.761614
     60          6           0       -3.671502    2.387796    0.579410
     61          6           0       -1.305686    2.046938   -1.352646
     62          1           0        1.452559    3.970942   -1.172984
     63          1           0       -0.177081    4.584762   -1.493390
     64          1           0        1.162645    5.054658   -2.548753
     65          1           0       -0.126876    4.227393   -4.592723
     66          1           0       -0.729649    2.559203   -4.657374
     67          1           0       -1.485296    3.733533   -3.570588
     68          1           0        2.187451    3.481555   -4.135001
     69          1           0        2.576055    2.349077   -2.832839
     70          1           0        1.685395    1.792184   -4.263871
     71          1           0        1.434558    0.392068   -2.516743
     72          1           0        1.599218   -3.598056   -2.463385
     73          1           0        4.017059   -4.222313   -2.342118
     74          1           0        6.667042   -4.379989   -1.774701
     75          1           0       11.327341   -4.231897   -1.999605
     76          1           0       10.908601   -2.795136   -1.054657
     77          1           0       10.132235   -3.075024   -2.619957
     78          1           0       10.329508   -4.347022    0.959007
     79          1           0        9.161923   -5.657846    0.738587
     80          1           0       10.757774   -5.747689   -0.034113
     81          1           0        8.129254   -6.105520   -1.566139
     82          1           0        9.753254   -6.118686   -2.264131
     83          1           0        8.518927   -5.046455   -2.937357
     84          1           0        9.490265   -2.239855    0.672600
     85          1           0        7.759659   -0.674657    1.383615
     86          1           0        6.795318    1.131234    0.385361
     87          1           0        6.131278    4.503411   -0.054355
     88          1           0        7.312279    3.241425   -0.438358
     89          1           0        7.863933    4.805449    0.179527
     90          1           0        6.650121    4.443200    3.695110
     91          1           0        7.524386    5.466668    2.549031
     92          1           0        5.778717    5.254347    2.377085
     93          1           0        9.133553    3.654825    2.071848
     94          1           0        8.612283    2.072136    1.479054
     95          1           0        8.298060    2.531287    3.161135
     96          1           0        4.577897    3.497736    3.227578
     97          1           0        2.856985    1.731951    3.194770
     98          1           0        2.243328   -0.322755    0.252181
     99          1           0       -1.655424   -1.055359    0.046453
    100          1           0       -4.088272   -0.593519   -0.443216
    101          1           0       -3.570473   -0.505190    1.263103
    102          1           0       -5.456566   -1.848619    1.254346
    103          1           0       -5.845135   -3.451764    2.828127
    104          1           0       -7.450448   -3.392169    3.569312
    105          1           0       -6.794047   -4.936522    2.990561
    106          1           0       -5.628487   -3.911954    0.273004
    107          1           0       -6.576335   -5.390129    0.490361
    108          1           0       -7.088562   -4.169882   -0.692500
    109          1           0       -8.779337   -5.374460    1.596725
    110          1           0       -9.399807   -4.201145    0.428838
    111          1           0       -9.546387   -3.888945    2.170593
    112          1           0       -9.724118   -2.020824    0.931231
    113          1           0      -11.501128   -0.714543    1.481550
    114          1           0      -11.379126   -1.093018   -0.248931
    115          1           0      -12.333218    0.293244    0.290307
    116          1           0      -10.385242    1.415277    2.411836
    117          1           0       -9.563939    2.539326    1.318033
    118          1           0      -11.316937    2.330319    1.209797
    119          1           0       -9.359106    1.957836   -1.205820
    120          1           0      -11.118427    1.772850   -1.273762
    121          1           0      -10.062385    0.452905   -1.815301
    122          1           0       -7.679537    1.699124    0.335409
    123          1           0       -6.778852    2.840057    1.944600
    124          1           0       -5.861654    5.130986    2.204220
    125          1           0       -3.544831    5.646668    1.483215
    126          1           0       -2.113947    3.878962    0.492078
    127          1           0       -1.824744    2.992879   -1.434803
 ---------------------------------------------------------------------

 SCF Done:  E(RB3LYP) =  -2468.00361403     A.U. after   15 cycles

 Excitation energies and oscillator strengths:

 Excited state symmetry could not be determined.
 Excited State   1:      Triplet-?Sym    3.0222 eV  410.25 nm  f=0.0000  <S**2>=2.000
     216 -> 221        0.10839
     216 -> 223        0.17455
     218 -> 221       -0.24518
     219 -> 221        0.14282
     219 -> 223       -0.18943
     219 -> 224        0.43887
     219 -> 226        0.15544
     219 -> 230        0.11233
 This state for optimization and/or second-order correction.
 Total Energy, E(TD-HF/TD-DFT) =  -2467.89255076
 Copying the excited state density for this state as the 1-particle RhoCI density.

 Excited state symmetry could not be determined.
 Excited State   2:      Triplet-?Sym    3.0574 eV  405.53 nm  f=0.0000  <S**2>=2.000
     215 -> 221       -0.10530
     216 -> 221       -0.25353
     217 -> 221       -0.15511
     217 -> 227        0.12213
     218 -> 220        0.14477
     218 -> 221        0.38712
     219 -> 224        0.29095

 Excited state symmetry could not be determined.
 Excited State   3:      Singlet-?Sym    3.4448 eV  359.92 nm  f=0.0016  <S**2>=0.000
     219 -> 220        0.70440

 Excited state symmetry could not be determined.
 Excited State   4:      Singlet-?Sym    3.6045 eV  343.97 nm  f=0.0076  <S**2>=0.000
     219 -> 221        0.69867

 Alpha  occ. eigenvalues --  -19.17815 -14.38272 -14.36765 -14.36584 -14.33225
 Alpha  occ. eigenvalues --  -10.26812 -10.26290 -10.24392 -10.24267 -10.23246
 Alpha  occ. eigenvalues --  -10.22776 -10.22754 -10.22395 -10.22331 -10.22279
 Alpha  occ. eigenvalues --  -10.22189 -10.21826 -10.21803 -10.20183 -10.20069
 Alpha  occ. eigenvalues --  -10.20028 -10.20017 -10.20017 -10.19664 -10.19350
 Alpha  occ. eigenvalues --  -10.18876 -10.18829 -10.18829 -10.18824 -10.18643
 Alpha  occ. eigenvalues --  -10.18569 -10.18562 -10.18543 -10.18539 -10.18318
 Alpha  occ. eigenvalues --  -10.18315 -10.18230 -10.18122 -10.18070 -10.18013
 Alpha  occ. eigenvalues --  -10.17996 -10.17833 -10.17786 -10.17701 -10.17643
 Alpha  occ. eigenvalues --  -10.17576 -10.17572 -10.17460 -10.17299 -10.17139
 Alpha  occ. eigenvalues --  -10.17130 -10.17129 -10.17128 -10.17126 -10.17122
 Alpha  occ. eigenvalues --  -10.17122 -10.17120 -10.17106 -10.17071 -10.17064
 Alpha  occ. eigenvalues --  -10.17032  -1.06692  -1.00665  -0.99670  -0.93971
 Alpha  occ. eigenvalues --   -0.92662  -0.86016  -0.85217  -0.85001  -0.84712
 Alpha  occ. eigenvalues --   -0.84236  -0.83834  -0.82064  -0.81191  -0.80808
 Alpha  occ. eigenvalues --   -0.79536  -0.78410  -0.78106  -0.75918  -0.75557
 Alpha  occ. eigenvalues --   -0.74574  -0.74296  -0.74212  -0.73343  -0.72318
 Alpha  occ. eigenvalues --   -0.71940  -0.71712  -0.70583  -0.69597  -0.69519
 Alpha  occ. eigenvalues --   -0.68672  -0.68227  -0.68121  -0.68045  -0.68021
 Alpha  occ. eigenvalues --   -0.68007  -0.67975  -0.67948  -0.65968  -0.65463
 Alpha  occ. eigenvalues --   -0.64356  -0.63606  -0.63082  -0.61981  -0.61162
 Alpha  occ. eigenvalues --   -0.60651  -0.60617  -0.59690  -0.58574  -0.58275
 Alpha  occ. eigenvalues --   -0.56762  -0.55599  -0.55054  -0.54758  -0.54181
 Alpha  occ. eigenvalues --   -0.52182  -0.51963  -0.51907  -0.51110  -0.50864
 Alpha  occ. eigenvalues --   -0.50659  -0.49999  -0.49677  -0.49372  -0.49033
 Alpha  occ. eigenvalues --   -0.48633  -0.48223  -0.47621  -0.46603  -0.46248
 Alpha  occ. eigenvalues --   -0.46113  -0.45915  -0.45441  -0.45070  -0.45020
 Alpha  occ. eigenvalues --   -0.44973  -0.44665  -0.44461  -0.44264  -0.44102
 Alpha  occ. eigenvalues --   -0.43727  -0.43582  -0.43470  -0.43439  -0.43265
 Alpha  occ. eigenvalues --   -0.43239  -0.42857  -0.42761  -0.42571  -0.42361
 Alpha  occ. eigenvalues --   -0.42323  -0.42234  -0.41937  -0.41530  -0.41181
 Alpha  occ. eigenvalues --   -0.40730  -0.39805  -0.39595  -0.39346  -0.39152
 Alpha  occ. eigenvalues --   -0.39091  -0.38895  -0.38740  -0.38721  -0.38398
 Alpha  occ. eigenvalues --   -0.38260  -0.37988  -0.37815  -0.37733  -0.37679
 Alpha  occ. eigenvalues --   -0.37651  -0.37370  -0.37336  -0.37264  -0.37174
 Alpha  occ. eigenvalues --   -0.36766  -0.36490  -0.36404  -0.36277  -0.36222
 Alpha  occ. eigenvalues --   -0.36208  -0.36156  -0.35596  -0.35109  -0.34717
 Alpha  occ. eigenvalues --   -0.34546  -0.34488  -0.34337  -0.34263  -0.33674
 Alpha  occ. eigenvalues --   -0.33493  -0.33265  -0.33216  -0.32966  -0.32895
 Alpha  occ. eigenvalues --   -0.32402  -0.32268  -0.32057  -0.31858  -0.31750
 Alpha  occ. eigenvalues --   -0.31420  -0.31380  -0.31270  -0.30370  -0.30093
 Alpha  occ. eigenvalues --   -0.29194  -0.27859  -0.26728  -0.26491  -0.26121
 Alpha  occ. eigenvalues --   -0.24807  -0.24489  -0.24397  -0.23080  -0.22710
 Alpha  occ. eigenvalues --   -0.20182  -0.19789  -0.19330  -0.16662
 Alpha virt. eigenvalues --   -0.02835  -0.02236  -0.01921  -0.00403  -0.00006
 Alpha virt. eigenvalues --    0.00172   0.00455   0.01072   0.03081   0.03759
 Alpha virt. eigenvalues --    0.03969   0.04917   0.07069   0.07315   0.08074

 Mulliken charges:
               1
     1  C   -0.442234
     2  C    0.016459
     3  C   -0.439344
     4  C   -0.457544
     5  C    0.167254
     6  C   -0.252527
     7  C    0.374142
     8  O   -0.591639
     9  C    0.352345
    10  C   -0.193884
    11  C   -0.205024
    12  C    0.063752
    13  C    0.066080
    14  C   -0.281423
    15  C    0.174715
    16  C    0.014582
    17  C   -0.437744
    18  C   -0.437945
    19  C   -0.453964
    20  C   -0.205114
    21  C   -0.180094
    22  C    0.318018
    23  N   -0.736624
    24  C    0.467713
    25  C   -0.232135
    26  C    0.198011
    27  C    0.014126
    28  C   -0.442116
    29  C   -0.459544
    30  C   -0.445373
    31  C   -0.209494
    32  C    0.039649
    33  N   -0.474212
    34  C    0.311822
    35  C   -0.213463
    36  C   -0.263062
    37  C    0.358856
    38  N   -0.686106
    39  C    0.060063
    40  N   -0.684835
    41  C    0.360258
    42  C   -0.269032
    43  C    0.191951
    44  C    0.015256
    45  C   -0.437972
    46  C   -0.437681
    47  C   -0.455979
    48  C   -0.285346
    49  C    0.182030
    50  C    0.016854
    51  C   -0.455927
    52  C   -0.441679
    53  C   -0.438875
    54  C   -0.254758
    55  C    0.325099
    56  C   -0.189747
    57  C   -0.148177
    58  C   -0.149184
    59  C   -0.188683
    60  C    0.323226
    61  C   -0.249207
    62  H    0.146840
    63  H    0.144704
    64  H    0.137469
    65  H    0.137198
    66  H    0.148720
    67  H    0.147206
    68  H    0.139377
    69  H    0.148481
    70  H    0.148616
    71  H    0.141903
    72  H    0.135320
    73  H    0.132539
    74  H    0.126856
    75  H    0.136657
    76  H    0.140019
    77  H    0.145992
    78  H    0.140936
    79  H    0.147943
    80  H    0.136408
    81  H    0.145655
    82  H    0.140035
    83  H    0.144640
    84  H    0.121261
    85  H    0.141449
    86  H    0.155051
    87  H    0.151327
    88  H    0.150077
    89  H    0.145251
    90  H    0.149207
    91  H    0.146878
    92  H    0.149116
    93  H    0.145865
    94  H    0.148701
    95  H    0.151417
    96  H    0.136863
    97  H    0.146144
    98  H    0.174619
    99  H    0.139925
   100  H    0.169404
   101  H    0.146055
   102  H    0.127166
   103  H    0.142235
   104  H    0.147407
   105  H    0.137909
   106  H    0.140502
   107  H    0.138393
   108  H    0.147215
   109  H    0.140134
   110  H    0.145482
   111  H    0.145627
   112  H    0.121701
   113  H    0.145195
   114  H    0.145511
   115  H    0.139813
   116  H    0.146730
   117  H    0.144242
   118  H    0.137706
   119  H    0.146660
   120  H    0.136899
   121  H    0.146684
   122  H    0.140169
   123  H    0.144321
   124  H    0.121881
   125  H    0.120958
   126  H    0.143051
   127  H    0.139713
 Sum of Mulliken charges =  -0.00000

 Dipole moment (field-independent basis, Debye):
    X=              2.4386    Y=              2.1977    Z=              0.1916  Tot=              3.2884
 Quadrupole moment (field-independent basis, Debye-Ang):
   XX=           -323.5868   YY=           -347.2886   ZZ=           -365.1948
   XY=             18.9665   XZ=              1.5563   YZ=              6.8397

 Normal termination of Gaussian 16 at Fri Nov  4 23:46:01 2022.
