 Gaussian 16, Revision B.01,
 Gaussian 16:  ES64L-G16RevB.01 20-Dec-2017

 -------------------------------------------------------------------
 #p b3lyp/6-31g(d) 6D 10F nosymm GFInput td=(50-50,nstate=2) SCF=XQC
 -------------------------------------------------------------------

 ------------------------------
 Gaussian input prepared by ASE
 ------------------------------
 Symbolic Z-matrix:
 Charge =  0 Multiplicity = 1

                          Input orientation:
 ---------------------------------------------------------------------
 Center     Atomic      Atomic             Coordinates (Angstroms)
 Number     Number       Type             X           Y           Z
 ---------------------------------------------------------------------
      1          6           0       -1.406485    7.813375   -2.928600
      2          6           0       -0.185029    7.057122   -2.370678
      3          6           0        0.964782    7.036363   -3.394380
      4          6           0       -0.564546    5.660577   -1.894705
      5          6           0       -0.984166    4.671499   -2.788124
      6          6           0       -1.359177    3.393078   -2.362290
      7          6           0       -1.821951    2.373673   -3.403307
      8          6           0       -0.764378    2.134096   -4.497644
      9          6           0       -3.173463    2.779814   -4.022855
     10          6           0       -1.322004    3.089915   -0.980282
     11          6           0       -1.785480    1.744675   -0.496433
     12          6           0       -3.121662    1.550681   -0.138344
     13          6           0       -3.595174    0.307107    0.308847
     14          6           0       -2.710079   -0.760913    0.363625
     15          6           0       -1.353128   -0.583118    0.007427
     16          6           0       -0.884297    0.660051   -0.402240
     17          7           0       -0.683520   -1.801554    0.222482
     18          6           0        0.557398   -2.235020   -0.248881
     19          6           0        1.208419   -1.595739   -1.313340
     20          6           0        2.431603   -2.098492   -1.752356
     21          8           0        3.065458   -1.531116   -2.846321
     22          6           0        3.393327   -0.188352   -2.824982
     23          6           0        3.428000    0.456570   -4.072708
     24          6           0        3.793107    1.795574   -4.151499
     25          6           0        4.132902    2.491332   -2.986326
     26          6           0        4.507104    3.863097   -2.715519
     27          6           0        4.702988    4.981562   -3.533510
     28          6           0        5.083507    6.187227   -2.950615
     29          6           0        5.265965    6.280142   -1.560875
     30          6           0        5.073712    5.181470   -0.724795
     31          6           0        4.693015    3.974987   -1.315976
     32          7           0        4.474034    2.712319   -0.728767
     33          6           0        4.672289    2.395545    0.634347
     34          6           0        5.337209    1.210082    0.990823
     35          6           0        5.520299    0.895199    2.338249
     36          6           0        6.228989   -0.384596    2.807886
     37          6           0        7.459414   -0.002079    3.664461
     38          6           0        6.708148   -1.254756    1.630986
     39          6           0        5.244952   -1.217885    3.663616
     40          6           0        5.033148    1.827585    3.271024
     41          6           0        4.423790    2.991104    2.818853
     42          7           0        4.227806    3.283259    1.526256
     43          6           0        4.115834    1.812458   -1.743009
     44          6           0        3.732924    0.471847   -1.643143
     45          6           0        3.012435   -3.228358   -1.186380
     46          6           0        2.362156   -3.896497   -0.135803
     47          6           0        3.000024   -5.164025    0.465292
     48          6           0        2.171024   -5.754384    1.621716
     49          6           0        3.120543   -6.241428   -0.639070
     50          6           0        4.409203   -4.829441    1.008104
     51          6           0        1.149963   -3.379834    0.329430
     52          6           0       -1.579534   -2.716419    0.929128
     53          7           0       -2.886026   -2.081845    0.796649
     54          6           0       -4.068745   -2.788772    1.043782
     55          6           0       -4.045081   -3.897056    1.901203
     56          6           0       -5.208181   -4.645332    2.131488
     57          6           0       -5.175962   -5.817192    3.046408
     58          6           0       -5.893996   -6.986810    2.745119
     59          6           0       -5.865253   -8.086830    3.601199
     60          6           0       -5.116562   -8.042523    4.778736
     61          6           0       -4.398022   -6.887381    5.092028
     62          6           0       -4.428081   -5.787492    4.235617
     63          6           0       -6.396980   -4.265950    1.497534
     64          6           0       -6.447147   -3.167515    0.624123
     65          6           0       -7.778796   -2.801934   -0.060708
     66          6           0       -8.277732   -4.005877   -0.894610
     67          6           0       -8.830344   -2.456121    1.020613
     68          6           0       -7.646779   -1.591026   -1.003718
     69          6           0       -5.273931   -2.443274    0.401632
     70          6           0       -0.884092    4.069264   -0.059565
     71          6           0       -0.835758    3.796337    1.443481
     72          6           0        0.485034    4.246360    2.095237
     73          6           0       -2.040838    4.439095    2.159543
     74          6           0       -0.518694    5.333028   -0.538852
     75          1           0       -1.807254    7.314771   -3.819440
     76          1           0       -1.133224    8.836901   -3.213323
     77          1           0       -2.211559    7.867923   -2.187417
     78          1           0        0.169639    7.610951   -1.490486
     79          1           0        0.670370    6.516364   -4.314042
     80          1           0        1.849288    6.531309   -2.993085
     81          1           0        1.250566    8.058785   -3.670914
     82          1           0       -1.024593    4.901096   -3.850286
     83          1           0       -1.976779    1.419058   -2.892133
     84          1           0       -0.585479    3.035575   -5.095617
     85          1           0        0.195210    1.826826   -4.067417
     86          1           0       -1.098667    1.345857   -5.183421
     87          1           0       -3.097682    3.735118   -4.556147
     88          1           0       -3.514357    2.022137   -4.739293
     89          1           0       -3.943792    2.889141   -3.251389
     90          1           0       -3.813519    2.385524   -0.200515
     91          1           0       -4.626446    0.197919    0.621797
     92          1           0        0.161893    0.821928   -0.631163
     93          1           0        0.762459   -0.758066   -1.831060
     94          1           0        3.159775   -0.111027   -4.957328
     95          1           0        3.801546    2.298932   -5.114357
     96          1           0        4.563633    4.907186   -4.608861
     97          1           0        5.238293    7.063626   -3.573696
     98          1           0        5.557329    7.230742   -1.122233
     99          1           0        5.189063    5.263202    0.348191
    100          1           0        5.720752    0.569472    0.208345
    101          1           0        7.970629   -0.906800    4.014100
    102          1           0        8.175440    0.588988    3.082439
    103          1           0        7.178871    0.583708    4.545883
    104          1           0        7.203814   -2.152340    2.016766
    105          1           0        5.875708   -1.584574    0.999297
    106          1           0        7.430829   -0.725727    0.999460
    107          1           0        5.735082   -2.132937    4.016967
    108          1           0        4.363672   -1.506792    3.079624
    109          1           0        4.897992   -0.664625    4.542598
    110          1           0        5.134518    1.661946    4.338649
    111          1           0        4.058807    3.730995    3.528828
    112          1           0        3.683157   -0.046001   -0.694153
    113          1           0        3.958061   -3.574914   -1.588081
    114          1           0        2.667152   -6.651046    2.009557
    115          1           0        1.167265   -6.049601    1.295768
    116          1           0        2.069246   -5.048445    2.454092
    117          1           0        2.134571   -6.504433   -1.038563
    118          1           0        3.738755   -5.899456   -1.475280
    119          1           0        3.578008   -7.152420   -0.234065
    120          1           0        4.878312   -5.727737    1.427832
    121          1           0        5.068894   -4.445738    0.223220
    122          1           0        4.355008   -4.073641    1.800225
    123          1           0        0.651421   -3.859637    1.160830
    124          1           0       -1.576339   -3.712375    0.467301
    125          1           0       -1.284224   -2.828618    1.989700
    126          1           0       -3.121661   -4.193215    2.387169
    127          1           0       -6.458803   -7.040274    1.818595
    128          1           0       -6.422336   -8.983732    3.342941
    129          1           0       -5.093914   -8.899768    5.446168
    130          1           0       -3.819567   -6.837727    6.010980
    131          1           0       -3.888300   -4.883191    4.503103
    132          1           0       -7.300049   -4.828632    1.710631
    133          1           0       -9.229208   -3.762406   -1.382961
    134          1           0       -8.439688   -4.893528   -0.274512
    135          1           0       -7.553619   -4.269629   -1.673903
    136          1           0       -8.505823   -1.599739    1.622677
    137          1           0       -9.006877   -3.294917    1.701720
    138          1           0       -9.788013   -2.198742    0.551697
    139          1           0       -6.934456   -1.779143   -1.814978
    140          1           0       -8.618176   -1.374374   -1.462159
    141          1           0       -7.327516   -0.688854   -0.469521
    142          1           0       -5.266218   -1.625569   -0.304668
    143          1           0       -0.914282    2.713830    1.586184
    144          1           0        0.515438    3.917729    3.141617
    145          1           0        0.589294    5.337855    2.096834
    146          1           0        1.358519    3.832131    1.581141
    147          1           0       -2.988160    4.064323    1.757163
    148          1           0       -2.033473    5.529423    2.039687
    149          1           0       -2.017039    4.217817    3.233948
    150          1           0       -0.186619    6.090773    0.167013
 ---------------------------------------------------------------------

 SCF Done:  E(RB3LYP) =  -2969.43352779     A.U. after   15 cycles

 Excitation energies and oscillator strengths:

 Excited state symmetry could not be determined.
 Excited State   1:      Triplet-?Sym    2.9379 eV  422.01 nm  f=0.0000  <S**2>=2.000
     257 -> 265        0.14854
     260 -> 265       -0.15265
     260 -> 268       -0.15279
     260 -> 269        0.10243
     263 -> 265       -0.36150
     263 -> 268        0.15303
     263 -> 269        0.41859
     263 -> 275        0.11775
 This state for optimization and/or second-order correction.
 Total Energy, E(TD-HF/TD-DFT) =  -2969.32556050
 Copying the excited state density for this state as the 1-particle RhoCI density.

 Excited state symmetry could not be determined.
 Excited State   2:      Triplet-?Sym    3.0664 eV  404.34 nm  f=0.0000  <S**2>=2.000
     257 -> 265       -0.14086
     260 -> 265        0.10374
     260 -> 268       -0.14700
     261 -> 266        0.10152
     263 -> 265        0.26998
     263 -> 267       -0.15208
     263 -> 268        0.49565

 Excited state symmetry could not be determined.
 Excited State   3:      Singlet-?Sym    3.4543 eV  358.93 nm  f=0.0331  <S**2>=0.000
     263 -> 265        0.70011

 Excited state symmetry could not be determined.
 Excited State   4:      Singlet-?Sym    3.5111 eV  353.12 nm  f=0.0053  <S**2>=0.000
     263 -> 264        0.70378

 Alpha  occ. eigenvalues --  -19.18133 -14.38152 -14.37504 -14.37185 -14.33334
 Alpha  occ. eigenvalues --  -10.26872 -10.26816 -10.24836 -10.24768 -10.23979
 Alpha  occ. eigenvalues --  -10.23476 -10.22825 -10.22773 -10.22759 -10.22713
 Alpha  occ. eigenvalues --  -10.21839 -10.21832 -10.21763 -10.20880 -10.20420
 Alpha  occ. eigenvalues --  -10.20067 -10.20033 -10.19940 -10.19905 -10.19772
 Alpha  occ. eigenvalues --  -10.19513 -10.19141 -10.19114 -10.19110 -10.19038
 Alpha  occ. eigenvalues --  -10.18998 -10.18959 -10.18782 -10.18632 -10.18603
 Alpha  occ. eigenvalues --  -10.18571 -10.18554 -10.18519 -10.18480 -10.18471
 Alpha  occ. eigenvalues --  -10.18431 -10.18377 -10.18345 -10.18327 -10.18293
 Alpha  occ. eigenvalues --  -10.18220 -10.18093 -10.18031 -10.17979 -10.17975
 Alpha  occ. eigenvalues --  -10.17944 -10.17931 -10.17916 -10.17841 -10.17794
 Alpha  occ. eigenvalues --  -10.17687 -10.17657 -10.17654 -10.17598 -10.17552
 Alpha  occ. eigenvalues --  -10.17491 -10.17465 -10.17420 -10.17408 -10.17383
 Alpha  occ. eigenvalues --  -10.17283 -10.16376 -10.16302 -10.16240 -10.16239
 Alpha  occ. eigenvalues --  -10.16104 -10.16075 -10.15968 -10.15662  -1.07083
 Alpha  occ. eigenvalues --   -1.01228  -0.99654  -0.94000  -0.93306  -0.86884
 Alpha  occ. eigenvalues --   -0.86014  -0.85503  -0.84943  -0.84707  -0.84399
 Alpha  occ. eigenvalues --   -0.83942  -0.83733  -0.81641  -0.81130  -0.79562
 Alpha  occ. eigenvalues --   -0.79307  -0.78708  -0.78297  -0.77593  -0.76297
 Alpha  occ. eigenvalues --   -0.75901  -0.75480  -0.75190  -0.74753  -0.74638
 Alpha  occ. eigenvalues --   -0.74386  -0.73485  -0.72684  -0.72045  -0.71993
 Alpha  occ. eigenvalues --   -0.70614  -0.70337  -0.70139  -0.69562  -0.69496
 Alpha  occ. eigenvalues --   -0.69043  -0.68718  -0.68483  -0.68320  -0.66853
 Alpha  occ. eigenvalues --   -0.66817  -0.66633  -0.66538  -0.65679  -0.64413
 Alpha  occ. eigenvalues --   -0.64134  -0.63626  -0.62737  -0.62258  -0.61257
 Alpha  occ. eigenvalues --   -0.61200  -0.60575  -0.60282  -0.59786  -0.59494
 Alpha  occ. eigenvalues --   -0.58793  -0.58143  -0.57863  -0.56789  -0.56655
 Alpha  occ. eigenvalues --   -0.55858  -0.54890  -0.54486  -0.53559  -0.52248
 Alpha  occ. eigenvalues --   -0.52025  -0.51935  -0.51844  -0.51493  -0.51236
 Alpha  occ. eigenvalues --   -0.50714  -0.50425  -0.50076  -0.49716  -0.49434
 Alpha  occ. eigenvalues --   -0.49415  -0.48699  -0.48018  -0.47871  -0.47118
 Alpha  occ. eigenvalues --   -0.46810  -0.46158  -0.45998  -0.45849  -0.45390
 Alpha  occ. eigenvalues --   -0.45350  -0.45253  -0.45002  -0.44896  -0.44782
 Alpha  occ. eigenvalues --   -0.44236  -0.44111  -0.44089  -0.43792  -0.43539
 Alpha  occ. eigenvalues --   -0.43422  -0.43318  -0.43199  -0.43035  -0.42953
 Alpha  occ. eigenvalues --   -0.42862  -0.42671  -0.42505  -0.42210  -0.42073
 Alpha  occ. eigenvalues --   -0.42022  -0.41897  -0.41837  -0.41618  -0.41485
 Alpha  occ. eigenvalues --   -0.40737  -0.40358  -0.40106  -0.39997  -0.39772
 Alpha  occ. eigenvalues --   -0.39713  -0.39397  -0.39243  -0.39178  -0.39024
 Alpha  occ. eigenvalues --   -0.38920  -0.38823  -0.38607  -0.38401  -0.38170
 Alpha  occ. eigenvalues --   -0.37992  -0.37958  -0.37658  -0.37542  -0.37472
 Alpha  occ. eigenvalues --   -0.37324  -0.37300  -0.37059  -0.36969  -0.36964
 Alpha  occ. eigenvalues --   -0.36931  -0.36834  -0.36681  -0.36502  -0.36077
 Alpha  occ. eigenvalues --   -0.35804  -0.35273  -0.35222  -0.34915  -0.34663
 Alpha  occ. eigenvalues --   -0.34587  -0.34525  -0.34207  -0.34056  -0.33907
 Alpha  occ. eigenvalues --   -0.33872  -0.33807  -0.33497  -0.33359  -0.33156
 Alpha  occ. eigenvalues --   -0.33054  -0.32779  -0.32641  -0.32562  -0.32469
 Alpha  occ. eigenvalues --   -0.32356  -0.32289  -0.32043  -0.31836  -0.31720
 Alpha  occ. eigenvalues --   -0.31258  -0.30785  -0.30493  -0.29686  -0.29108
 Alpha  occ. eigenvalues --   -0.28900  -0.27923  -0.26729  -0.26655  -0.26570
 Alpha  occ. eigenvalues --   -0.26312  -0.25078  -0.25024  -0.24707  -0.24485
 Alpha  occ. eigenvalues --   -0.23724  -0.22580  -0.21741  -0.21615  -0.20377
 Alpha  occ. eigenvalues --   -0.19777  -0.19731  -0.17183
 Alpha virt. eigenvalues --   -0.02939  -0.02636  -0.02097  -0.01908  -0.01233
 Alpha virt. eigenvalues --   -0.00781  -0.00180   0.00028   0.00947   0.01520
 Alpha virt. eigenvalues --    0.01829   0.02074   0.02921   0.03693   0.03917

 Mulliken charges:
               1
     1  C   -0.436053
     2  C   -0.158804
     3  C   -0.448028
     4  C    0.216216
     5  C   -0.272249
     6  C    0.175515
     7  C   -0.156528
     8  C   -0.445938
     9  C   -0.435694
    10  C   -0.098827
    11  C    0.018970
    12  C   -0.178695
    13  C   -0.187651
    14  C    0.329037
    15  C    0.342588
    16  C   -0.228887
    17  N   -0.694997
    18  C    0.370602
    19  C   -0.231025
    20  C    0.348569
    21  O   -0.590701
    22  C    0.354667
    23  C   -0.194151
    24  C   -0.202162
    25  C    0.063716
    26  C    0.059253
    27  C   -0.199165
    28  C   -0.142656
    29  C   -0.146028
    30  C   -0.154252
    31  C    0.316767
    32  N   -0.728194
    33  C    0.466229
    34  C   -0.238638
    35  C    0.199569
    36  C    0.010086
    37  C   -0.441330
    38  C   -0.465260
    39  C   -0.446110
    40  C   -0.199304
    41  C    0.038549
    42  N   -0.474018
    43  C    0.321752
    44  C   -0.245740
    45  C   -0.252273
    46  C    0.176412
    47  C    0.014628
    48  C   -0.457516
    49  C   -0.438525
    50  C   -0.446559
    51  C   -0.281443
    52  C    0.057759
    53  N   -0.688771
    54  C    0.367466
    55  C   -0.259864
    56  C    0.103004
    57  C    0.081078
    58  C   -0.172388
    59  C   -0.134536
    60  C   -0.126687
    61  C   -0.134795
    62  C   -0.173208
    63  C   -0.251552
    64  C    0.173996
    65  C    0.015277
    66  C   -0.438702
    67  C   -0.439232
    68  C   -0.459232
    69  C   -0.262890
    70  C    0.177979
    71  C   -0.155534
    72  C   -0.454665
    73  C   -0.434612
    74  C   -0.281429
    75  H    0.140926
    76  H    0.136468
    77  H    0.145637
    78  H    0.126194
    79  H    0.137184
    80  H    0.168079
    81  H    0.133136
    82  H    0.115924
    83  H    0.140782
    84  H    0.138247
    85  H    0.155265
    86  H    0.135195
    87  H    0.139410
    88  H    0.135685
    89  H    0.144289
    90  H    0.130837
    91  H    0.143729
    92  H    0.154126
    93  H    0.162190
    94  H    0.138348
    95  H    0.136230
    96  H    0.127563
    97  H    0.123046
    98  H    0.124657
    99  H    0.152569
   100  H    0.160547
   101  H    0.145253
   102  H    0.152682
   103  H    0.145716
   104  H    0.146825
   105  H    0.156750
   106  H    0.151438
   107  H    0.145389
   108  H    0.157139
   109  H    0.146125
   110  H    0.134835
   111  H    0.145687
   112  H    0.158136
   113  H    0.132307
   114  H    0.143502
   115  H    0.146307
   116  H    0.143917
   117  H    0.149362
   118  H    0.148173
   119  H    0.138955
   120  H    0.139566
   121  H    0.147440
   122  H    0.147502
   123  H    0.132249
   124  H    0.169394
   125  H    0.147817
   126  H    0.130706
   127  H    0.133021
   128  H    0.130601
   129  H    0.129511
   130  H    0.129698
   131  H    0.131245
   132  H    0.126519
   133  H    0.139242
   134  H    0.141973
   135  H    0.148020
   136  H    0.147370
   137  H    0.146097
   138  H    0.138880
   139  H    0.149486
   140  H    0.142572
   141  H    0.145801
   142  H    0.146482
   143  H    0.139467
   144  H    0.128705
   145  H    0.137855
   146  H    0.171259
   147  H    0.143904
   148  H    0.139377
   149  H    0.134562
   150  H    0.114731
 Sum of Mulliken charges =  -0.00000

 Dipole moment (field-independent basis, Debye):
    X=              1.1598    Y=             -3.5681    Z=              3.2505  Tot=              4.9640
 Quadrupole moment (field-independent basis, Debye-Ang):
   XX=           -418.3238   YY=           -426.5421   ZZ=           -424.6687
   XY=              0.2858   XZ=             18.1170   YZ=             -8.7475

 Normal termination of Gaussian 16 at Sat Nov  5 12:31:31 2022.
