 Gaussian 16, Revision B.01,
 Gaussian 16:  ES64L-G16RevB.01 20-Dec-2017

 -----------------------------
 #p b3lyp/6-31g(d) opt SCF=XQC
 -----------------------------

 ------------------------------
 Gaussian input prepared by ASE
 ------------------------------
 Symbolic Z-matrix:
 Charge =  0 Multiplicity = 1

 SCF Done:  E(RB3LYP) =  -2969.40646038     A.U. after   16 cycles
 SCF Done:  E(RB3LYP) =  -2969.41637160     A.U. after   13 cycles
 SCF Done:  E(RB3LYP) =  -2969.42292581     A.U. after   13 cycles
 SCF Done:  E(RB3LYP) =  -2969.42874602     A.U. after   14 cycles
 SCF Done:  E(RB3LYP) =  -2969.43108210     A.U. after   12 cycles
 SCF Done:  E(RB3LYP) =  -2969.43141556     A.U. after   12 cycles
 SCF Done:  E(RB3LYP) =  -2969.43126924     A.U. after   12 cycles
 SCF Done:  E(RB3LYP) =  -2969.43229822     A.U. after   11 cycles
 SCF Done:  E(RB3LYP) =  -2969.43200753     A.U. after   11 cycles
 SCF Done:  E(RB3LYP) =  -2969.43239540     A.U. after   12 cycles
 SCF Done:  E(RB3LYP) =  -2969.43351537     A.U. after   11 cycles
 SCF Done:  E(RB3LYP) =  -2969.43352646     A.U. after   10 cycles
 SCF Done:  E(RB3LYP) =  -2969.43353106     A.U. after    9 cycles
 SCF Done:  E(RB3LYP) =  -2969.43353482     A.U. after    9 cycles
 SCF Done:  E(RB3LYP) =  -2969.43353578     A.U. after    9 cycles
 SCF Done:  E(RB3LYP) =  -2969.43353625     A.U. after    9 cycles
 SCF Done:  E(RB3LYP) =  -2969.43353649     A.U. after    7 cycles
 SCF Done:  E(RB3LYP) =  -2969.43353659     A.U. after    7 cycles
 SCF Done:  E(RB3LYP) =  -2969.43353662     A.U. after    6 cycles
 SCF Done:  E(RB3LYP) =  -2969.43353664     A.U. after    6 cycles
 Optimization completed.
    -- Stationary point found.

                         Standard orientation:
 ---------------------------------------------------------------------
 Center     Atomic      Atomic             Coordinates (Angstroms)
 Number     Number       Type             X           Y           Z
 ---------------------------------------------------------------------
      1          6           0       -4.824610   -6.924494    0.650492
      2          6           0       -5.051005   -5.403416    0.751587
      3          6           0       -6.085320   -4.930240   -0.286085
      4          6           0       -3.737795   -4.637321    0.654120
      5          6           0       -2.985981   -4.620059   -0.523603
      6          6           0       -1.766660   -3.941543   -0.619514
      7          6           0       -0.998230   -3.986011   -1.940347
      8          6           0       -1.837252   -3.465327   -3.122871
      9          6           0       -0.459842   -5.401235   -2.227845
     10          6           0       -1.270131   -3.255522    0.514537
     11          6           0        0.069787   -2.577810    0.451972
     12          6           0        1.225450   -3.274926    0.812134
     13          6           0        2.495884   -2.680169    0.757995
     14          6           0        2.599238   -1.372710    0.303099
     15          6           0        1.440206   -0.650234   -0.063612
     16          6           0        0.182028   -1.235250    0.024952
     17          7           0        1.833439    0.654024   -0.415021
     18          6           0        1.139010    1.636847   -1.123387
     19          6           0        0.005211    1.333569   -1.890264
     20          6           0       -0.622817    2.358146   -2.595599
     21          8           0       -1.703174    2.077583   -3.416916
     22          6           0       -2.828866    1.478106   -2.883612
     23          6           0       -3.573907    0.675238   -3.763535
     24          6           0       -4.746523    0.070195   -3.326115
     25          6           0       -5.182698    0.272279   -2.012311
     26          6           0       -6.302794   -0.227701   -1.243866
     27          6           0       -7.379312   -1.066081   -1.554785
     28          6           0       -8.320426   -1.351712   -0.569436
     29          6           0       -8.189888   -0.807856    0.719161
     30          6           0       -7.125002    0.026897    1.054239
     31          6           0       -6.185134    0.310089    0.061025
     32          7           0       -5.049133    1.143533    0.105437
     33          6           0       -4.661531    1.944938    1.203274
     34          6           0       -4.254356    3.273510    0.994425
     35          6           0       -3.860947    4.057722    2.079999
     36          6           0       -3.395303    5.514471    1.932569
     37          6           0       -4.321579    6.433397    2.764178
     38          6           0       -3.422952    5.993345    0.469088
     39          6           0       -1.944866    5.633339    2.458948
     40          6           0       -3.925811    3.451253    3.346774
     41          6           0       -4.379639    2.142858    3.454911
     42          7           0       -4.736042    1.382427    2.411220
     43          6           0       -4.428363    1.107206   -1.151571
     44          6           0       -3.237231    1.707905   -1.568939
     45          6           0       -0.145069    3.664253   -2.584070
     46          6           0        1.004322    3.981322   -1.841539
     47          6           0        1.542141    5.425375   -1.858289
     48          6           0        2.790046    5.604252   -0.972956
     49          6           0        1.923147    5.805881   -3.309146
     50          6           0        0.449235    6.393072   -1.346921
     51          6           0        1.621343    2.964733   -1.107626
     52          6           0        3.241903    0.834910   -0.064769
     53          7           0        3.708221   -0.525177    0.179907
     54          6           0        5.073437   -0.832227    0.219292
     55          6           0        5.997331    0.167701    0.551835
     56          6           0        7.372496   -0.105498    0.557550
     57          6           0        8.346234    0.959687    0.916142
     58          6           0        9.566529    1.081307    0.230253
     59          6           0       10.480995    2.079197    0.564479
     60          6           0       10.195420    2.979459    1.592618
     61          6           0        8.987240    2.871314    2.283568
     62          6           0        8.073714    1.872466    1.949096
     63          6           0        7.810651   -1.394462    0.232491
     64          6           0        6.908355   -2.412341   -0.116372
     65          6           0        7.444785   -3.810535   -0.481380
     66          6           0        8.410237   -3.694801   -1.684840
     67          6           0        8.205397   -4.397669    0.731607
     68          6           0        6.322502   -4.794091   -0.863600
     69          6           0        5.543950   -2.114380   -0.125523
     70          6           0       -2.022023   -3.244546    1.711679
     71          6           0       -1.525618   -2.528297    2.967283
     72          6           0       -2.608257   -1.657666    3.631882
     73          6           0       -0.940034   -3.533071    3.980011
     74          6           0       -3.237111   -3.938895    1.753777
     75          1           0       -4.413978   -7.198978   -0.328719
     76          1           0       -5.768778   -7.467559    0.780764
     77          1           0       -4.121555   -7.272441    1.415422
     78          1           0       -5.468554   -5.199436    1.747226
     79          1           0       -5.742079   -5.126372   -1.309106
     80          1           0       -6.278406   -3.856248   -0.198189
     81          1           0       -7.035690   -5.461018   -0.149846
     82          1           0       -3.356949   -5.153530   -1.395571
     83          1           0       -0.131397   -3.325453   -1.846408
     84          1           0       -2.705566   -4.105379   -3.319348
     85          1           0       -2.209086   -2.452003   -2.935167
     86          1           0       -1.232118   -3.442549   -4.037559
     87          1           0       -1.276473   -6.125372   -2.335033
     88          1           0        0.122390   -5.412609   -3.157599
     89          1           0        0.189014   -5.748584   -1.416148
     90          1           0        1.140184   -4.303526    1.150078
     91          1           0        3.369143   -3.231028    1.085642
     92          1           0       -0.717605   -0.678129   -0.206133
     93          1           0       -0.360863    0.321020   -1.986932
     94          1           0       -3.209161    0.539153   -4.776009
     95          1           0       -5.312341   -0.565799   -4.001318
     96          1           0       -7.479948   -1.484073   -2.553027
     97          1           0       -9.160736   -2.001643   -0.796883
     98          1           0       -8.930641   -1.046281    1.477699
     99          1           0       -7.012903    0.422607    2.055305
    100          1           0       -4.277013    3.676317   -0.009065
    101          1           0       -3.995537    7.476414    2.675174
    102          1           0       -5.357350    6.370272    2.412045
    103          1           0       -4.312000    6.170955    3.827093
    104          1           0       -3.082355    7.033282    0.417199
    105          1           0       -2.760786    5.398170   -0.169717
    106          1           0       -4.433324    5.956727    0.046272
    107          1           0       -1.596167    6.669228    2.370930
    108          1           0       -1.264599    4.994537    1.884198
    109          1           0       -1.867199    5.343622    3.512096
    110          1           0       -3.639419    3.989575    4.244396
    111          1           0       -4.453342    1.666493    4.430801
    112          1           0       -2.635755    2.319136   -0.908751
    113          1           0       -0.673207    4.408849   -3.169152
    114          1           0        3.130176    6.644641   -1.022634
    115          1           0        3.620668    4.971119   -1.304829
    116          1           0        2.581664    5.375940    0.078713
    117          1           0        2.702629    5.140120   -3.696544
    118          1           0        1.064416    5.742695   -3.985139
    119          1           0        2.304128    6.833853   -3.345717
    120          1           0        0.816903    7.426334   -1.365934
    121          1           0       -0.454839    6.350528   -1.962796
    122          1           0        0.164570    6.153429   -0.315823
    123          1           0        2.486822    3.196436   -0.501621
    124          1           0        3.799806    1.300965   -0.887423
    125          1           0        3.354017    1.473950    0.831705
    126          1           0        5.656474    1.167638    0.797844
    127          1           0        9.786548    0.401640   -0.588257
    128          1           0       11.415027    2.158633    0.014254
    129          1           0       10.907955    3.757389    1.853325
    130          1           0        8.758391    3.560379    3.092497
    131          1           0        7.149072    1.779385    2.512166
    132          1           0        8.874050   -1.606314    0.275561
    133          1           0        8.805626   -4.682429   -1.951912
    134          1           0        9.262452   -3.043914   -1.464046
    135          1           0        7.895602   -3.286326   -2.562053
    136          1           0        7.542153   -4.498335    1.598302
    137          1           0        9.049295   -3.766723    1.028917
    138          1           0        8.600339   -5.391709    0.488373
    139          1           0        5.758138   -4.451971   -1.738462
    140          1           0        6.756829   -5.768820   -1.112557
    141          1           0        5.616602   -4.950133   -0.039849
    142          1           0        4.827479   -2.859531   -0.440136
    143          1           0       -0.712226   -1.859817    2.667482
    144          1           0       -2.167545   -1.074859    4.450382
    145          1           0       -3.412446   -2.264485    4.064645
    146          1           0       -3.066170   -0.959909    2.923144
    147          1           0       -0.113643   -4.102920    3.541680
    148          1           0       -1.703164   -4.248710    4.309752
    149          1           0       -0.560072   -3.012317    4.867884
    150          1           0       -3.815612   -3.937369    2.674663
 ---------------------------------------------------------------------

 The electronic state is 1-A.
 Alpha  occ. eigenvalues --  -19.18133 -14.38152 -14.37505 -14.37185 -14.33334
 Alpha  occ. eigenvalues --  -10.26872 -10.26816 -10.24836 -10.24768 -10.23980
 Alpha  occ. eigenvalues --  -10.23476 -10.22825 -10.22773 -10.22760 -10.22713
 Alpha  occ. eigenvalues --  -10.21839 -10.21832 -10.21763 -10.20880 -10.20420
 Alpha  occ. eigenvalues --  -10.20067 -10.20033 -10.19940 -10.19905 -10.19772
 Alpha  occ. eigenvalues --  -10.19513 -10.19141 -10.19114 -10.19110 -10.19038
 Alpha  occ. eigenvalues --  -10.18998 -10.18959 -10.18782 -10.18632 -10.18603
 Alpha  occ. eigenvalues --  -10.18571 -10.18554 -10.18519 -10.18480 -10.18471
 Alpha  occ. eigenvalues --  -10.18431 -10.18377 -10.18345 -10.18327 -10.18293
 Alpha  occ. eigenvalues --  -10.18220 -10.18092 -10.18031 -10.17979 -10.17975
 Alpha  occ. eigenvalues --  -10.17944 -10.17931 -10.17916 -10.17841 -10.17794
 Alpha  occ. eigenvalues --  -10.17687 -10.17657 -10.17654 -10.17598 -10.17552
 Alpha  occ. eigenvalues --  -10.17491 -10.17465 -10.17420 -10.17409 -10.17383
 Alpha  occ. eigenvalues --  -10.17283 -10.16376 -10.16302 -10.16240 -10.16239
 Alpha  occ. eigenvalues --  -10.16104 -10.16075 -10.15968 -10.15662  -1.07083
 Alpha  occ. eigenvalues --   -1.01228  -0.99654  -0.93999  -0.93306  -0.86884
 Alpha  occ. eigenvalues --   -0.86014  -0.85503  -0.84943  -0.84707  -0.84399
 Alpha  occ. eigenvalues --   -0.83942  -0.83733  -0.81641  -0.81130  -0.79562
 Alpha  occ. eigenvalues --   -0.79307  -0.78708  -0.78297  -0.77593  -0.76297
 Alpha  occ. eigenvalues --   -0.75901  -0.75480  -0.75190  -0.74753  -0.74638
 Alpha  occ. eigenvalues --   -0.74386  -0.73485  -0.72684  -0.72045  -0.71993
 Alpha  occ. eigenvalues --   -0.70614  -0.70337  -0.70139  -0.69562  -0.69496
 Alpha  occ. eigenvalues --   -0.69043  -0.68718  -0.68483  -0.68320  -0.66853
 Alpha  occ. eigenvalues --   -0.66817  -0.66633  -0.66538  -0.65679  -0.64413
 Alpha  occ. eigenvalues --   -0.64134  -0.63626  -0.62737  -0.62258  -0.61257
 Alpha  occ. eigenvalues --   -0.61200  -0.60575  -0.60282  -0.59786  -0.59494
 Alpha  occ. eigenvalues --   -0.58793  -0.58143  -0.57863  -0.56789  -0.56655
 Alpha  occ. eigenvalues --   -0.55858  -0.54890  -0.54486  -0.53559  -0.52248
 Alpha  occ. eigenvalues --   -0.52025  -0.51935  -0.51844  -0.51493  -0.51236
 Alpha  occ. eigenvalues --   -0.50714  -0.50425  -0.50076  -0.49716  -0.49434
 Alpha  occ. eigenvalues --   -0.49415  -0.48699  -0.48018  -0.47871  -0.47118
 Alpha  occ. eigenvalues --   -0.46810  -0.46158  -0.45998  -0.45849  -0.45390
 Alpha  occ. eigenvalues --   -0.45350  -0.45253  -0.45002  -0.44896  -0.44782
 Alpha  occ. eigenvalues --   -0.44236  -0.44111  -0.44089  -0.43792  -0.43539
 Alpha  occ. eigenvalues --   -0.43422  -0.43318  -0.43199  -0.43035  -0.42953
 Alpha  occ. eigenvalues --   -0.42862  -0.42671  -0.42505  -0.42210  -0.42073
 Alpha  occ. eigenvalues --   -0.42022  -0.41897  -0.41837  -0.41618  -0.41485
 Alpha  occ. eigenvalues --   -0.40737  -0.40358  -0.40106  -0.39997  -0.39772
 Alpha  occ. eigenvalues --   -0.39713  -0.39397  -0.39243  -0.39178  -0.39024
 Alpha  occ. eigenvalues --   -0.38920  -0.38823  -0.38607  -0.38401  -0.38170
 Alpha  occ. eigenvalues --   -0.37992  -0.37958  -0.37658  -0.37542  -0.37472
 Alpha  occ. eigenvalues --   -0.37324  -0.37300  -0.37059  -0.36969  -0.36964
 Alpha  occ. eigenvalues --   -0.36931  -0.36834  -0.36681  -0.36502  -0.36077
 Alpha  occ. eigenvalues --   -0.35804  -0.35273  -0.35222  -0.34915  -0.34663
 Alpha  occ. eigenvalues --   -0.34587  -0.34525  -0.34207  -0.34056  -0.33907
 Alpha  occ. eigenvalues --   -0.33872  -0.33807  -0.33497  -0.33359  -0.33156
 Alpha  occ. eigenvalues --   -0.33054  -0.32779  -0.32641  -0.32562  -0.32469
 Alpha  occ. eigenvalues --   -0.32356  -0.32289  -0.32043  -0.31836  -0.31720
 Alpha  occ. eigenvalues --   -0.31258  -0.30785  -0.30493  -0.29686  -0.29108
 Alpha  occ. eigenvalues --   -0.28900  -0.27923  -0.26729  -0.26655  -0.26570
 Alpha  occ. eigenvalues --   -0.26312  -0.25078  -0.25024  -0.24707  -0.24485
 Alpha  occ. eigenvalues --   -0.23724  -0.22580  -0.21741  -0.21615  -0.20377
 Alpha  occ. eigenvalues --   -0.19778  -0.19731  -0.17183
 Alpha virt. eigenvalues --   -0.02939  -0.02636  -0.02097  -0.01908  -0.01233
 Alpha virt. eigenvalues --   -0.00781  -0.00180   0.00028   0.00947   0.01520
 Alpha virt. eigenvalues --    0.01828   0.02074   0.02921   0.03693   0.03917

 Mulliken charges:
               1
     1  C   -0.436053
     2  C   -0.158818
     3  C   -0.448024
     4  C    0.216230
     5  C   -0.272230
     6  C    0.175502
     7  C   -0.156536
     8  C   -0.445920
     9  C   -0.435700
    10  C   -0.098853
    11  C    0.018961
    12  C   -0.178696
    13  C   -0.187647
    14  C    0.329019
    15  C    0.342599
    16  C   -0.228881
    17  N   -0.694995
    18  C    0.370611
    19  C   -0.231053
    20  C    0.348585
    21  O   -0.590699
    22  C    0.354665
    23  C   -0.194141
    24  C   -0.202170
    25  C    0.063734
    26  C    0.059223
    27  C   -0.199161
    28  C   -0.142652
    29  C   -0.146030
    30  C   -0.154258
    31  C    0.316799
    32  N   -0.728217
    33  C    0.466278
    34  C   -0.238647
    35  C    0.199584
    36  C    0.010057
    37  C   -0.441327
    38  C   -0.465268
    39  C   -0.446099
    40  C   -0.199291
    41  C    0.038527
    42  N   -0.474015
    43  C    0.321733
    44  C   -0.245755
    45  C   -0.252268
    46  C    0.176430
    47  C    0.014568
    48  C   -0.457501
    49  C   -0.438510
    50  C   -0.446545
    51  C   -0.281448
    52  C    0.057762
    53  N   -0.688757
    54  C    0.367451
    55  C   -0.259862
    56  C    0.103003
    57  C    0.081077
    58  C   -0.172391
    59  C   -0.134535
    60  C   -0.126690
    61  C   -0.134796
    62  C   -0.173202
    63  C   -0.251565
    64  C    0.174015
    65  C    0.015249
    66  C   -0.438686
    67  C   -0.439215
    68  C   -0.459248
    69  C   -0.262878
    70  C    0.178028
    71  C   -0.155570
    72  C   -0.454649
    73  C   -0.434608
    74  C   -0.281458
    75  H    0.140928
    76  H    0.136469
    77  H    0.145636
    78  H    0.126195
    79  H    0.137182
    80  H    0.168081
    81  H    0.133136
    82  H    0.115923
    83  H    0.140787
    84  H    0.138246
    85  H    0.155259
    86  H    0.135191
    87  H    0.139411
    88  H    0.135688
    89  H    0.144291
    90  H    0.130840
    91  H    0.143733
    92  H    0.154132
    93  H    0.162187
    94  H    0.138349
    95  H    0.136229
    96  H    0.127563
    97  H    0.123046
    98  H    0.124656
    99  H    0.152572
   100  H    0.160547
   101  H    0.145254
   102  H    0.152683
   103  H    0.145717
   104  H    0.146826
   105  H    0.156753
   106  H    0.151441
   107  H    0.145389
   108  H    0.157134
   109  H    0.146124
   110  H    0.134833
   111  H    0.145685
   112  H    0.158145
   113  H    0.132303
   114  H    0.143502
   115  H    0.146306
   116  H    0.143918
   117  H    0.149363
   118  H    0.148171
   119  H    0.138956
   120  H    0.139566
   121  H    0.147438
   122  H    0.147502
   123  H    0.132250
   124  H    0.169390
   125  H    0.147816
   126  H    0.130703
   127  H    0.133023
   128  H    0.130601
   129  H    0.129511
   130  H    0.129699
   131  H    0.131244
   132  H    0.126522
   133  H    0.139241
   134  H    0.141971
   135  H    0.148018
   136  H    0.147368
   137  H    0.146093
   138  H    0.138878
   139  H    0.149493
   140  H    0.142577
   141  H    0.145801
   142  H    0.146479
   143  H    0.139466
   144  H    0.128705
   145  H    0.137853
   146  H    0.171260
   147  H    0.143906
   148  H    0.139378
   149  H    0.134562
   150  H    0.114731
 Sum of Mulliken charges =  -0.00000

 Dipole moment (field-independent basis, Debye):
    X=              2.3232    Y=              4.1485    Z=              1.4262  Tot=              4.9640
 Quadrupole moment (field-independent basis, Debye-Ang):
   XX=           -424.8520   YY=           -410.6401   ZZ=           -433.9985
   XY=             -1.8529   XZ=             -6.4112   YZ=             15.1811

 Normal termination of Gaussian 16 at Sat Nov  5 06:54:48 2022.
