 Gaussian 16, Revision B.01,
 Gaussian 16:  ES64L-G16RevB.01 20-Dec-2017

 -----------------------------
 #p b3lyp/6-31g(d) opt SCF=XQC
 -----------------------------

 ------------------------------
 Gaussian input prepared by ASE
 ------------------------------
 Symbolic Z-matrix:
 Charge =  0 Multiplicity = 1

 SCF Done:  E(RB3LYP) =  -2467.98617865     A.U. after   16 cycles
 SCF Done:  E(RB3LYP) =  -2467.99912946     A.U. after   13 cycles
 SCF Done:  E(RB3LYP) =  -2468.00221482     A.U. after   12 cycles
 SCF Done:  E(RB3LYP) =  -2468.00315094     A.U. after   12 cycles
 SCF Done:  E(RB3LYP) =  -2468.00334466     A.U. after   11 cycles
 SCF Done:  E(RB3LYP) =  -2468.00345997     A.U. after   11 cycles
 SCF Done:  E(RB3LYP) =  -2468.00350937     A.U. after   11 cycles
 SCF Done:  E(RB3LYP) =  -2468.00353306     A.U. after   10 cycles
 SCF Done:  E(RB3LYP) =  -2468.00355597     A.U. after   10 cycles
 SCF Done:  E(RB3LYP) =  -2468.00358190     A.U. after   10 cycles
 SCF Done:  E(RB3LYP) =  -2468.00360703     A.U. after    7 cycles
 SCF Done:  E(RB3LYP) =  -2468.00360727     A.U. after    7 cycles
 SCF Done:  E(RB3LYP) =  -2468.00360742     A.U. after    7 cycles
 SCF Done:  E(RB3LYP) =  -2468.00360752     A.U. after    7 cycles
 SCF Done:  E(RB3LYP) =  -2468.00360768     A.U. after    7 cycles
 SCF Done:  E(RB3LYP) =  -2468.00360777     A.U. after    9 cycles
 SCF Done:  E(RB3LYP) =  -2468.00360784     A.U. after    7 cycles
 SCF Done:  E(RB3LYP) =  -2468.00360788     A.U. after    7 cycles
 SCF Done:  E(RB3LYP) =  -2468.00360788     A.U. after    6 cycles
 SCF Done:  E(RB3LYP) =  -2468.00360789     A.U. after    5 cycles
 Optimization completed.
    -- Stationary point found.

                         Standard orientation:
 ---------------------------------------------------------------------
 Center     Atomic      Atomic             Coordinates (Angstroms)
 Number     Number       Type             X           Y           Z
 ---------------------------------------------------------------------
      1          6           0       -0.465308    4.099847    2.382969
      2          6           0       -0.334787    2.790223    3.196061
      3          6           0        0.643176    3.013621    4.374058
      4          6           0       -1.719429    2.452726    3.781170
      5          6           0        0.206030    1.670331    2.284182
      6          6           0       -0.495910    0.475690    2.082786
      7          6           0        0.052217   -0.520569    1.270499
      8          8           0       -0.553835   -1.750609    1.100579
      9          6           0       -1.926337   -1.853353    0.957608
     10          6           0       -2.522122   -2.976832    1.554876
     11          6           0       -3.881649   -3.210289    1.390557
     12          6           0       -4.648365   -2.313953    0.638024
     13          6           0       -6.051841   -2.255727    0.288816
     14          6           0       -7.133698   -3.103671    0.554072
     15          6           0       -8.400734   -2.821965    0.037235
     16          6           0       -9.626891   -3.716238    0.300475
     17          6           0      -10.727005   -2.890216    1.008854
     18          6           0      -10.176477   -4.253565   -1.042527
     19          6           0       -9.288488   -4.924356    1.194347
     20          6           0       -8.540069   -1.669318   -0.768612
     21          6           0       -7.484077   -0.806043   -1.046787
     22          6           0       -6.233347   -1.093872   -0.494153
     23          7           0       -4.998507   -0.432490   -0.628833
     24          6           0       -4.785368    0.816944   -1.252501
     25          6           0       -5.727400    1.845371   -1.118519
     26          6           0       -5.518378    3.073508   -1.757721
     27          6           0       -6.550545    4.204268   -1.615841
     28          6           0       -6.678671    4.592260   -0.123331
     29          6           0       -6.147942    5.460109   -2.411511
     30          6           0       -7.921800    3.715271   -2.139361
     31          6           0       -4.329993    3.203334   -2.489248
     32          6           0       -3.434056    2.136359   -2.526217
     33          7           0       -3.643610    0.956744   -1.936462
     34          6           0       -4.022304   -1.189764    0.044450
     35          6           0       -2.655039   -0.946403    0.188357
     36          6           0        1.281680   -0.355025    0.642859
     37          6           0        1.996122    0.839927    0.835411
     38          7           0        3.247019    0.993555    0.231229
     39          6           0        4.052961   -0.159885   -0.160117
     40          7           0        5.372523    0.421326   -0.385776
     41          6           0        6.523635   -0.373568   -0.462599
     42          6           0        6.412566   -1.720919   -0.838912
     43          6           0        7.536638   -2.553110   -0.895315
     44          6           0        7.362889   -4.026210   -1.317258
     45          6           0        6.768191   -4.089274   -2.744479
     46          6           0        6.404245   -4.735501   -0.331395
     47          6           0        8.695537   -4.799399   -1.323577
     48          6           0        8.785642   -2.005302   -0.573292
     49          6           0        8.928823   -0.664843   -0.183135
     50          6           0       10.293312   -0.060321    0.206871
     51          6           0       11.449826   -1.067468    0.058044
     52          6           0       10.600249    1.155046   -0.699920
     53          6           0       10.248395    0.401843    1.683045
     54          6           0        7.786116    0.138394   -0.124612
     55          6           0        5.242300    1.811388   -0.510263
     56          6           0        6.128159    2.774153   -0.978550
     57          6           0        5.695629    4.109780   -1.043450
     58          6           0        4.402501    4.458897   -0.670560
     59          6           0        3.495728    3.484642   -0.218498
     60          6           0        3.926869    2.166902   -0.129475
     61          6           0        1.450815    1.836927    1.661162
     62          1           0       -1.152317    3.970172    1.538855
     63          1           0        0.498932    4.430120    1.982687
     64          1           0       -0.854443    4.905169    3.018139
     65          1           0        0.271374    3.808838    5.032002
     66          1           0        0.750776    2.100964    4.971101
     67          1           0        1.640047    3.305690    4.028240
     68          1           0       -2.064608    3.280923    4.410400
     69          1           0       -2.467869    2.298456    2.995733
     70          1           0       -1.690201    1.553946    4.407185
     71          1           0       -1.453459    0.296548    2.552836
     72          1           0       -1.897022   -3.650216    2.131710
     73          1           0       -4.344066   -4.078925    1.851461
     74          1           0       -6.967480   -3.987906    1.159616
     75          1           0      -11.611051   -3.511802    1.198053
     76          1           0      -11.045849   -2.033536    0.405695
     77          1           0      -10.369060   -2.506023    1.970930
     78          1           0      -10.479706   -3.443031   -1.713585
     79          1           0       -9.419973   -4.851723   -1.563079
     80          1           0      -11.054213   -4.888925   -0.870437
     81          1           0       -8.536025   -5.574479    0.733623
     82          1           0      -10.189218   -5.526898    1.357668
     83          1           0       -8.916735   -4.612741    2.177168
     84          1           0       -9.508656   -1.437530   -1.202175
     85          1           0       -7.638872    0.049814   -1.694208
     86          1           0       -6.599464    1.684654   -0.496444
     87          1           0       -5.721052    4.946544    0.274490
     88          1           0       -7.005767    3.747787    0.492023
     89          1           0       -7.414425    5.396562   -0.004781
     90          1           0       -6.058013    5.252216   -3.483746
     91          1           0       -6.912971    6.234455   -2.288096
     92          1           0       -5.197245    5.877983   -2.061779
     93          1           0       -8.667718    4.513386   -2.045860
     94          1           0       -8.289419    2.850528   -1.577006
     95          1           0       -7.861255    3.429692   -3.195709
     96          1           0       -4.083307    4.117271   -3.015732
     97          1           0       -2.495254    2.231585   -3.069464
     98          1           0       -2.173731   -0.111806   -0.301366
     99          1           0        1.648634   -1.149111    0.003308
    100          1           0        4.081045   -0.914964    0.636055
    101          1           0        3.655246   -0.639824   -1.075796
    102          1           0        5.438913   -2.116207   -1.108201
    103          1           0        5.790003   -3.600696   -2.802567
    104          1           0        7.429983   -3.596995   -3.466185
    105          1           0        6.638387   -5.132458   -3.058058
    106          1           0        5.416086   -4.264254   -0.311133
    107          1           0        6.266574   -5.784612   -0.620721
    108          1           0        6.805066   -4.713809    0.688456
    109          1           0        8.516858   -5.837437   -1.626172
    110          1           0        9.160608   -4.820047   -0.331524
    111          1           0        9.414293   -4.369124   -2.030047
    112          1           0        9.662566   -2.634634   -0.620298
    113          1           0       11.552379   -1.421966   -0.973889
    114          1           0       11.319050   -1.939582    0.708467
    115          1           0       12.394112   -0.586873    0.338046
    116          1           0       10.636938    0.858284   -1.754396
    117          1           0        9.844427    1.941032   -0.599402
    118          1           0       11.570818    1.592855   -0.435863
    119          1           0        9.475240    1.158818    1.850447
    120          1           0       11.211610    0.837540    1.976338
    121          1           0       10.039552   -0.441864    2.350701
    122          1           0        7.859337    1.161729    0.221916
    123          1           0        7.121731    2.502687   -1.314387
    124          1           0        6.382682    4.869687   -1.404542
    125          1           0        4.075503    5.492436   -0.739295
    126          1           0        2.476246    3.757099    0.025915
    127          1           0        2.030795    2.730627    1.850629
 ---------------------------------------------------------------------

 The electronic state is 1-A.
 Alpha  occ. eigenvalues --  -19.17815 -14.38272 -14.36765 -14.36584 -14.33225
 Alpha  occ. eigenvalues --  -10.26812 -10.26290 -10.24392 -10.24267 -10.23246
 Alpha  occ. eigenvalues --  -10.22776 -10.22754 -10.22395 -10.22331 -10.22279
 Alpha  occ. eigenvalues --  -10.22189 -10.21826 -10.21803 -10.20183 -10.20069
 Alpha  occ. eigenvalues --  -10.20028 -10.20017 -10.20017 -10.19664 -10.19350
 Alpha  occ. eigenvalues --  -10.18876 -10.18829 -10.18829 -10.18824 -10.18643
 Alpha  occ. eigenvalues --  -10.18569 -10.18562 -10.18543 -10.18539 -10.18318
 Alpha  occ. eigenvalues --  -10.18315 -10.18230 -10.18122 -10.18070 -10.18013
 Alpha  occ. eigenvalues --  -10.17996 -10.17834 -10.17786 -10.17701 -10.17643
 Alpha  occ. eigenvalues --  -10.17576 -10.17572 -10.17460 -10.17299 -10.17139
 Alpha  occ. eigenvalues --  -10.17130 -10.17129 -10.17128 -10.17126 -10.17122
 Alpha  occ. eigenvalues --  -10.17122 -10.17120 -10.17106 -10.17071 -10.17064
 Alpha  occ. eigenvalues --  -10.17032  -1.06692  -1.00664  -0.99670  -0.93971
 Alpha  occ. eigenvalues --   -0.92662  -0.86016  -0.85217  -0.85001  -0.84712
 Alpha  occ. eigenvalues --   -0.84236  -0.83834  -0.82064  -0.81191  -0.80808
 Alpha  occ. eigenvalues --   -0.79536  -0.78410  -0.78106  -0.75918  -0.75557
 Alpha  occ. eigenvalues --   -0.74574  -0.74296  -0.74212  -0.73343  -0.72318
 Alpha  occ. eigenvalues --   -0.71940  -0.71712  -0.70583  -0.69597  -0.69519
 Alpha  occ. eigenvalues --   -0.68672  -0.68227  -0.68121  -0.68045  -0.68021
 Alpha  occ. eigenvalues --   -0.68007  -0.67975  -0.67948  -0.65968  -0.65463
 Alpha  occ. eigenvalues --   -0.64356  -0.63606  -0.63082  -0.61981  -0.61162
 Alpha  occ. eigenvalues --   -0.60651  -0.60617  -0.59690  -0.58574  -0.58275
 Alpha  occ. eigenvalues --   -0.56762  -0.55599  -0.55054  -0.54758  -0.54181
 Alpha  occ. eigenvalues --   -0.52182  -0.51963  -0.51907  -0.51110  -0.50864
 Alpha  occ. eigenvalues --   -0.50659  -0.49998  -0.49677  -0.49372  -0.49033
 Alpha  occ. eigenvalues --   -0.48633  -0.48223  -0.47621  -0.46603  -0.46248
 Alpha  occ. eigenvalues --   -0.46113  -0.45915  -0.45441  -0.45070  -0.45020
 Alpha  occ. eigenvalues --   -0.44973  -0.44665  -0.44461  -0.44264  -0.44102
 Alpha  occ. eigenvalues --   -0.43727  -0.43582  -0.43470  -0.43439  -0.43265
 Alpha  occ. eigenvalues --   -0.43239  -0.42857  -0.42761  -0.42571  -0.42361
 Alpha  occ. eigenvalues --   -0.42323  -0.42234  -0.41937  -0.41530  -0.41181
 Alpha  occ. eigenvalues --   -0.40730  -0.39805  -0.39595  -0.39346  -0.39152
 Alpha  occ. eigenvalues --   -0.39091  -0.38895  -0.38740  -0.38721  -0.38398
 Alpha  occ. eigenvalues --   -0.38260  -0.37988  -0.37815  -0.37733  -0.37679
 Alpha  occ. eigenvalues --   -0.37651  -0.37370  -0.37336  -0.37264  -0.37174
 Alpha  occ. eigenvalues --   -0.36766  -0.36490  -0.36404  -0.36277  -0.36222
 Alpha  occ. eigenvalues --   -0.36208  -0.36156  -0.35596  -0.35109  -0.34717
 Alpha  occ. eigenvalues --   -0.34546  -0.34488  -0.34337  -0.34263  -0.33674
 Alpha  occ. eigenvalues --   -0.33493  -0.33265  -0.33216  -0.32966  -0.32895
 Alpha  occ. eigenvalues --   -0.32402  -0.32268  -0.32057  -0.31858  -0.31750
 Alpha  occ. eigenvalues --   -0.31420  -0.31380  -0.31270  -0.30370  -0.30093
 Alpha  occ. eigenvalues --   -0.29194  -0.27859  -0.26728  -0.26491  -0.26121
 Alpha  occ. eigenvalues --   -0.24807  -0.24489  -0.24397  -0.23080  -0.22710
 Alpha  occ. eigenvalues --   -0.20182  -0.19789  -0.19330  -0.16662
 Alpha virt. eigenvalues --   -0.02835  -0.02236  -0.01921  -0.00403  -0.00005
 Alpha virt. eigenvalues --    0.00172   0.00455   0.01072   0.03081   0.03759
 Alpha virt. eigenvalues --    0.03970   0.04917   0.07069   0.07315   0.08074

 Mulliken charges:
               1
     1  C   -0.442238
     2  C    0.016476
     3  C   -0.439321
     4  C   -0.457543
     5  C    0.167241
     6  C   -0.252544
     7  C    0.374147
     8  O   -0.591637
     9  C    0.352339
    10  C   -0.193884
    11  C   -0.205016
    12  C    0.063731
    13  C    0.066067
    14  C   -0.281415
    15  C    0.174729
    16  C    0.014567
    17  C   -0.437736
    18  C   -0.437945
    19  C   -0.453964
    20  C   -0.205124
    21  C   -0.180088
    22  C    0.318027
    23  N   -0.736656
    24  C    0.467760
    25  C   -0.232139
    26  C    0.198021
    27  C    0.014113
    28  C   -0.442122
    29  C   -0.459526
    30  C   -0.445382
    31  C   -0.209492
    32  C    0.039622
    33  N   -0.474216
    34  C    0.311861
    35  C   -0.213464
    36  C   -0.263055
    37  C    0.358857
    38  N   -0.686104
    39  C    0.060063
    40  N   -0.684852
    41  C    0.360267
    42  C   -0.269050
    43  C    0.191975
    44  C    0.015241
    45  C   -0.437956
    46  C   -0.437682
    47  C   -0.455984
    48  C   -0.285347
    49  C    0.182056
    50  C    0.016860
    51  C   -0.455944
    52  C   -0.441680
    53  C   -0.438876
    54  C   -0.254784
    55  C    0.325114
    56  C   -0.189751
    57  C   -0.148170
    58  C   -0.149187
    59  C   -0.188691
    60  C    0.323228
    61  C   -0.249208
    62  H    0.146841
    63  H    0.144705
    64  H    0.137469
    65  H    0.137193
    66  H    0.148716
    67  H    0.147200
    68  H    0.139377
    69  H    0.148476
    70  H    0.148617
    71  H    0.141902
    72  H    0.135321
    73  H    0.132539
    74  H    0.126857
    75  H    0.136655
    76  H    0.140018
    77  H    0.145992
    78  H    0.140936
    79  H    0.147943
    80  H    0.136409
    81  H    0.145656
    82  H    0.140036
    83  H    0.144640
    84  H    0.121262
    85  H    0.141450
    86  H    0.155052
    87  H    0.151330
    88  H    0.150077
    89  H    0.145252
    90  H    0.149203
    91  H    0.146875
    92  H    0.149112
    93  H    0.145867
    94  H    0.148702
    95  H    0.151420
    96  H    0.136864
    97  H    0.146144
    98  H    0.174610
    99  H    0.139925
   100  H    0.169403
   101  H    0.146055
   102  H    0.127165
   103  H    0.142233
   104  H    0.147404
   105  H    0.137906
   106  H    0.140505
   107  H    0.138394
   108  H    0.147214
   109  H    0.140138
   110  H    0.145483
   111  H    0.145630
   112  H    0.121699
   113  H    0.145197
   114  H    0.145514
   115  H    0.139816
   116  H    0.146730
   117  H    0.144242
   118  H    0.137705
   119  H    0.146659
   120  H    0.136899
   121  H    0.146684
   122  H    0.140168
   123  H    0.144319
   124  H    0.121881
   125  H    0.120957
   126  H    0.143057
   127  H    0.139712
 Sum of Mulliken charges =  -0.00000

 Dipole moment (field-independent basis, Debye):
    X=             -2.2647    Y=              2.3823    Z=             -0.0958  Tot=              3.2884
 Quadrupole moment (field-independent basis, Debye-Ang):
   XX=           -326.9053   YY=           -343.1786   ZZ=           -366.2330
   XY=            -20.1392   XZ=              1.0290   YZ=             -5.8513

 Normal termination of Gaussian 16 at Sat Nov  5 03:49:23 2022.
