 Gaussian 16, Revision B.01,
 Gaussian 16:  ES64L-G16RevB.01 20-Dec-2017

 -----------------------------
 #p b3lyp/6-31g(d) opt SCF=XQC
 -----------------------------

 ------------------------------
 Gaussian input prepared by ASE
 ------------------------------
 Symbolic Z-matrix:
 Charge =  0 Multiplicity = 1

 SCF Done:  E(RB3LYP) =  -1298.09300355     A.U. after   15 cycles
 SCF Done:  E(RB3LYP) =  -1298.09961872     A.U. after   12 cycles
 SCF Done:  E(RB3LYP) =  -1298.09998244     A.U. after   11 cycles
 SCF Done:  E(RB3LYP) =  -1298.10002647     A.U. after   11 cycles
 SCF Done:  E(RB3LYP) =  -1298.10003931     A.U. after   10 cycles
 SCF Done:  E(RB3LYP) =  -1298.10005248     A.U. after   10 cycles
 SCF Done:  E(RB3LYP) =  -1298.10005740     A.U. after    9 cycles
 SCF Done:  E(RB3LYP) =  -1298.10005847     A.U. after    8 cycles
 SCF Done:  E(RB3LYP) =  -1298.10005922     A.U. after    8 cycles
 SCF Done:  E(RB3LYP) =  -1298.10006155     A.U. after    9 cycles
 SCF Done:  E(RB3LYP) =  -1298.10007052     A.U. after    9 cycles
 SCF Done:  E(RB3LYP) =  -1298.10007968     A.U. after   10 cycles
 SCF Done:  E(RB3LYP) =  -1298.10008689     A.U. after   10 cycles
 SCF Done:  E(RB3LYP) =  -1298.10009938     A.U. after   10 cycles
 SCF Done:  E(RB3LYP) =  -1298.10010493     A.U. after    9 cycles
 SCF Done:  E(RB3LYP) =  -1298.10010606     A.U. after    9 cycles
 SCF Done:  E(RB3LYP) =  -1298.10010641     A.U. after    9 cycles
 SCF Done:  E(RB3LYP) =  -1298.10010660     A.U. after    8 cycles
 SCF Done:  E(RB3LYP) =  -1298.10010671     A.U. after    7 cycles
 SCF Done:  E(RB3LYP) =  -1298.10010674     A.U. after    6 cycles
 Optimization completed.
    -- Stationary point found.

                         Standard orientation:
 ---------------------------------------------------------------------
 Center     Atomic      Atomic             Coordinates (Angstroms)
 Number     Number       Type             X           Y           Z
 ---------------------------------------------------------------------
      1          6           0       -3.553497   -4.955660    0.768429
      2          6           0       -3.802708   -3.493968    0.474730
      3          6           0       -5.107834   -3.015953    0.280834
      4          6           0       -5.344457   -1.668314    0.010984
      5          6           0       -4.282566   -0.770240   -0.069551
      6          6           0       -2.970193   -1.226971    0.114351
      7          6           0       -1.831607   -0.281989    0.027114
      8          7           0       -2.107996    1.029584   -0.044244
      9          6           0       -1.043552    1.843638   -0.107359
     10          6           0       -1.290353    3.302504   -0.202283
     11          6           0       -2.587214    3.812480   -0.033773
     12          6           0       -2.819314    5.183090   -0.117770
     13          6           0       -1.762702    6.059283   -0.377904
     14          6           0       -0.470497    5.558008   -0.553540
     15          6           0       -0.233308    4.188515   -0.464799
     16          7           0        0.231568    1.427896   -0.097388
     17          6           0        0.400066    0.101078   -0.029485
     18          7           0        1.703248   -0.381610   -0.022351
     19          6           0        2.869854    0.366546    0.297335
     20          6           0        3.017359    1.692733    0.714053
     21          6           0        4.304686    2.147091    1.002679
     22          6           0        5.425102    1.312719    0.884191
     23          6           0        5.272112   -0.010342    0.481116
     24          6           0        3.990818   -0.487802    0.191778
     25          6           0        3.509953   -1.791649   -0.216330
     26          6           0        4.173660   -2.989353   -0.496301
     27          6           0        3.431530   -4.094187   -0.902487
     28          6           0        2.038994   -3.997917   -1.033251
     29          6           0        1.355583   -2.813856   -0.754024
     30          6           0        2.103858   -1.710155   -0.334288
     31          7           0       -0.592532   -0.795632    0.031974
     32          6           0       -2.745629   -2.586386    0.386528
     33          1           0       -4.131324   -5.293566    1.637208
     34          1           0       -3.847040   -5.588674   -0.078618
     35          1           0       -2.495976   -5.145905    0.975104
     36          1           0       -5.945409   -3.707556    0.345215
     37          1           0       -6.362100   -1.316492   -0.135958
     38          1           0       -4.452248    0.279822   -0.277421
     39          1           0       -3.398661    3.122264    0.167044
     40          1           0       -3.825705    5.569120    0.019697
     41          1           0       -1.945824    7.128458   -0.445574
     42          1           0        0.352985    6.235428   -0.762491
     43          1           0        0.764512    3.789855   -0.610144
     44          1           0        2.162489    2.345441    0.806592
     45          1           0        4.434976    3.176349    1.325871
     46          1           0        6.414211    1.699660    1.112434
     47          1           0        6.133293   -0.667886    0.398015
     48          1           0        5.254644   -3.050998   -0.403768
     49          1           0        3.932038   -5.032658   -1.123699
     50          1           0        1.470364   -4.864741   -1.359030
     51          1           0        0.282591   -2.752570   -0.855843
     52          1           0       -1.726693   -2.924673    0.543566
 ---------------------------------------------------------------------

 The electronic state is 1-A.
 Alpha  occ. eigenvalues --  -14.39798 -14.33854 -14.33837 -14.33429 -10.31038
 Alpha  occ. eigenvalues --  -10.27811 -10.27789 -10.22913 -10.22907 -10.20250
 Alpha  occ. eigenvalues --  -10.20160 -10.20070 -10.19897 -10.19538 -10.19510
 Alpha  occ. eigenvalues --  -10.19482 -10.19468 -10.19441 -10.19334 -10.19238
 Alpha  occ. eigenvalues --  -10.19201 -10.19151 -10.19081 -10.19018 -10.19010
 Alpha  occ. eigenvalues --  -10.18776 -10.18760 -10.18666 -10.18636 -10.18628
 Alpha  occ. eigenvalues --  -10.18556 -10.18542  -1.03677  -0.98590  -0.91139
 Alpha  occ. eigenvalues --   -0.90190  -0.85816  -0.85615  -0.84568  -0.84443
 Alpha  occ. eigenvalues --   -0.78141  -0.77934  -0.76490  -0.75850  -0.74932
 Alpha  occ. eigenvalues --   -0.74795  -0.73991  -0.71675  -0.69140  -0.67904
 Alpha  occ. eigenvalues --   -0.67647  -0.63913  -0.61799  -0.61468  -0.60544
 Alpha  occ. eigenvalues --   -0.59764  -0.58321  -0.57487  -0.57204  -0.54858
 Alpha  occ. eigenvalues --   -0.54084  -0.52005  -0.51113  -0.50692  -0.50085
 Alpha  occ. eigenvalues --   -0.47415  -0.47177  -0.46103  -0.45797  -0.45609
 Alpha  occ. eigenvalues --   -0.45085  -0.44304  -0.43583  -0.43473  -0.43221
 Alpha  occ. eigenvalues --   -0.42867  -0.42360  -0.42190  -0.42135  -0.41630
 Alpha  occ. eigenvalues --   -0.41394  -0.40906  -0.38717  -0.38244  -0.37903
 Alpha  occ. eigenvalues --   -0.36952  -0.36507  -0.36010  -0.35717  -0.35258
 Alpha  occ. eigenvalues --   -0.34896  -0.34830  -0.34653  -0.34432  -0.33961
 Alpha  occ. eigenvalues --   -0.33518  -0.32738  -0.30419  -0.27783  -0.26633
 Alpha  occ. eigenvalues --   -0.26563  -0.25531  -0.25189  -0.25137  -0.24739
 Alpha  occ. eigenvalues --   -0.24278  -0.21483  -0.21172
 Alpha virt. eigenvalues --   -0.06899  -0.05419  -0.02701  -0.00581  -0.00211
 Alpha virt. eigenvalues --    0.00134   0.00555   0.03510   0.04188   0.04507
 Alpha virt. eigenvalues --    0.09066   0.09656   0.09965   0.10809   0.11491

 Mulliken charges:
               1
     1  C   -0.531973
     2  C    0.172526
     3  C   -0.164171
     4  C   -0.137037
     5  C   -0.161299
     6  C    0.083014
     7  C    0.452235
     8  N   -0.543017
     9  C    0.452292
    10  C    0.076544
    11  C   -0.155505
    12  C   -0.139331
    13  C   -0.116067
    14  C   -0.139890
    15  C   -0.160487
    16  N   -0.550879
    17  C    0.710500
    18  N   -0.760166
    19  C    0.307306
    20  C   -0.146260
    21  C   -0.146767
    22  C   -0.138342
    23  C   -0.195948
    24  C    0.054650
    25  C    0.054688
    26  C   -0.195998
    27  C   -0.138320
    28  C   -0.147135
    29  C   -0.146461
    30  C    0.307085
    31  N   -0.550776
    32  C   -0.224413
    33  H    0.163223
    34  H    0.164361
    35  H    0.161223
    36  H    0.127313
    37  H    0.133516
    38  H    0.159242
    39  H    0.161798
    40  H    0.135053
    41  H    0.135165
    42  H    0.135610
    43  H    0.164603
    44  H    0.172469
    45  H    0.128499
    46  H    0.127452
    47  H    0.131696
    48  H    0.131745
    49  H    0.127328
    50  H    0.127883
    51  H    0.173083
    52  H    0.158143
 Sum of Mulliken charges =  -0.00000

 Dipole moment (field-independent basis, Debye):
    X=             -1.1077    Y=             -0.0265    Z=              0.0687  Tot=              1.1101
 Quadrupole moment (field-independent basis, Debye-Ang):
   XX=           -160.1104   YY=           -154.6954   ZZ=           -188.1259
   XY=              2.5316   XZ=              0.3408   YZ=              0.9293

 1\1\GINC-NODE04\FOpt\RB3LYP\6-31G(d)\C28H20N4\WYKGROUP\05-Nov-2022\0\\
 #p b3lyp/6-31g(d) opt SCF=XQC\\Gaussian input prepared by ASE\\0,1\C,-
 3.3461263289,-4.9410480897,-0.5251291325\C,-3.5954104511,-3.4564698434
 ,-0.6622132183\C,-4.8668035198,-2.9738661231,-1.0087688821\C,-5.103550
 0776,-1.6053424259,-1.1354020111\C,-4.0756783958,-0.6907043571,-0.9173
 344699\C,-2.7962518958,-1.1507744089,-0.5765282889\C,-1.6933554565,-0.
 1877450165,-0.345932118\N,-2.0007921947,1.1176549311,-0.2900832103\C,-
 0.9702836196,1.9467292491,-0.0655938569\C,-1.2499227801,3.40163414,-0.

 Normal termination of Gaussian 16 at Sat Nov  5 02:12:01 2022.
