 Gaussian 16, Revision B.01,
 Gaussian 16:  ES64L-G16RevB.01 20-Dec-2017

 -------------------------------------------------------------------
 #p b3lyp/6-31g(d) 6D 10F nosymm GFInput td=(50-50,nstate=2) SCF=XQC
 -------------------------------------------------------------------

 ------------------------------
 Gaussian input prepared by ASE
 ------------------------------
 Symbolic Z-matrix:
 Charge =  0 Multiplicity = 1

                          Input orientation:
 ---------------------------------------------------------------------
 Center     Atomic      Atomic             Coordinates (Angstroms)
 Number     Number       Type             X           Y           Z
 ---------------------------------------------------------------------
      1          6           0       -6.503562    4.605971    1.139049
      2          6           0       -6.895711    3.331199    1.551333
      3          6           0       -6.044615    2.242861    1.367224
      4          6           0       -4.784722    2.411260    0.770594
      5          6           0       -3.862226    1.265285    0.557374
      6          6           0       -4.317843   -0.056078    0.484635
      7          6           0       -3.372106   -1.067897    0.276046
      8          6           0       -3.747395   -2.502673    0.168795
      9          6           0       -5.061787   -2.903559   -0.121466
     10          6           0       -5.390363   -4.254870   -0.212784
     11          6           0       -4.411394   -5.229981   -0.013552
     12          6           0       -3.099319   -4.843011    0.268608
     13          6           0       -2.768515   -3.492923    0.354268
     14          7           0       -2.067298   -0.770104    0.169465
     15          6           0       -1.711894    0.522051    0.244115
     16          6           0       -0.268518    0.842292    0.113996
     17          6           0        0.186134    2.171443    0.203178
     18          6           0        1.537524    2.442776    0.148637
     19          6           0        2.498209    1.421028   -0.038006
     20          6           0        2.046607    0.063327   -0.215394
     21          6           0        0.664416   -0.174586   -0.073314
     22          6           0        3.005131   -1.036705   -0.402618
     23          6           0        2.646905   -2.360687   -0.886345
     24          6           0        1.446674   -2.658957   -1.589648
     25          6           0        1.146560   -3.939954   -2.010488
     26          6           0        2.035242   -5.004619   -1.761053
     27          6           0        3.244073   -4.742292   -1.154395
     28          6           0        3.592701   -3.431676   -0.742574
     29          6           0        4.904475   -3.162227   -0.251592
     30          6           0        5.296127   -1.882163    0.007863
     31          6           0        4.360461   -0.812877   -0.080030
     32          6           0        4.803161    0.536389    0.129214
     33          7           0        6.088328    0.935330    0.350009
     34          6           0        6.033237    2.260670    0.380407
     35          6           0        7.075401    3.198605    0.564487
     36          6           0        6.801065    4.542912    0.524785
     37          6           0        5.473575    4.992126    0.281257
     38          6           0        4.457602    4.094311    0.109144
     39          7           0        4.713423    2.744628    0.183729
     40          6           0        3.912493    1.613171    0.041321
     41          7           0       -2.556261    1.550373    0.421984
     42          6           0       -4.395894    3.700407    0.372263
     43          6           0       -5.249964    4.785987    0.549784
     44          1           0       -7.168395    5.453873    1.280432
     45          1           0       -7.863106    3.183780    2.023773
     46          1           0       -6.355133    1.263008    1.717617
     47          1           0       -5.370629   -0.286028    0.580908
     48          1           0       -5.832371   -2.160802   -0.304389
     49          1           0       -6.411078   -4.545508   -0.446233
     50          1           0       -4.668565   -6.283604   -0.082419
     51          1           0       -2.330146   -5.595002    0.422748
     52          1           0       -1.750759   -3.186141    0.566868
     53          1           0       -0.532219    2.967340    0.361185
     54          1           0        1.858381    3.463190    0.314317
     55          1           0        0.291808   -1.187194   -0.058432
     56          1           0        0.766110   -1.860301   -1.853000
     57          1           0        0.223150   -4.119406   -2.554421
     58          1           0        1.786288   -6.012772   -2.081067
     59          1           0        3.970953   -5.537822   -1.007160
     60          1           0        5.602579   -3.989300   -0.147490
     61          1           0        6.312703   -1.642629    0.301191
     62          1           0        8.074827    2.811058    0.726453
     63          1           0        7.596305    5.268412    0.664404
     64          1           0        5.249782    6.051090    0.216535
     65          1           0        3.445888    4.391630   -0.119736
     66          1           0       -3.419403    3.830981   -0.080659
     67          1           0       -4.937107    5.775586    0.227460
 ---------------------------------------------------------------------

 SCF Done:  E(RB3LYP) =  -1719.68642292     A.U. after   16 cycles

 Excitation energies and oscillator strengths:

 Excited state symmetry could not be determined.
 Excited State   1:      Triplet-?Sym    2.3830 eV  520.28 nm  f=0.0000  <S**2>=2.000
     141 ->147         0.14208
     142 ->144         0.15900
     142 ->146         0.42371
     142 ->147        -0.18149
     143 ->145         0.40454
     143 ->146         0.11067
     143 ->148        -0.12897
 This state for optimization and/or second-order correction.
 Total Energy, E(TD-HF/TD-DFT) =  -1719.59884754
 Copying the excited state density for this state as the 1-particle RhoCI density.

 Excited state symmetry could not be determined.
 Excited State   2:      Triplet-?Sym    2.6293 eV  471.54 nm  f=0.0000  <S**2>=2.000
     141 ->146         0.14550
     142 ->144        -0.12517
     142 ->146        -0.32547
     142 ->147         0.19082
     143 ->145         0.32855
     143 ->146         0.29940
     143 ->147         0.21690

 Excited state symmetry could not be determined.
 Excited State   3:      Singlet-?Sym    3.1579 eV  392.61 nm  f=0.0024  <S**2>=0.000
     142 ->145        -0.27370
     143 ->144         0.58949
     143 ->146         0.23610

 Excited state symmetry could not be determined.
 Excited State   4:      Singlet-?Sym    3.2701 eV  379.15 nm  f=0.0666  <S**2>=0.000
     142 ->144        -0.30757
     142 ->145         0.35184
     142 ->146        -0.11220
     143 ->144         0.26210
     143 ->145        -0.27646
     143 ->146        -0.33255

 Alpha  occ. eigenvalues --  -14.41953 -14.32924 -14.32891 -14.31162 -10.25981
 Alpha  occ. eigenvalues --  -10.25628 -10.24773 -10.24554 -10.24541 -10.22378
 Alpha  occ. eigenvalues --  -10.21294 -10.21134 -10.20986 -10.20755 -10.20551
 Alpha  occ. eigenvalues --  -10.20389 -10.20345 -10.20288 -10.20260 -10.19948
 Alpha  occ. eigenvalues --  -10.19879 -10.19836 -10.19793 -10.19754 -10.19641
 Alpha  occ. eigenvalues --  -10.19635 -10.19528 -10.19482 -10.19419 -10.19295
 Alpha  occ. eigenvalues --  -10.19288 -10.19266 -10.19173 -10.19157 -10.19048
 Alpha  occ. eigenvalues --  -10.18721 -10.18554 -10.18485 -10.18483 -10.18428
 Alpha  occ. eigenvalues --  -10.18401 -10.18263 -10.18069  -1.03228  -0.98344
 Alpha  occ. eigenvalues --   -0.91277  -0.89470  -0.87873  -0.86278  -0.85723
 Alpha  occ. eigenvalues --   -0.85275  -0.83739  -0.82397  -0.80835  -0.78509
 Alpha  occ. eigenvalues --   -0.77417  -0.76497  -0.76177  -0.75058  -0.74845
 Alpha  occ. eigenvalues --   -0.74452  -0.74025  -0.73552  -0.72113  -0.71070
 Alpha  occ. eigenvalues --   -0.66960  -0.66292  -0.65483  -0.63589  -0.62895
 Alpha  occ. eigenvalues --   -0.62203  -0.61139  -0.60840  -0.60208  -0.60046
 Alpha  occ. eigenvalues --   -0.59152  -0.57879  -0.57796  -0.56213  -0.53841
 Alpha  occ. eigenvalues --   -0.52966  -0.52197  -0.51275  -0.51132  -0.50885
 Alpha  occ. eigenvalues --   -0.50599  -0.49316  -0.48268  -0.47412  -0.47341
 Alpha  occ. eigenvalues --   -0.47130  -0.46545  -0.46164  -0.46030  -0.45363
 Alpha  occ. eigenvalues --   -0.44738  -0.44450  -0.43880  -0.43599  -0.43072
 Alpha  occ. eigenvalues --   -0.42968  -0.42693  -0.42324  -0.42155  -0.41563
 Alpha  occ. eigenvalues --   -0.41394  -0.40984  -0.40562  -0.39867  -0.39197
 Alpha  occ. eigenvalues --   -0.38851  -0.38004  -0.37798  -0.37514  -0.37132
 Alpha  occ. eigenvalues --   -0.36613  -0.35933  -0.35593  -0.35336  -0.35007
 Alpha  occ. eigenvalues --   -0.34913  -0.34702  -0.34545  -0.32963  -0.32885
 Alpha  occ. eigenvalues --   -0.32552  -0.32087  -0.31636  -0.30553  -0.29680
 Alpha  occ. eigenvalues --   -0.28550  -0.27250  -0.26887  -0.25675  -0.25565
 Alpha  occ. eigenvalues --   -0.25468  -0.24930  -0.24520  -0.24456  -0.23694
 Alpha  occ. eigenvalues --   -0.22411  -0.19903  -0.19494
 Alpha virt. eigenvalues --   -0.06178  -0.05756  -0.05150  -0.03048  -0.02385
 Alpha virt. eigenvalues --   -0.00499  -0.00407  -0.00208   0.00291   0.00848
 Alpha virt. eigenvalues --    0.03525   0.04067   0.05321   0.07734   0.08053

 Mulliken charges:
               1
     1  C   -0.119866
     2  C   -0.139083
     3  C   -0.172711
     4  C    0.092866
     5  C    0.277411
     6  C   -0.220355
     7  C    0.281031
     8  C    0.089952
     9  C   -0.173176
    10  C   -0.139585
    11  C   -0.119538
    12  C   -0.139009
    13  C   -0.158802
    14  N   -0.564564
    15  C    0.453180
    16  C    0.084867
    17  C   -0.178120
    18  C   -0.210171
    19  C    0.184460
    20  C    0.060984
    21  C   -0.294586
    22  C    0.002381
    23  C    0.048089
    24  C   -0.206084
    25  C   -0.146450
    26  C   -0.130925
    27  C   -0.203074
    28  C    0.147917
    29  C   -0.198280
    30  C   -0.175688
    31  C    0.072700
    32  C    0.139024
    33  N   -0.591602
    34  C    0.544783
    35  C   -0.183608
    36  C   -0.114974
    37  C   -0.188150
    38  C    0.070875
    39  N   -0.642477
    40  C    0.220130
    41  N   -0.561451
    42  C   -0.154525
    43  C   -0.136695
    44  H    0.133811
    45  H    0.133785
    46  H    0.134734
    47  H    0.147679
    48  H    0.133401
    49  H    0.133086
    50  H    0.133608
    51  H    0.137652
    52  H    0.169224
    53  H    0.155806
    54  H    0.124678
    55  H    0.189846
    56  H    0.159023
    57  H    0.133327
    58  H    0.127689
    59  H    0.128657
    60  H    0.129981
    61  H    0.160742
    62  H    0.160688
    63  H    0.145679
    64  H    0.147980
    65  H    0.180177
    66  H    0.157605
    67  H    0.134041
 Sum of Mulliken charges =  -0.00000

 Dipole moment (field-independent basis, Debye):
    X=             -2.7312    Y=              2.0942    Z=             -0.0318  Tot=              3.4419
 Quadrupole moment (field-independent basis, Debye-Ang):
   XX=           -213.7994   YY=           -197.9752   ZZ=           -250.0995
   XY=             14.5408   XZ=             -0.4731   YZ=              2.9696

 Normal termination of Gaussian 16 at Sat Nov  5 11:21:50 2022.
