 Gaussian 16, Revision B.01,
 Gaussian 16:  ES64L-G16RevB.01 20-Dec-2017

 -----------------------------
 #p b3lyp/6-31g(d) opt SCF=XQC
 -----------------------------

 ------------------------------
 Gaussian input prepared by ASE
 ------------------------------
 Symbolic Z-matrix:
 Charge =  0 Multiplicity = 1

 SCF Done:  E(RB3LYP) =  -1719.67680263     A.U. after   16 cycles
 SCF Done:  E(RB3LYP) =  -1719.68545052     A.U. after   13 cycles
 SCF Done:  E(RB3LYP) =  -1719.68500762     A.U. after   12 cycles
 SCF Done:  E(RB3LYP) =  -1719.68622559     A.U. after   12 cycles
 SCF Done:  E(RB3LYP) =  -1719.68639683     A.U. after   11 cycles
 SCF Done:  E(RB3LYP) =  -1719.68641688     A.U. after   11 cycles
 SCF Done:  E(RB3LYP) =  -1719.68642197     A.U. after   10 cycles
 SCF Done:  E(RB3LYP) =  -1719.68642355     A.U. after   10 cycles
 SCF Done:  E(RB3LYP) =  -1719.68642376     A.U. after    7 cycles
 SCF Done:  E(RB3LYP) =  -1719.68642381     A.U. after    7 cycles
 SCF Done:  E(RB3LYP) =  -1719.68642385     A.U. after    7 cycles
 SCF Done:  E(RB3LYP) =  -1719.68642386     A.U. after    7 cycles
 SCF Done:  E(RB3LYP) =  -1719.68642387     A.U. after    7 cycles
 SCF Done:  E(RB3LYP) =  -1719.68642387     A.U. after    5 cycles
 Optimization completed.
    -- Stationary point found.

                         Standard orientation:
 ---------------------------------------------------------------------
 Center     Atomic      Atomic             Coordinates (Angstroms)
 Number     Number       Type             X           Y           Z
 ---------------------------------------------------------------------
      1          6           0        6.361571   -5.166641   -0.103556
      2          6           0        6.882600   -4.009798    0.478720
      3          6           0        6.118660   -2.844988    0.527243
      4          6           0        4.818652   -2.817989   -0.002764
      5          6           0        3.987018   -1.586338    0.031023
      6          6           0        4.548994   -0.309048    0.138680
      7          6           0        3.683054    0.791638    0.157280
      8          6           0        4.172916    2.192188    0.254337
      9          6           0        5.499109    2.534953   -0.056005
     10          6           0        5.936242    3.854318    0.046621
     11          6           0        5.056113    4.854637    0.463336
     12          6           0        3.732974    4.526713    0.767752
     13          6           0        3.293424    3.209644    0.659896
     14          7           0        2.353772    0.614522    0.092449
     15          6           0        1.894090   -0.641906   -0.015403
     16          6           0        0.423763   -0.826803   -0.097698
     17          6           0       -0.137029   -2.114518   -0.190460
     18          6           0       -1.507594   -2.270616   -0.196705
     19          6           0       -2.386375   -1.162630   -0.153909
     20          6           0       -1.830943    0.167837   -0.143294
     21          6           0       -0.427859    0.274409   -0.058192
     22          6           0       -2.700934    1.352757   -0.088783
     23          6           0       -2.257802    2.707247   -0.379020
     24          6           0       -1.076217    3.025300   -1.104866
     25          6           0       -0.691171    4.331594   -1.336088
     26          6           0       -1.471133    5.404976   -0.861751
     27          6           0       -2.663425    5.138747   -0.224819
     28          6           0       -3.099747    3.808453   -0.003933
     29          6           0       -4.401306    3.561916    0.524824
     30          6           0       -4.886051    2.289860    0.603359
     31          6           0       -4.051023    1.181945    0.284263
     32          6           0       -4.595161   -0.146112    0.305772
     33          7           0       -5.895861   -0.477795    0.546037
     34          6           0       -5.952357   -1.790561    0.361814
     35          6           0       -7.059206   -2.664717    0.464032
     36          6           0       -6.902974   -4.001190    0.193052
     37          6           0       -5.633674   -4.503242   -0.207137
     38          6           0       -4.555656   -3.668534   -0.302183
     39          7           0       -4.691127   -2.333880    0.002771
     40          6           0       -3.805542   -1.258009   -0.011499
     41          7           0        2.656114   -1.746153   -0.060091
     42          6           0        4.300455   -3.991507   -0.573800
     43          6           0        5.067234   -5.152749   -0.628573
     44          1           0        6.958383   -6.073918   -0.143499
     45          1           0        7.883114   -4.015055    0.902666
     46          1           0        6.530002   -1.961949    1.007189
     47          1           0        5.621202   -0.177980    0.199472
     48          1           0        6.192596    1.776220   -0.405790
     49          1           0        6.963925    4.101476   -0.205586
     50          1           0        5.398048    5.882896    0.545587
     51          1           0        3.040125    5.299133    1.090556
     52          1           0        2.266184    2.949796    0.888804
     53          1           0        0.518358   -2.977397   -0.209356
     54          1           0       -1.904836   -3.277258   -0.174052
     55          1           0        0.029946    1.239913    0.092305
     56          1           0       -0.481393    2.231536   -1.536720
     57          1           0        0.213478    4.527550   -1.905268
     58          1           0       -1.154798    6.430244   -1.033557
     59          1           0       -3.310859    5.951937    0.095264
     60          1           0       -5.019750    4.411024    0.805500
     61          1           0       -5.902030    2.082854    0.922387
     62          1           0       -8.011770   -2.234698    0.752099
     63          1           0       -7.748453   -4.677724    0.268663
     64          1           0       -5.504760   -5.551139   -0.454060
     65          1           0       -3.586787   -3.999774   -0.642658
     66          1           0        3.293381   -3.972189   -0.975235
     67          1           0        4.654248   -6.049793   -1.082262
 ---------------------------------------------------------------------

 The electronic state is 1-A.
 Alpha  occ. eigenvalues --  -14.41953 -14.32924 -14.32891 -14.31162 -10.25981
 Alpha  occ. eigenvalues --  -10.25628 -10.24773 -10.24554 -10.24541 -10.22378
 Alpha  occ. eigenvalues --  -10.21294 -10.21135 -10.20986 -10.20755 -10.20551
 Alpha  occ. eigenvalues --  -10.20389 -10.20345 -10.20288 -10.20260 -10.19948
 Alpha  occ. eigenvalues --  -10.19879 -10.19836 -10.19793 -10.19754 -10.19641
 Alpha  occ. eigenvalues --  -10.19635 -10.19528 -10.19482 -10.19419 -10.19295
 Alpha  occ. eigenvalues --  -10.19288 -10.19266 -10.19173 -10.19157 -10.19048
 Alpha  occ. eigenvalues --  -10.18721 -10.18554 -10.18485 -10.18483 -10.18428
 Alpha  occ. eigenvalues --  -10.18401 -10.18263 -10.18069  -1.03228  -0.98344
 Alpha  occ. eigenvalues --   -0.91277  -0.89470  -0.87873  -0.86278  -0.85723
 Alpha  occ. eigenvalues --   -0.85275  -0.83739  -0.82397  -0.80835  -0.78509
 Alpha  occ. eigenvalues --   -0.77417  -0.76497  -0.76177  -0.75058  -0.74845
 Alpha  occ. eigenvalues --   -0.74452  -0.74025  -0.73552  -0.72113  -0.71070
 Alpha  occ. eigenvalues --   -0.66960  -0.66292  -0.65483  -0.63589  -0.62895
 Alpha  occ. eigenvalues --   -0.62203  -0.61139  -0.60840  -0.60208  -0.60046
 Alpha  occ. eigenvalues --   -0.59152  -0.57879  -0.57796  -0.56213  -0.53841
 Alpha  occ. eigenvalues --   -0.52966  -0.52197  -0.51275  -0.51132  -0.50885
 Alpha  occ. eigenvalues --   -0.50599  -0.49316  -0.48268  -0.47412  -0.47341
 Alpha  occ. eigenvalues --   -0.47130  -0.46545  -0.46164  -0.46030  -0.45363
 Alpha  occ. eigenvalues --   -0.44738  -0.44450  -0.43880  -0.43599  -0.43072
 Alpha  occ. eigenvalues --   -0.42968  -0.42693  -0.42324  -0.42155  -0.41563
 Alpha  occ. eigenvalues --   -0.41394  -0.40984  -0.40562  -0.39867  -0.39197
 Alpha  occ. eigenvalues --   -0.38851  -0.38004  -0.37798  -0.37515  -0.37132
 Alpha  occ. eigenvalues --   -0.36614  -0.35933  -0.35593  -0.35336  -0.35007
 Alpha  occ. eigenvalues --   -0.34913  -0.34702  -0.34545  -0.32963  -0.32885
 Alpha  occ. eigenvalues --   -0.32552  -0.32087  -0.31636  -0.30553  -0.29680
 Alpha  occ. eigenvalues --   -0.28550  -0.27250  -0.26887  -0.25675  -0.25565
 Alpha  occ. eigenvalues --   -0.25468  -0.24930  -0.24520  -0.24456  -0.23694
 Alpha  occ. eigenvalues --   -0.22411  -0.19903  -0.19493
 Alpha virt. eigenvalues --   -0.06178  -0.05756  -0.05150  -0.03048  -0.02385
 Alpha virt. eigenvalues --   -0.00499  -0.00407  -0.00208   0.00291   0.00848
 Alpha virt. eigenvalues --    0.03525   0.04067   0.05321   0.07734   0.08053

 Mulliken charges:
               1
     1  C   -0.119863
     2  C   -0.139084
     3  C   -0.172713
     4  C    0.092863
     5  C    0.277405
     6  C   -0.220374
     7  C    0.281071
     8  C    0.089942
     9  C   -0.173174
    10  C   -0.139584
    11  C   -0.119542
    12  C   -0.139000
    13  C   -0.158799
    14  N   -0.564579
    15  C    0.453176
    16  C    0.084845
    17  C   -0.178109
    18  C   -0.210186
    19  C    0.184493
    20  C    0.060946
    21  C   -0.294559
    22  C    0.002363
    23  C    0.048070
    24  C   -0.206088
    25  C   -0.146449
    26  C   -0.130927
    27  C   -0.203079
    28  C    0.147938
    29  C   -0.198277
    30  C   -0.175692
    31  C    0.072715
    32  C    0.139029
    33  N   -0.591612
    34  C    0.544803
    35  C   -0.183636
    36  C   -0.114953
    37  C   -0.188160
    38  C    0.070872
    39  N   -0.642480
    40  C    0.220135
    41  N   -0.561438
    42  C   -0.154520
    43  C   -0.136700
    44  H    0.133811
    45  H    0.133785
    46  H    0.134735
    47  H    0.147678
    48  H    0.133400
    49  H    0.133086
    50  H    0.133608
    51  H    0.137647
    52  H    0.169223
    53  H    0.155807
    54  H    0.124677
    55  H    0.189850
    56  H    0.159029
    57  H    0.133328
    58  H    0.127690
    59  H    0.128657
    60  H    0.129980
    61  H    0.160743
    62  H    0.160688
    63  H    0.145679
    64  H    0.147981
    65  H    0.180178
    66  H    0.157605
    67  H    0.134042
 Sum of Mulliken charges =  -0.00000

 Dipole moment (field-independent basis, Debye):
    X=              2.5372    Y=             -2.2606    Z=             -0.5470  Tot=              3.4419
 Quadrupole moment (field-independent basis, Debye-Ang):
   XX=           -210.1732   YY=           -200.8335   ZZ=           -249.8592
   XY=             15.1891   XZ=              0.4173   YZ=              4.4724

 1\1\GINC-NODE59\FOpt\RB3LYP\6-31G(d)\C39H24N4\WYKGROUP\05-Nov-2022\0\\
 #p b3lyp/6-31g(d) opt SCF=XQC\\Gaussian input prepared by ASE\\0,1\C,-
 6.5035623459,4.6059705997,1.1390488142\C,-6.895711249,3.3311991509,1.5
 513328524\C,-6.0446146257,2.242860521,1.367224344\C,-4.7847218501,2.41
 12600131,0.7705935714\C,-3.8622262539,1.2652845601,0.5573740799\C,-4.3
 178427116,-0.0560779743,0.484634689\C,-3.3721057,-1.0678974759,0.27604
 56249\C,-3.7473952866,-2.5026733165,0.1687954376\C,-5.0617872442,-2.90
 35594678,-0.121465611\C,-5.3903629745,-4.2548695384,-0.2127836411\C,-4

 Normal termination of Gaussian 16 at Sat Nov  5 02:18:11 2022.
