 Gaussian 16, Revision B.01,
 Gaussian 16:  ES64L-G16RevB.01 20-Dec-2017

 -------------------------------------------------------------------
 #p b3lyp/6-31g(d) 6D 10F nosymm GFInput td=(50-50,nstate=2) SCF=XQC
 -------------------------------------------------------------------

 ------------------------------
 Gaussian input prepared by ASE
 ------------------------------
 Symbolic Z-matrix:
 Charge =  0 Multiplicity = 1

                          Input orientation:
 ---------------------------------------------------------------------
 Center     Atomic      Atomic             Coordinates (Angstroms)
 Number     Number       Type             X           Y           Z
 ---------------------------------------------------------------------
      1          6           0       11.938143   -2.253075   -0.675130
      2          6           0       11.883728   -0.867481   -0.836687
      3          6           0       10.764566   -0.154012   -0.410135
      4          6           0        9.674891   -0.808829    0.188458
      5          6           0        8.482960   -0.047136    0.643982
      6          6           0        8.618120    1.218956    1.236903
      7          6           0        7.493102    1.929205    1.651404
      8          6           0        6.217525    1.393204    1.486110
      9          6           0        6.049136    0.129438    0.897214
     10          6           0        4.692866   -0.448702    0.707131
     11          6           0        4.458617   -1.822510    0.890172
     12          6           0        3.184968   -2.361314    0.710488
     13          6           0        2.117336   -1.542660    0.352412
     14          6           0        2.326962   -0.167555    0.166508
     15          6           0        1.202288    0.718232   -0.221746
     16          7           0        1.484240    1.987244   -0.552717
     17          6           0        0.431081    2.739690   -0.908384
     18          6           0        0.679082    4.152973   -1.280306
     19          6           0        1.992495    4.631512   -1.408377
     20          6           0        2.224774    5.957922   -1.763572
     21          6           0        1.150789    6.822592   -1.988933
     22          6           0       -0.159021    6.354193   -1.858155
     23          6           0       -0.395914    5.027382   -1.507544
     24          7           0       -0.835711    2.301907   -0.942467
     25          6           0       -1.011906    1.021670   -0.591052
     26          7           0       -2.313402    0.527760   -0.612044
     27          6           0       -3.372087    1.039259   -1.401237
     28          6           0       -3.351597    2.045387   -2.370873
     29          6           0       -4.518273    2.285192   -3.093514
     30          6           0       -5.675519    1.530821   -2.867855
     31          6           0       -5.690853    0.527384   -1.904033
     32          6           0       -4.539305    0.278153   -1.143048
     33          6           0       -4.198294   -0.706227   -0.123572
     34          6           0       -2.810402   -0.566089    0.143189
     35          6           0       -2.108515   -1.391382    1.036428
     36          6           0       -2.798156   -2.412198    1.671970
     37          6           0       -4.172033   -2.578494    1.460019
     38          6           0       -5.117990   -3.529703    1.997626
     39          6           0       -5.004991   -4.611768    2.879036
     40          6           0       -6.150317   -5.321123    3.228150
     41          6           0       -7.404288   -4.953475    2.711246
     42          6           0       -7.540084   -3.881878    1.830411
     43          6           0       -6.383195   -3.187284    1.470185
     44          7           0       -6.241226   -2.080617    0.613901
     45          6           0       -7.363606   -1.279153    0.249948
     46          6           0       -8.311358   -1.782183   -0.648511
     47          6           0       -9.431397   -1.016884   -0.977545
     48          6           0       -9.603684    0.251864   -0.420167
     49          6           0       -8.655778    0.751004    0.476012
     50          6           0       -7.542133   -0.013934    0.820717
     51          6           0       -4.887696   -1.704947    0.600008
     52          7           0       -0.029873    0.188571   -0.225419
     53          6           0        3.611740    0.363863    0.340605
     54          6           0        7.191553   -0.571558    0.483384
     55          6           0        9.745001   -2.203446    0.344882
     56          6           0       10.863164   -2.917964   -0.082472
     57          1           0       12.810098   -2.809544   -1.008005
     58          1           0       12.711095   -0.340338   -1.304626
     59          1           0       10.721156    0.920450   -0.565469
     60          1           0        9.609142    1.634176    1.396045
     61          1           0        7.612384    2.900912    2.123411
     62          1           0        5.349017    1.943418    1.836400
     63          1           0        5.277222   -2.467655    1.196638
     64          1           0        3.024093   -3.425715    0.857997
     65          1           0        1.125524   -1.953890    0.202932
     66          1           0        2.817574    3.950893   -1.231835
     67          1           0        3.244852    6.318133   -1.865530
     68          1           0        1.333807    7.857961   -2.264228
     69          1           0       -0.996970    7.024822   -2.027814
     70          1           0       -1.408704    4.656372   -1.396079
     71          1           0       -2.455216    2.618251   -2.555685
     72          1           0       -4.518027    3.063753   -3.851558
     73          1           0       -6.569987    1.720929   -3.454514
     74          1           0       -6.583600   -0.065922   -1.765953
     75          1           0       -1.052508   -1.246967    1.201191
     76          1           0       -2.268670   -3.079207    2.346656
     77          1           0       -4.037344   -4.889812    3.288680
     78          1           0       -6.076936   -6.163995    3.909603
     79          1           0       -8.288776   -5.513327    3.002859
     80          1           0       -8.512781   -3.598537    1.442547
     81          1           0       -8.155092   -2.760481   -1.092825
     82          1           0      -10.163448   -1.409817   -1.677727
     83          1           0      -10.472161    0.849094   -0.683374
     84          1           0       -8.785533    1.736692    0.914005
     85          1           0       -6.805079    0.362615    1.523032
     86          1           0        3.759823    1.423312    0.166667
     87          1           0        7.070910   -1.525490   -0.021702
     88          1           0        8.925549   -2.727450    0.829090
     89          1           0       10.898057   -3.995434    0.056159
 ---------------------------------------------------------------------

 SCF Done:  E(RB3LYP) =  -2237.16014304     A.U. after   15 cycles

 Excitation energies and oscillator strengths:

 Excited state symmetry could not be determined.
 Excited State   1:      Triplet-?Sym    2.7904 eV  444.33 nm  f=0.0000  <S**2>=2.000
     186 ->188         0.47597
     187 ->188         0.49148
 This state for optimization and/or second-order correction.
 Total Energy, E(TD-HF/TD-DFT) =  -2237.05759932
 Copying the excited state density for this state as the 1-particle RhoCI density.

 Excited state symmetry could not be determined.
 Excited State   2:      Triplet-?Sym    2.8384 eV  436.81 nm  f=0.0000  <S**2>=2.000
     186 ->189         0.48349
     186 ->191         0.30974
     186 ->193        -0.12438
     187 ->188        -0.12231
     187 ->191        -0.17787
     187 ->195         0.14276

 Excited state symmetry could not be determined.
 Excited State   3:      Singlet-?Sym    2.8713 eV  431.81 nm  f=0.0005  <S**2>=0.000
     186 ->188         0.30520
     187 ->188         0.63236

 Excited state symmetry could not be determined.
 Excited State   4:      Singlet-?Sym    2.9599 eV  418.88 nm  f=0.0006  <S**2>=0.000
     186 ->188         0.63368
     187 ->188        -0.30728

 Alpha  occ. eigenvalues --  -14.39553 -14.38023 -14.33914 -14.33903 -14.33549
 Alpha  occ. eigenvalues --  -10.31050 -10.27891 -10.27862 -10.23803 -10.22918
 Alpha  occ. eigenvalues --  -10.22902 -10.22585 -10.21957 -10.20422 -10.20328
 Alpha  occ. eigenvalues --  -10.20304 -10.20254 -10.20168 -10.20164 -10.20132
 Alpha  occ. eigenvalues --  -10.20090 -10.20069 -10.20018 -10.19959 -10.19903
 Alpha  occ. eigenvalues --  -10.19827 -10.19820 -10.19557 -10.19522 -10.19508
 Alpha  occ. eigenvalues --  -10.19468 -10.19464 -10.19444 -10.19411 -10.19391
 Alpha  occ. eigenvalues --  -10.19233 -10.19107 -10.19088 -10.19067 -10.19057
 Alpha  occ. eigenvalues --  -10.19055 -10.19013 -10.18992 -10.18976 -10.18672
 Alpha  occ. eigenvalues --  -10.18522 -10.18503 -10.18419 -10.18393 -10.18382
 Alpha  occ. eigenvalues --  -10.18361 -10.18247 -10.18244 -10.17994 -10.17905
 Alpha  occ. eigenvalues --  -10.17890  -1.03705  -0.98812  -0.98354  -0.91210
 Alpha  occ. eigenvalues --   -0.90180  -0.87297  -0.87005  -0.85944  -0.85613
 Alpha  occ. eigenvalues --   -0.84320  -0.84181  -0.83915  -0.83764  -0.79004
 Alpha  occ. eigenvalues --   -0.78750  -0.77390  -0.77059  -0.76606  -0.75797
 Alpha  occ. eigenvalues --   -0.75731  -0.74903  -0.74869  -0.74493  -0.74031
 Alpha  occ. eigenvalues --   -0.73279  -0.72839  -0.71791  -0.71598  -0.70722
 Alpha  occ. eigenvalues --   -0.67990  -0.67646  -0.64492  -0.63670  -0.63133
 Alpha  occ. eigenvalues --   -0.62445  -0.62054  -0.61607  -0.61068  -0.60997
 Alpha  occ. eigenvalues --   -0.60438  -0.59484  -0.59207  -0.58722  -0.57862
 Alpha  occ. eigenvalues --   -0.57212  -0.56945  -0.56199  -0.54868  -0.54600
 Alpha  occ. eigenvalues --   -0.53448  -0.52723  -0.51856  -0.51654  -0.51002
 Alpha  occ. eigenvalues --   -0.50354  -0.49419  -0.49258  -0.48350  -0.47513
 Alpha  occ. eigenvalues --   -0.47207  -0.47145  -0.46874  -0.46695  -0.46229
 Alpha  occ. eigenvalues --   -0.45781  -0.45421  -0.44883  -0.44830  -0.44346
 Alpha  occ. eigenvalues --   -0.43984  -0.43683  -0.43555  -0.43406  -0.43196
 Alpha  occ. eigenvalues --   -0.43054  -0.42871  -0.42726  -0.42692  -0.42363
 Alpha  occ. eigenvalues --   -0.42223  -0.41988  -0.41764  -0.41711  -0.41523
 Alpha  occ. eigenvalues --   -0.41175  -0.40780  -0.39054  -0.38443  -0.37766
 Alpha  occ. eigenvalues --   -0.37612  -0.37264  -0.37096  -0.36879  -0.36736
 Alpha  occ. eigenvalues --   -0.36486  -0.36178  -0.35942  -0.35879  -0.35597
 Alpha  occ. eigenvalues --   -0.35572  -0.35151  -0.34876  -0.34789  -0.34596
 Alpha  occ. eigenvalues --   -0.34504  -0.34398  -0.33524  -0.33447  -0.33251
 Alpha  occ. eigenvalues --   -0.33184  -0.32867  -0.32071  -0.30350  -0.28062
 Alpha  occ. eigenvalues --   -0.27950  -0.26826  -0.26768  -0.26575  -0.26376
 Alpha  occ. eigenvalues --   -0.26208  -0.25543  -0.25365  -0.25070  -0.25052
 Alpha  occ. eigenvalues --   -0.24936  -0.23368  -0.23288  -0.22518  -0.22177
 Alpha  occ. eigenvalues --   -0.19577  -0.19241
 Alpha virt. eigenvalues --   -0.07003  -0.05616  -0.03250  -0.02634  -0.02307
 Alpha virt. eigenvalues --   -0.01729  -0.01378  -0.00910  -0.00442  -0.00149
 Alpha virt. eigenvalues --    0.00262   0.01261   0.02278   0.02469   0.02903

 Mulliken charges:
               1
     1  C   -0.126330
     2  C   -0.133577
     3  C   -0.173581
     4  C    0.088432
     5  C    0.089656
     6  C   -0.173356
     7  C   -0.138025
     8  C   -0.172579
     9  C    0.092034
    10  C    0.085254
    11  C   -0.161137
    12  C   -0.142179
    13  C   -0.162413
    14  C    0.075680
    15  C    0.456858
    16  N   -0.544573
    17  C    0.452848
    18  C    0.075469
    19  C   -0.156883
    20  C   -0.139709
    21  C   -0.115892
    22  C   -0.139654
    23  C   -0.161293
    24  N   -0.543243
    25  C    0.698735
    26  N   -0.756361
    27  C    0.296981
    28  C   -0.149907
    29  C   -0.146019
    30  C   -0.148062
    31  C   -0.186872
    32  C    0.066880
    33  C    0.039191
    34  C    0.302710
    35  C   -0.160733
    36  C   -0.225780
    37  C    0.072711
    38  C    0.067814
    39  C   -0.198541
    40  C   -0.144248
    41  C   -0.141870
    42  C   -0.182034
    43  C    0.307884
    44  N   -0.740410
    45  C    0.221322
    46  C   -0.157314
    47  C   -0.139598
    48  C   -0.121954
    49  C   -0.138056
    50  C   -0.119058
    51  C    0.207545
    52  N   -0.546793
    53  C   -0.216620
    54  C   -0.232987
    55  C   -0.171357
    56  C   -0.133814
    57  H    0.130318
    58  H    0.131024
    59  H    0.132641
    60  H    0.133481
    61  H    0.132739
    62  H    0.137049
    63  H    0.135789
    64  H    0.136577
    65  H    0.166609
    66  H    0.163649
    67  H    0.135566
    68  H    0.135111
    69  H    0.135651
    70  H    0.166111
    71  H    0.167047
    72  H    0.126165
    73  H    0.124120
    74  H    0.150229
    75  H    0.170731
    76  H    0.130599
    77  H    0.128354
    78  H    0.123196
    79  H    0.125354
    80  H    0.137954
    81  H    0.151717
    82  H    0.139784
    83  H    0.136574
    84  H    0.141784
    85  H    0.154684
    86  H    0.165532
    87  H    0.137769
    88  H    0.129968
    89  H    0.130936
 Sum of Mulliken charges =  -0.00000

 Dipole moment (field-independent basis, Debye):
    X=             -0.3016    Y=              1.3880    Z=             -0.3436  Tot=              1.4613
 Quadrupole moment (field-independent basis, Debye-Ang):
   XX=           -260.7620   YY=           -288.2533   ZZ=           -318.7750
   XY=             -3.9787   XZ=              5.4585   YZ=             -7.3480

 Normal termination of Gaussian 16 at Sat Nov  5 11:25:36 2022.
