 Gaussian 16, Revision B.01,
 Gaussian 16:  ES64L-G16RevB.01 20-Dec-2017

 -------------------------------------------------------------------
 #p b3lyp/6-31g(d) 6D 10F nosymm GFInput td=(50-50,nstate=2) SCF=XQC
 -------------------------------------------------------------------

 ------------------------------
 Gaussian input prepared by ASE
 ------------------------------
 Symbolic Z-matrix:
 Charge =  0 Multiplicity = 1

                          Input orientation:
 ---------------------------------------------------------------------
 Center     Atomic      Atomic             Coordinates (Angstroms)
 Number     Number       Type             X           Y           Z
 ---------------------------------------------------------------------
      1          6           0       -2.400823    4.290079    0.239127
      2          6           0       -3.040607    3.317076    1.254702
      3          6           0       -2.086002    3.103972    2.451186
      4          6           0       -4.413151    3.811029    1.713419
      5          6           0       -4.737373    4.983322    2.386289
      6          6           0       -6.075596    5.237995    2.711416
      7          6           0       -7.075715    4.323723    2.365082
      8          6           0       -6.756957    3.143061    1.690080
      9          6           0       -5.422458    2.889655    1.364795
     10          6           0       -4.798184    1.756376    0.674509
     11          6           0       -5.336833    0.583205    0.145129
     12          6           0       -4.492858   -0.343334   -0.466500
     13          6           0       -3.107814   -0.117365   -0.542662
     14          7           0       -2.261084   -1.095353   -1.136862
     15          6           0       -1.183477   -0.738039   -1.972583
     16          6           0       -1.198310    0.452044   -2.722998
     17          6           0       -0.088911    0.830421   -3.471167
     18          6           0        1.071377    0.041610   -3.516773
     19          6           0        2.272420    0.499274   -4.262331
     20          6           0        2.159766    0.913082   -5.600256
     21          6           0        3.267699    1.336710   -6.331478
     22          6           0        4.528596    1.364360   -5.734097
     23          6           0        4.663598    0.984870   -4.400012
     24          6           0        3.552538    0.558393   -3.664588
     25          7           0        3.736888    0.213194   -2.290749
     26          6           0        3.271944    0.941630   -1.196871
     27          6           0        2.603361    2.168350   -1.188052
     28          6           0        2.276650    2.720047    0.047136
     29          6           0        2.616791    2.068636    1.245803
     30          6           0        3.284638    0.846891    1.230137
     31          6           0        3.615013    0.257574   -0.000632
     32          6           0        4.315047   -0.954895   -0.398726
     33          6           0        4.898987   -2.036948    0.296522
     34          6           0        4.804687   -2.199248    1.774764
     35          6           0        5.962615   -2.346024    2.554035
     36          6           0        5.875926   -2.549286    3.932094
     37          6           0        4.628690   -2.616135    4.554943
     38          6           0        3.467913   -2.480285    3.789711
     39          6           0        3.555713   -2.274444    2.413186
     40          6           0        5.563593   -3.015493   -0.453350
     41          6           0        5.626932   -2.959884   -1.852966
     42          6           0        5.030072   -1.920638   -2.559837
     43          6           0        4.388391   -0.925197   -1.818932
     44          6           0        1.051728   -1.179018   -2.825160
     45          6           0       -0.049465   -1.566888   -2.071795
     46          6           0       -2.538886   -2.480085   -0.895567
     47          6           0       -2.921421   -3.282149   -1.979502
     48          6           0       -3.244885   -4.624490   -1.800571
     49          6           0       -3.203873   -5.176109   -0.519233
     50          6           0       -2.818339   -4.385147    0.560718
     51          6           0       -2.461922   -3.034566    0.403558
     52          6           0       -2.007011   -2.268065    1.598023
     53          6           0       -2.753739   -2.309871    2.786251
     54          6           0       -2.317749   -1.643141    3.931540
     55          6           0       -1.123615   -0.921282    3.910865
     56          6           0       -0.370374   -0.870505    2.735277
     57          6           0       -0.807046   -1.537573    1.591117
     58          6           0       -2.566363    1.063320    0.001759
     59          6           0       -3.409936    1.988259    0.595020
     60          1           0       -1.449906    3.890074   -0.132105
     61          1           0       -3.061252    4.456486   -0.618153
     62          1           0       -2.198509    5.260547    0.707377
     63          1           0       -2.512236    2.402577    3.175161
     64          1           0       -1.891425    4.053633    2.963562
     65          1           0       -1.125478    2.699111    2.112130
     66          1           0       -3.966432    5.700089    2.660497
     67          1           0       -6.338510    6.152528    3.236463
     68          1           0       -8.110417    4.533446    2.623664
     69          1           0       -7.538730    2.435660    1.424485
     70          1           0       -6.404928    0.386376    0.194126
     71          1           0       -4.904541   -1.253906   -0.889579
     72          1           0       -2.072397    1.093173   -2.695855
     73          1           0       -0.115762    1.772732   -4.012867
     74          1           0        1.183342    0.870032   -6.074818
     75          1           0        3.147029    1.636302   -7.368993
     76          1           0        5.398654    1.692067   -6.295870
     77          1           0        5.629097    1.030073   -3.904865
     78          1           0        2.355180    2.674903   -2.114796
     79          1           0        1.761237    3.676359    0.082783
     80          1           0        2.366396    2.530465    2.196977
     81          1           0        3.555848    0.362024    2.160996
     82          1           0        6.935371   -2.286915    2.073110
     83          1           0        6.784866   -2.652727    4.519258
     84          1           0        4.560964   -2.775816    5.627832
     85          1           0        2.490103   -2.540855    4.260637
     86          1           0        2.648516   -2.183704    1.822417
     87          1           0        6.010165   -3.856816    0.068727
     88          1           0        6.139478   -3.749892   -2.395190
     89          1           0        5.068474   -1.876710   -3.643467
     90          1           0        1.916082   -1.834661   -2.863539
     91          1           0       -0.026509   -2.514177   -1.543863
     92          1           0       -2.971123   -2.828596   -2.965143
     93          1           0       -3.540272   -5.229498   -2.653342
     94          1           0       -3.457766   -6.220702   -0.361657
     95          1           0       -2.752053   -4.824568    1.552057
     96          1           0       -3.693577   -2.855204    2.804413
     97          1           0       -2.916312   -1.683316    4.837898
     98          1           0       -0.783898   -0.399610    4.801774
     99          1           0        0.559690   -0.309026    2.701551
    100          1           0       -0.205258   -1.495432    0.689036
    101          1           0       -1.493992    1.226773   -0.036774
 ---------------------------------------------------------------------

 SCF Done:  E(RB3LYP) =  -2306.93187489     A.U. after   16 cycles

 Excitation energies and oscillator strengths:

 Excited state symmetry could not be determined.
 Excited State   1:      Triplet-?Sym    2.7030 eV  458.69 nm  f=0.0000  <S**2>=2.000
     196 ->202         0.15127
     199 ->200         0.52236
     199 ->201         0.15399
     199 ->202         0.30189
 This state for optimization and/or second-order correction.
 Total Energy, E(TD-HF/TD-DFT) =  -2306.83254166
 Copying the excited state density for this state as the 1-particle RhoCI density.

 Excited state symmetry could not be determined.
 Excited State   2:      Triplet-?Sym    2.9763 eV  416.57 nm  f=0.0000  <S**2>=2.000
     196 ->200         0.21740
     199 ->200        -0.29003
     199 ->202         0.45161
     199 ->203        -0.21422

 Excited state symmetry could not be determined.
 Excited State   3:      Singlet-?Sym    3.3798 eV  366.84 nm  f=0.2755  <S**2>=0.000
     199 ->200         0.64137
     199 ->201         0.13667
     199 ->202        -0.22592
     199 ->203        -0.10224

 Excited state symmetry could not be determined.
 Excited State   4:      Singlet-?Sym    3.5205 eV  352.18 nm  f=0.3014  <S**2>=0.000
     199 ->200         0.25671
     199 ->202         0.63415

 Alpha  occ. eigenvalues --  -14.37510 -14.36234 -10.23580 -10.23024 -10.22979
 Alpha  occ. eigenvalues --  -10.22476 -10.22094 -10.21814 -10.20852 -10.20290
 Alpha  occ. eigenvalues --  -10.20144 -10.19949 -10.19872 -10.19808 -10.19677
 Alpha  occ. eigenvalues --  -10.19649 -10.19466 -10.19417 -10.19339 -10.19297
 Alpha  occ. eigenvalues --  -10.19261 -10.19240 -10.19220 -10.18986 -10.18730
 Alpha  occ. eigenvalues --  -10.18724 -10.18695 -10.18646 -10.18611 -10.18609
 Alpha  occ. eigenvalues --  -10.18569 -10.18556 -10.18529 -10.18524 -10.18505
 Alpha  occ. eigenvalues --  -10.18494 -10.18460 -10.18454 -10.18442 -10.18413
 Alpha  occ. eigenvalues --  -10.18388 -10.18363 -10.18355 -10.18348 -10.18342
 Alpha  occ. eigenvalues --  -10.18341 -10.18331 -10.18305 -10.18274 -10.18252
 Alpha  occ. eigenvalues --  -10.18244 -10.18236 -10.18193 -10.18086 -10.18083
 Alpha  occ. eigenvalues --  -10.17732 -10.17673 -10.17580 -10.17313  -0.98589
 Alpha  occ. eigenvalues --   -0.96234  -0.88051  -0.87414  -0.86337  -0.85627
 Alpha  occ. eigenvalues --   -0.84692  -0.84295  -0.83730  -0.83354  -0.83000
 Alpha  occ. eigenvalues --   -0.80399  -0.78268  -0.77799  -0.77375  -0.76977
 Alpha  occ. eigenvalues --   -0.76740  -0.74948  -0.74654  -0.74064  -0.73944
 Alpha  occ. eigenvalues --   -0.73814  -0.73435  -0.72953  -0.72534  -0.72392
 Alpha  occ. eigenvalues --   -0.71783  -0.71015  -0.70366  -0.69080  -0.68129
 Alpha  occ. eigenvalues --   -0.64606  -0.64051  -0.63191  -0.62907  -0.62078
 Alpha  occ. eigenvalues --   -0.61782  -0.60729  -0.60493  -0.60131  -0.59760
 Alpha  occ. eigenvalues --   -0.59579  -0.59242  -0.58255  -0.58092  -0.57336
 Alpha  occ. eigenvalues --   -0.56927  -0.56427  -0.55898  -0.54904  -0.53470
 Alpha  occ. eigenvalues --   -0.52932  -0.52119  -0.51411  -0.50796  -0.50540
 Alpha  occ. eigenvalues --   -0.50316  -0.49549  -0.49229  -0.48295  -0.47630
 Alpha  occ. eigenvalues --   -0.47237  -0.46813  -0.46215  -0.45810  -0.45449
 Alpha  occ. eigenvalues --   -0.45378  -0.45134  -0.44710  -0.44244  -0.44159
 Alpha  occ. eigenvalues --   -0.44074  -0.43980  -0.43684  -0.43547  -0.43095
 Alpha  occ. eigenvalues --   -0.42908  -0.42612  -0.42443  -0.42269  -0.42160
 Alpha  occ. eigenvalues --   -0.42085  -0.41940  -0.41758  -0.41479  -0.41477
 Alpha  occ. eigenvalues --   -0.41249  -0.41189  -0.41110  -0.40912  -0.39068
 Alpha  occ. eigenvalues --   -0.38631  -0.38334  -0.38135  -0.37816  -0.37341
 Alpha  occ. eigenvalues --   -0.37185  -0.37048  -0.36730  -0.36509  -0.36255
 Alpha  occ. eigenvalues --   -0.36173  -0.36025  -0.35687  -0.35333  -0.35238
 Alpha  occ. eigenvalues --   -0.35072  -0.34788  -0.34757  -0.34451  -0.34007
 Alpha  occ. eigenvalues --   -0.33723  -0.33656  -0.33630  -0.33521  -0.33371
 Alpha  occ. eigenvalues --   -0.33025  -0.32332  -0.31458  -0.31401  -0.31265
 Alpha  occ. eigenvalues --   -0.30191  -0.27842  -0.27469  -0.26832  -0.26247
 Alpha  occ. eigenvalues --   -0.26121  -0.25357  -0.25015  -0.24749  -0.24588
 Alpha  occ. eigenvalues --   -0.24472  -0.24052  -0.23686  -0.23284  -0.22805
 Alpha  occ. eigenvalues --   -0.21739  -0.20684  -0.19449  -0.17770
 Alpha virt. eigenvalues --   -0.03368  -0.02963  -0.02649  -0.02098  -0.01334
 Alpha virt. eigenvalues --   -0.00851  -0.00209   0.00083   0.00342   0.00424
 Alpha virt. eigenvalues --    0.00468   0.01639   0.01771   0.02154   0.02445

 Mulliken charges:
               1
     1  C   -0.441199
     2  C   -0.061499
     3  C   -0.441127
     4  C    0.102314
     5  C   -0.204074
     6  C   -0.133014
     7  C   -0.136618
     8  C   -0.194249
     9  C    0.079059
    10  C    0.087584
    11  C   -0.205692
    12  C   -0.184347
    13  C    0.305452
    14  N   -0.665441
    15  C    0.329171
    16  C   -0.187242
    17  C   -0.173068
    18  C    0.072155
    19  C    0.083419
    20  C   -0.197467
    21  C   -0.119882
    22  C   -0.144189
    23  C   -0.140075
    24  C    0.189320
    25  N   -0.725678
    26  C    0.317742
    27  C   -0.166650
    28  C   -0.148717
    29  C   -0.151404
    30  C   -0.208346
    31  C    0.054517
    32  C    0.008006
    33  C    0.013542
    34  C    0.066057
    35  C   -0.163272
    36  C   -0.133465
    37  C   -0.127213
    38  C   -0.139259
    39  C   -0.171502
    40  C   -0.187026
    41  C   -0.143371
    42  C   -0.185239
    43  C    0.311072
    44  C   -0.170989
    45  C   -0.194552
    46  C    0.187215
    47  C   -0.147080
    48  C   -0.139739
    49  C   -0.124440
    50  C   -0.191946
    51  C    0.073780
    52  C    0.072193
    53  C   -0.160757
    54  C   -0.134184
    55  C   -0.128595
    56  C   -0.148740
    57  C   -0.163186
    58  C   -0.242660
    59  C    0.094200
    60  H    0.147922
    61  H    0.154138
    62  H    0.142542
    63  H    0.160655
    64  H    0.139265
    65  H    0.151178
    66  H    0.122152
    67  H    0.124185
    68  H    0.124985
    69  H    0.125688
    70  H    0.128280
    71  H    0.137982
    72  H    0.146678
    73  H    0.130266
    74  H    0.140778
    75  H    0.135231
    76  H    0.137197
    77  H    0.150800
    78  H    0.136390
    79  H    0.125405
    80  H    0.122157
    81  H    0.151072
    82  H    0.133363
    83  H    0.128959
    84  H    0.127925
    85  H    0.136599
    86  H    0.145824
    87  H    0.126648
    88  H    0.127350
    89  H    0.138661
    90  H    0.145840
    91  H    0.148517
    92  H    0.143741
    93  H    0.134438
    94  H    0.132617
    95  H    0.139434
    96  H    0.131853
    97  H    0.129642
    98  H    0.128708
    99  H    0.143728
   100  H    0.150309
   101  H    0.151293
 Sum of Mulliken charges =  -0.00000

 Dipole moment (field-independent basis, Debye):
    X=             -0.4319    Y=             -0.3259    Z=             -1.1757  Tot=              1.2942
 Quadrupole moment (field-independent basis, Debye-Ang):
   XX=           -325.7417   YY=           -323.5279   ZZ=           -309.2606
   XY=              5.8731   XZ=             -6.9222   YZ=             -1.2166

 Normal termination of Gaussian 16 at Sat Nov  5 11:58:11 2022.
