 Gaussian 16, Revision B.01,
 Gaussian 16:  ES64L-G16RevB.01 20-Dec-2017

 -----------------------------
 #p b3lyp/6-31g(d) opt SCF=XQC
 -----------------------------

 ------------------------------
 Gaussian input prepared by ASE
 ------------------------------
 Symbolic Z-matrix:
 Charge =  0 Multiplicity = 1

 SCF Done:  E(RB3LYP) =  -2237.14732972     A.U. after   15 cycles
 SCF Done:  E(RB3LYP) =  -2237.15863293     A.U. after   12 cycles
 SCF Done:  E(RB3LYP) =  -2237.15830928     A.U. after   12 cycles
 SCF Done:  E(RB3LYP) =  -2237.15993264     A.U. after   12 cycles
 SCF Done:  E(RB3LYP) =  -2237.16009593     A.U. after   12 cycles
 SCF Done:  E(RB3LYP) =  -2237.16010749     A.U. after   10 cycles
 SCF Done:  E(RB3LYP) =  -2237.16013423     A.U. after   10 cycles
 SCF Done:  E(RB3LYP) =  -2237.16013762     A.U. after    9 cycles
 SCF Done:  E(RB3LYP) =  -2237.16013868     A.U. after    9 cycles
 SCF Done:  E(RB3LYP) =  -2237.16013900     A.U. after    8 cycles
 SCF Done:  E(RB3LYP) =  -2237.16013910     A.U. after    7 cycles
 SCF Done:  E(RB3LYP) =  -2237.16013912     A.U. after    6 cycles
 Optimization completed.
    -- Stationary point found.

                         Standard orientation:
 ---------------------------------------------------------------------
 Center     Atomic      Atomic             Coordinates (Angstroms)
 Number     Number       Type             X           Y           Z
 ---------------------------------------------------------------------
      1          6           0      -11.864541   -2.749450    1.773698
      2          6           0      -11.924868   -1.411646    1.379267
      3          6           0      -10.863254   -0.836212    0.682591
      4          6           0       -9.717773   -1.584850    0.363368
      5          6           0       -8.587267   -0.970803   -0.380463
      6          6           0       -8.819065   -0.052959   -1.418079
      7          6           0       -7.751476    0.524705   -2.102541
      8          6           0       -6.438225    0.198792   -1.769570
      9          6           0       -6.173459   -0.715871   -0.737315
     10          6           0       -4.776609   -1.064335   -0.366874
     11          6           0       -4.429333   -2.376948   -0.003320
     12          6           0       -3.117923   -2.699948    0.344030
     13          6           0       -2.124272   -1.724914    0.329308
     14          6           0       -2.447142   -0.408046   -0.032673
     15          6           0       -1.402421    0.644854   -0.047167
     16          7           0       -1.790214    1.915554   -0.232556
     17          6           0       -0.805567    2.827805   -0.223278
     18          6           0       -1.171699    4.249482   -0.428171
     19          6           0       -2.520981    4.634602   -0.467897
     20          6           0       -2.864193    5.971331   -0.654562
     21          6           0       -1.866600    6.937083   -0.809532
     22          6           0       -0.521709    6.559915   -0.776181
     23          6           0       -0.173912    5.224978   -0.585245
     24          7           0        0.492269    2.539862   -0.049244
     25          6           0        0.775786    1.242514    0.124106
     26          7           0        2.112917    0.900730    0.307263
     27          6           0        3.118263    1.762287    0.809524
     28          6           0        3.005929    3.062722    1.308680
     29          6           0        4.141723    3.657672    1.853525
     30          6           0        5.358839    2.969136    1.914844
     31          6           0        5.465757    1.673037    1.420101
     32          6           0        4.346201    1.055626    0.843322
     33          6           0        4.096994   -0.272938    0.297945
     34          6           0        2.705103   -0.358535    0.028950
     35          6           0        2.081983   -1.520326   -0.454364
     36          6           0        2.858983   -2.650556   -0.655448
     37          6           0        4.239600   -2.611509   -0.426339
     38          6           0        5.265374   -3.619334   -0.570306
     39          6           0        5.249955   -4.965380   -0.955584
     40          6           0        6.452789   -5.661930   -1.025190
     41          6           0        7.667273   -5.023448   -0.721602
     42          6           0        7.706271   -3.685423   -0.333273
     43          6           0        6.493002   -2.998966   -0.247410
     44          7           0        6.252569   -1.660341    0.110871
     45          6           0        7.302123   -0.694441    0.107045
     46          6           0        8.278461   -0.728930    1.109082
     47          6           0        9.328987    0.189958    1.087323
     48          6           0        9.403018    1.148436    0.074449
     49          6           0        8.426820    1.180238   -0.923965
     50          6           0        7.382798    0.256049   -0.916911
     51          6           0        4.872857   -1.417404    0.007222
     52          7           0       -0.131301    0.258038    0.135596
     53          6           0       -3.769099   -0.090508   -0.371745
     54          6           0       -7.259136   -1.286689   -0.056697
     55          6           0       -9.672405   -2.930154    0.766402
     56          6           0      -10.732946   -3.506158    1.464205
     57          1           0      -12.691617   -3.198112    2.317220
     58          1           0      -12.797186   -0.810498    1.622299
     59          1           0      -10.909133    0.213055    0.404355
     60          1           0       -9.838943    0.187110   -1.704564
     61          1           0       -7.944699    1.221271   -2.914140
     62          1           0       -5.613896    0.634629   -2.326592
     63          1           0       -5.189466   -3.153040   -0.014573
     64          1           0       -2.869349   -3.720794    0.620932
     65          1           0       -1.103832   -1.965046    0.605325
     66          1           0       -3.286005    3.876352   -0.345589
     67          1           0       -3.911220    6.260915   -0.678646
     68          1           0       -2.136185    7.979603   -0.957007
     69          1           0        0.257026    7.307328   -0.901205
     70          1           0        0.866830    4.921195   -0.565522
     71          1           0        2.064005    3.589469    1.274884
     72          1           0        4.070274    4.668231    2.246534
     73          1           0        6.228788    3.443781    2.360137
     74          1           0        6.405247    1.145562    1.504972
     75          1           0        1.019463   -1.535852   -0.638657
     76          1           0        2.392546   -3.568044   -1.003456
     77          1           0        4.312429   -5.457106   -1.201971
     78          1           0        6.455316   -6.707270   -1.320921
     79          1           0        8.597378   -5.581026   -0.790892
     80          1           0        8.648622   -3.196971   -0.109109
     81          1           0        8.197887   -1.464145    1.903983
     82          1           0       10.083412    0.161725    1.868730
     83          1           0       10.217202    1.867602    0.063513
     84          1           0        8.480306    1.922609   -1.715344
     85          1           0        6.624744    0.268032   -1.693760
     86          1           0       -4.004792    0.937157   -0.622681
     87          1           0       -7.066344   -1.953900    0.778356
     88          1           0       -8.808064   -3.535421    0.507353
     89          1           0      -10.678505   -4.550970    1.758795
 ---------------------------------------------------------------------

 The electronic state is 1-A.
 Alpha  occ. eigenvalues --  -14.39553 -14.38023 -14.33914 -14.33903 -14.33549
 Alpha  occ. eigenvalues --  -10.31050 -10.27891 -10.27861 -10.23803 -10.22918
 Alpha  occ. eigenvalues --  -10.22902 -10.22585 -10.21957 -10.20422 -10.20328
 Alpha  occ. eigenvalues --  -10.20304 -10.20254 -10.20168 -10.20164 -10.20132
 Alpha  occ. eigenvalues --  -10.20090 -10.20070 -10.20018 -10.19959 -10.19903
 Alpha  occ. eigenvalues --  -10.19827 -10.19820 -10.19557 -10.19522 -10.19508
 Alpha  occ. eigenvalues --  -10.19468 -10.19464 -10.19444 -10.19411 -10.19391
 Alpha  occ. eigenvalues --  -10.19233 -10.19107 -10.19088 -10.19067 -10.19057
 Alpha  occ. eigenvalues --  -10.19055 -10.19013 -10.18992 -10.18976 -10.18672
 Alpha  occ. eigenvalues --  -10.18523 -10.18503 -10.18419 -10.18393 -10.18382
 Alpha  occ. eigenvalues --  -10.18361 -10.18247 -10.18244 -10.17994 -10.17905
 Alpha  occ. eigenvalues --  -10.17890  -1.03705  -0.98812  -0.98354  -0.91210
 Alpha  occ. eigenvalues --   -0.90181  -0.87297  -0.87005  -0.85944  -0.85613
 Alpha  occ. eigenvalues --   -0.84320  -0.84181  -0.83915  -0.83764  -0.79004
 Alpha  occ. eigenvalues --   -0.78750  -0.77390  -0.77059  -0.76606  -0.75797
 Alpha  occ. eigenvalues --   -0.75731  -0.74903  -0.74869  -0.74493  -0.74031
 Alpha  occ. eigenvalues --   -0.73279  -0.72839  -0.71791  -0.71598  -0.70722
 Alpha  occ. eigenvalues --   -0.67990  -0.67646  -0.64492  -0.63670  -0.63133
 Alpha  occ. eigenvalues --   -0.62445  -0.62054  -0.61607  -0.61068  -0.60997
 Alpha  occ. eigenvalues --   -0.60438  -0.59484  -0.59207  -0.58722  -0.57862
 Alpha  occ. eigenvalues --   -0.57212  -0.56945  -0.56199  -0.54868  -0.54600
 Alpha  occ. eigenvalues --   -0.53448  -0.52723  -0.51856  -0.51654  -0.51002
 Alpha  occ. eigenvalues --   -0.50354  -0.49419  -0.49258  -0.48350  -0.47513
 Alpha  occ. eigenvalues --   -0.47207  -0.47145  -0.46874  -0.46695  -0.46229
 Alpha  occ. eigenvalues --   -0.45781  -0.45421  -0.44883  -0.44830  -0.44346
 Alpha  occ. eigenvalues --   -0.43984  -0.43683  -0.43555  -0.43406  -0.43196
 Alpha  occ. eigenvalues --   -0.43054  -0.42871  -0.42726  -0.42692  -0.42363
 Alpha  occ. eigenvalues --   -0.42223  -0.41988  -0.41764  -0.41711  -0.41523
 Alpha  occ. eigenvalues --   -0.41175  -0.40780  -0.39054  -0.38443  -0.37766
 Alpha  occ. eigenvalues --   -0.37612  -0.37264  -0.37096  -0.36879  -0.36736
 Alpha  occ. eigenvalues --   -0.36486  -0.36178  -0.35942  -0.35879  -0.35597
 Alpha  occ. eigenvalues --   -0.35572  -0.35151  -0.34876  -0.34789  -0.34596
 Alpha  occ. eigenvalues --   -0.34504  -0.34398  -0.33524  -0.33447  -0.33251
 Alpha  occ. eigenvalues --   -0.33184  -0.32867  -0.32071  -0.30350  -0.28062
 Alpha  occ. eigenvalues --   -0.27950  -0.26826  -0.26768  -0.26575  -0.26376
 Alpha  occ. eigenvalues --   -0.26208  -0.25543  -0.25365  -0.25070  -0.25052
 Alpha  occ. eigenvalues --   -0.24936  -0.23368  -0.23288  -0.22518  -0.22177
 Alpha  occ. eigenvalues --   -0.19577  -0.19241
 Alpha virt. eigenvalues --   -0.07003  -0.05616  -0.03250  -0.02634  -0.02307
 Alpha virt. eigenvalues --   -0.01729  -0.01378  -0.00910  -0.00442  -0.00149
 Alpha virt. eigenvalues --    0.00262   0.01261   0.02278   0.02469   0.02903

 Mulliken charges:
               1
     1  C   -0.126332
     2  C   -0.133572
     3  C   -0.173580
     4  C    0.088434
     5  C    0.089662
     6  C   -0.173362
     7  C   -0.138027
     8  C   -0.172570
     9  C    0.092025
    10  C    0.085249
    11  C   -0.161136
    12  C   -0.142180
    13  C   -0.162417
    14  C    0.075695
    15  C    0.456884
    16  N   -0.544602
    17  C    0.452884
    18  C    0.075455
    19  C   -0.156879
    20  C   -0.139713
    21  C   -0.115893
    22  C   -0.139653
    23  C   -0.161287
    24  N   -0.543264
    25  C    0.698753
    26  N   -0.756345
    27  C    0.296958
    28  C   -0.149891
    29  C   -0.146024
    30  C   -0.148067
    31  C   -0.186878
    32  C    0.066901
    33  C    0.039211
    34  C    0.302695
    35  C   -0.160726
    36  C   -0.225790
    37  C    0.072730
    38  C    0.067812
    39  C   -0.198545
    40  C   -0.144245
    41  C   -0.141869
    42  C   -0.182046
    43  C    0.307898
    44  N   -0.740414
    45  C    0.221349
    46  C   -0.157319
    47  C   -0.139601
    48  C   -0.121951
    49  C   -0.138052
    50  C   -0.119088
    51  C    0.207516
    52  N   -0.546829
    53  C   -0.216622
    54  C   -0.232989
    55  C   -0.171355
    56  C   -0.133816
    57  H    0.130318
    58  H    0.131024
    59  H    0.132640
    60  H    0.133481
    61  H    0.132740
    62  H    0.137049
    63  H    0.135789
    64  H    0.136578
    65  H    0.166609
    66  H    0.163649
    67  H    0.135567
    68  H    0.135111
    69  H    0.135651
    70  H    0.166111
    71  H    0.167047
    72  H    0.126165
    73  H    0.124120
    74  H    0.150231
    75  H    0.170727
    76  H    0.130599
    77  H    0.128355
    78  H    0.123196
    79  H    0.125354
    80  H    0.137956
    81  H    0.151716
    82  H    0.139785
    83  H    0.136573
    84  H    0.141784
    85  H    0.154689
    86  H    0.165532
    87  H    0.137770
    88  H    0.129968
    89  H    0.130936
 Sum of Mulliken charges =  -0.00000

 Dipole moment (field-independent basis, Debye):
    X=              0.1840    Y=              1.4308    Z=             -0.2335  Tot=              1.4614
 Quadrupole moment (field-independent basis, Debye-Ang):
   XX=           -261.7481   YY=           -286.5882   ZZ=           -319.5230
   XY=              7.5117   XZ=              2.6462   YZ=             -5.8240

 1\1\GINC-NODE92\FOpt\RB3LYP\6-31G(d)\C51H33N5\WYKGROUP\05-Nov-2022\0\\
 #p b3lyp/6-31g(d) opt SCF=XQC\\Gaussian input prepared by ASE\\0,1\C,1
 1.9381433014,-2.2530754509,-0.6751300227\C,11.8837278666,-0.8674805433
 ,-0.8366867054\C,10.7645664053,-0.1540124839,-0.4101349429\C,9.6748914
 665,-0.8088293229,0.1884575822\C,8.4829597688,-0.047136086,0.643982203
 3\C,8.6181201133,1.2189564773,1.2369029349\C,7.4931022308,1.9292054145
 ,1.6514042039\C,6.2175248254,1.3932038719,1.4861102842\C,6.0491359619,
 0.129438078,0.8972137077\C,4.6928660489,-0.4487022346,0.7071306399\C,4

 Normal termination of Gaussian 16 at Sat Nov  5 02:20:30 2022.
