 Gaussian 16, Revision B.01,
 Gaussian 16:  ES64L-G16RevB.01 20-Dec-2017

 -----------------------------
 #p b3lyp/6-31g(d) opt SCF=XQC
 -----------------------------

 ------------------------------
 Gaussian input prepared by ASE
 ------------------------------
 Symbolic Z-matrix:
 Charge =  0 Multiplicity = 1

 SCF Done:  E(RB3LYP) =  -2404.64184482     A.U. after   16 cycles
 SCF Done:  E(RB3LYP) =  -2404.65302693     A.U. after   12 cycles
 SCF Done:  E(RB3LYP) =  -2404.65351832     A.U. after   11 cycles
 SCF Done:  E(RB3LYP) =  -2404.65360473     A.U. after   11 cycles
 SCF Done:  E(RB3LYP) =  -2404.65362361     A.U. after   10 cycles
 SCF Done:  E(RB3LYP) =  -2404.65362841     A.U. after    9 cycles
 SCF Done:  E(RB3LYP) =  -2404.65362933     A.U. after    8 cycles
 SCF Done:  E(RB3LYP) =  -2404.65362941     A.U. after    6 cycles
 SCF Done:  E(RB3LYP) =  -2404.65362944     A.U. after    6 cycles
 SCF Done:  E(RB3LYP) =  -2404.65362945     A.U. after    6 cycles
 SCF Done:  E(RB3LYP) =  -2404.65362946     A.U. after    7 cycles
 SCF Done:  E(RB3LYP) =  -2404.65362946     A.U. after    6 cycles
 SCF Done:  E(RB3LYP) =  -2404.65362947     A.U. after    5 cycles
 Optimization completed.
    -- Stationary point found.

                         Standard orientation:
 ---------------------------------------------------------------------
 Center     Atomic      Atomic             Coordinates (Angstroms)
 Number     Number       Type             X           Y           Z
 ---------------------------------------------------------------------
      1          6           0       -9.803588   -6.700313   -0.051162
      2          6           0       -9.659242   -5.309600   -0.042629
      3          6           0       -8.391481   -4.736897   -0.037680
      4          6           0       -7.250312   -5.556599   -0.041250
      5          6           0       -5.930440   -4.934660   -0.035997
      6          7           0       -5.646529   -3.667090   -0.027624
      7          6           0       -4.254174   -3.616919   -0.026166
      8          6           0       -3.373407   -2.537323   -0.018675
      9          6           0       -1.999174   -2.815569   -0.019145
     10          6           0       -1.020502   -1.697860   -0.011274
     11          7           0       -1.503539   -0.447333   -0.006803
     12          6           0       -0.584597    0.534191    0.000100
     13          6           0       -1.063972    1.932196    0.004743
     14          6           0       -2.451286    2.207023   -0.007531
     15          6           0       -2.940217    3.505672   -0.000446
     16          6           0       -2.013820    4.554727    0.024262
     17          6           0       -0.615718    4.304827    0.022983
     18          6           0       -0.148099    2.992360    0.016027
     19          6           0        0.040445    5.597231    0.018679
     20          6           0        1.379860    6.001401    0.028619
     21          6           0        1.676811    7.361525    0.040764
     22          6           0        0.647836    8.318413    0.049786
     23          6           0       -0.694192    7.942412    0.039630
     24          6           0       -0.984201    6.576345    0.015007
     25          7           0       -2.229958    5.930957    0.018912
     26          6           0       -3.498852    6.574830    0.018003
     27          6           0       -3.826041    7.477481   -1.001306
     28          6           0       -5.067400    8.113208   -0.993768
     29          6           0       -5.993256    7.839926    0.015074
     30          6           0       -5.668594    6.932570    1.025415
     31          6           0       -4.422088    6.306939    1.036096
     32          7           0        0.741456    0.321384    0.003005
     33          6           0        1.131808   -0.962948   -0.001600
     34          6           0        2.582388   -1.247876    0.001239
     35          6           0        3.044021   -2.584555   -0.007766
     36          6           0        4.397261   -2.892056   -0.001975
     37          6           0        5.310325   -1.831325    0.017692
     38          6           0        4.871997   -0.480448    0.012833
     39          6           0        3.507980   -0.196161    0.007614
     40          6           0        6.062797    0.345878    0.003571
     41          6           0        6.280396    1.727967    0.008644
     42          6           0        7.587286    2.207727    0.016892
     43          6           0        8.675657    1.318973    0.026804
     44          6           0        8.486307   -0.061835    0.021419
     45          6           0        7.172544   -0.535559    0.000717
     46          7           0        6.703167   -1.857775    0.009841
     47          6           0        7.514053   -3.026936    0.011850
     48          6           0        8.451151   -3.231792   -1.008310
     49          6           0        9.250356   -4.374755   -0.997853
     50          6           0        9.107891   -5.325362    0.014924
     51          6           0        8.166552   -5.123652    1.026221
     52          6           0        7.376539   -3.974237    1.033821
     53          7           0        0.284096   -2.007218   -0.008643
     54          6           0       -1.533402   -4.151553   -0.027119
     55          6           0       -2.404920   -5.238299   -0.034842
     56          6           0       -3.757288   -4.929043   -0.034054
     57          8           0       -4.830953   -5.777668   -0.040379
     58          6           0       -7.397843   -6.952564   -0.049844
     59          6           0       -8.671349   -7.517645   -0.054748
     60          1           0      -10.795257   -7.144528   -0.055055
     61          1           0      -10.538148   -4.670891   -0.039911
     62          1           0       -8.262519   -3.659667   -0.031157
     63          1           0       -3.726709   -1.513912   -0.012685
     64          1           0       -3.139704    1.370426   -0.025577
     65          1           0       -4.007858    3.697085   -0.018701
     66          1           0        0.913667    2.772829    0.015770
     67          1           0        2.176225    5.261898    0.031031
     68          1           0        2.712814    7.688003    0.047395
     69          1           0        0.900235    9.375167    0.067803
     70          1           0       -1.483891    8.686226    0.055655
     71          1           0       -3.111454    7.666170   -1.796420
     72          1           0       -5.315188    8.813452   -1.786717
     73          1           0       -6.962231    8.330990    0.013722
     74          1           0       -6.381694    6.718735    1.816750
     75          1           0       -4.153980    5.619254    1.832130
     76          1           0        2.308873   -3.380478   -0.021971
     77          1           0        4.732745   -3.923616   -0.017407
     78          1           0        3.145665    0.825721    0.004824
     79          1           0        5.439161    2.415982    0.010330
     80          1           0        7.769350    3.278592    0.019739
     81          1           0        9.688105    1.713268    0.041720
     82          1           0        9.331006   -0.742539    0.038105
     83          1           0        8.539289   -2.501076   -1.806265
     84          1           0        9.976541   -4.527611   -1.791447
     85          1           0        9.726799   -6.218114    0.016021
     86          1           0        8.053832   -5.856023    1.820830
     87          1           0        6.660328   -3.799247    1.830631
     88          1           0       -0.462701   -4.315968   -0.027306
     89          1           0       -2.047307   -6.262302   -0.041235
     90          1           0       -6.516595   -7.585111   -0.052675
     91          1           0       -8.779451   -8.598700   -0.061429
 ---------------------------------------------------------------------

 The electronic state is 1-A.
 Alpha  occ. eigenvalues --  -19.22301 -14.38659 -14.38579 -14.33104 -14.32345
 Alpha  occ. eigenvalues --  -14.32291 -14.32272 -10.28613 -10.26443 -10.26316
 Alpha  occ. eigenvalues --  -10.26287 -10.25036 -10.24251 -10.24155 -10.22924
 Alpha  occ. eigenvalues --  -10.22839 -10.22593 -10.22522 -10.21789 -10.21179
 Alpha  occ. eigenvalues --  -10.20397 -10.20391 -10.20330 -10.20327 -10.20302
 Alpha  occ. eigenvalues --  -10.20288 -10.20236 -10.20225 -10.20164 -10.20066
 Alpha  occ. eigenvalues --  -10.20018 -10.19998 -10.19966 -10.19797 -10.19782
 Alpha  occ. eigenvalues --  -10.19772 -10.19694 -10.19394 -10.19315 -10.18984
 Alpha  occ. eigenvalues --  -10.18974 -10.18951 -10.18940 -10.18922 -10.18910
 Alpha  occ. eigenvalues --  -10.18909 -10.18893 -10.18885 -10.18866 -10.18858
 Alpha  occ. eigenvalues --  -10.18850 -10.18830 -10.18824 -10.18797 -10.18786
 Alpha  occ. eigenvalues --  -10.18716 -10.18600 -10.18279 -10.18221  -1.12720
 Alpha  occ. eigenvalues --   -1.00660  -0.99336  -0.99254  -0.92667  -0.89371
 Alpha  occ. eigenvalues --   -0.89292  -0.87276  -0.87183  -0.86774  -0.84943
 Alpha  occ. eigenvalues --   -0.84440  -0.84338  -0.84146  -0.84060  -0.78833
 Alpha  occ. eigenvalues --   -0.78737  -0.78334  -0.76257  -0.76059  -0.75873
 Alpha  occ. eigenvalues --   -0.75715  -0.75538  -0.75297  -0.75212  -0.75042
 Alpha  occ. eigenvalues --   -0.73501  -0.72412  -0.72182  -0.71659  -0.71575
 Alpha  occ. eigenvalues --   -0.67943  -0.67043  -0.65379  -0.64289  -0.63848
 Alpha  occ. eigenvalues --   -0.62747  -0.62208  -0.62085  -0.61718  -0.61682
 Alpha  occ. eigenvalues --   -0.60824  -0.60502  -0.59166  -0.58763  -0.58201
 Alpha  occ. eigenvalues --   -0.57910  -0.57777  -0.57394  -0.57044  -0.54336
 Alpha  occ. eigenvalues --   -0.53953  -0.53645  -0.53178  -0.52524  -0.51554
 Alpha  occ. eigenvalues --   -0.51363  -0.50863  -0.50514  -0.50335  -0.49200
 Alpha  occ. eigenvalues --   -0.48698  -0.48062  -0.47664  -0.47237  -0.47148
 Alpha  occ. eigenvalues --   -0.46322  -0.46156  -0.45942  -0.45111  -0.45058
 Alpha  occ. eigenvalues --   -0.44945  -0.44776  -0.44376  -0.44308  -0.44117
 Alpha  occ. eigenvalues --   -0.43782  -0.43491  -0.43403  -0.43387  -0.43218
 Alpha  occ. eigenvalues --   -0.42798  -0.42768  -0.42155  -0.42076  -0.41849
 Alpha  occ. eigenvalues --   -0.41792  -0.41567  -0.41473  -0.41319  -0.40627
 Alpha  occ. eigenvalues --   -0.38948  -0.38023  -0.37748  -0.37654  -0.37585
 Alpha  occ. eigenvalues --   -0.37523  -0.36723  -0.36683  -0.36623  -0.36469
 Alpha  occ. eigenvalues --   -0.36394  -0.36144  -0.36045  -0.36000  -0.35868
 Alpha  occ. eigenvalues --   -0.35628  -0.35399  -0.34968  -0.34734  -0.34199
 Alpha  occ. eigenvalues --   -0.34057  -0.33536  -0.33471  -0.33265  -0.33258
 Alpha  occ. eigenvalues --   -0.32747  -0.31113  -0.30662  -0.28841  -0.27905
 Alpha  occ. eigenvalues --   -0.27675  -0.27184  -0.26406  -0.26307  -0.26235
 Alpha  occ. eigenvalues --   -0.26140  -0.25813  -0.25035  -0.24969  -0.24889
 Alpha  occ. eigenvalues --   -0.24752  -0.23835  -0.22015  -0.21394  -0.21245
 Alpha  occ. eigenvalues --   -0.20012  -0.19850
 Alpha virt. eigenvalues --   -0.05820  -0.05303  -0.04824  -0.02591  -0.02455
 Alpha virt. eigenvalues --   -0.01856  -0.01676  -0.01461  -0.01361  -0.00663
 Alpha virt. eigenvalues --   -0.00227   0.00985   0.01643   0.02369   0.03978

 Mulliken charges:
               1
     1  C   -0.119394
     2  C   -0.137829
     3  C   -0.155775
     4  C    0.067676
     5  C    0.487555
     6  N   -0.543447
     7  C    0.253210
     8  C   -0.214179
     9  C    0.060255
    10  C    0.458283
    11  N   -0.553276
    12  C    0.456013
    13  C    0.065550
    14  C   -0.180142
    15  C   -0.182100
    16  C    0.335648
    17  C    0.060248
    18  C   -0.243579
    19  C    0.064660
    20  C   -0.194823
    21  C   -0.144393
    22  C   -0.141431
    23  C   -0.175916
    24  C    0.308127
    25  N   -0.737539
    26  C    0.259741
    27  C   -0.147134
    28  C   -0.142724
    29  C   -0.120251
    30  C   -0.142606
    31  C   -0.147432
    32  N   -0.549052
    33  C    0.455364
    34  C    0.065611
    35  C   -0.179524
    36  C   -0.182105
    37  C    0.335662
    38  C    0.060283
    39  C   -0.243449
    40  C    0.064635
    41  C   -0.194726
    42  C   -0.144366
    43  C   -0.141370
    44  C   -0.175938
    45  C    0.308082
    46  N   -0.737578
    47  C    0.259707
    48  C   -0.147173
    49  C   -0.142768
    50  C   -0.120338
    51  C   -0.142790
    52  C   -0.147494
    53  N   -0.560575
    54  C   -0.177247
    55  C   -0.195096
    56  C    0.355354
    57  O   -0.532151
    58  C   -0.164696
    59  C   -0.137106
    60  H    0.136176
    61  H    0.137997
    62  H    0.167940
    63  H    0.174514
    64  H    0.162072
    65  H    0.143560
    66  H    0.161566
    67  H    0.132347
    68  H    0.125466
    69  H    0.127929
    70  H    0.140682
    71  H    0.153603
    72  H    0.139835
    73  H    0.136706
    74  H    0.140603
    75  H    0.154537
    76  H    0.158387
    77  H    0.142185
    78  H    0.162246
    79  H    0.132833
    80  H    0.125835
    81  H    0.128160
    82  H    0.140682
    83  H    0.153817
    84  H    0.140060
    85  H    0.136822
    86  H    0.140359
    87  H    0.154246
    88  H    0.166699
    89  H    0.148436
    90  H    0.154674
    91  H    0.136872
 Sum of Mulliken charges =  -0.00000

 Dipole moment (field-independent basis, Debye):
    X=              0.1513    Y=             -0.7309    Z=              0.0055  Tot=              0.7464
 Quadrupole moment (field-independent basis, Debye-Ang):
   XX=           -257.3322   YY=           -266.1646   ZZ=           -336.9447
   XY=            -22.0742   XZ=             -4.0808   YZ=             -4.6105

 Normal termination of Gaussian 16 at Sat Nov  5 02:16:48 2022.
