 Gaussian 16, Revision B.01,
 Gaussian 16:  ES64L-G16RevB.01 20-Dec-2017

 -----------------------------
 #p b3lyp/6-31g(d) opt SCF=XQC
 -----------------------------

 ------------------------------
 Gaussian input prepared by ASE
 ------------------------------
 Symbolic Z-matrix:
 Charge =  0 Multiplicity = 1

 SCF Done:  E(RB3LYP) =  -2306.90579838     A.U. after   16 cycles
 SCF Done:  E(RB3LYP) =  -2306.92409128     A.U. after   15 cycles
 SCF Done:  E(RB3LYP) =  -2306.92583007     A.U. after   16 cycles
 SCF Done:  E(RB3LYP) =  -2306.93052134     A.U. after   13 cycles
 SCF Done:  E(RB3LYP) =  -2306.93113319     A.U. after   12 cycles
 SCF Done:  E(RB3LYP) =  -2306.93142984     A.U. after   12 cycles
 SCF Done:  E(RB3LYP) =  -2306.93164517     A.U. after   12 cycles
 SCF Done:  E(RB3LYP) =  -2306.93119214     A.U. after   13 cycles
 SCF Done:  E(RB3LYP) =  -2306.93172987     A.U. after   12 cycles
 SCF Done:  E(RB3LYP) =  -2306.93177462     A.U. after   11 cycles
 SCF Done:  E(RB3LYP) =  -2306.93183277     A.U. after   10 cycles
 SCF Done:  E(RB3LYP) =  -2306.93185104     A.U. after   10 cycles
 SCF Done:  E(RB3LYP) =  -2306.93186274     A.U. after   10 cycles
 SCF Done:  E(RB3LYP) =  -2306.93187437     A.U. after   10 cycles
 SCF Done:  E(RB3LYP) =  -2306.93187760     A.U. after   10 cycles
 SCF Done:  E(RB3LYP) =  -2306.93188105     A.U. after   10 cycles
 SCF Done:  E(RB3LYP) =  -2306.93188255     A.U. after   10 cycles
 SCF Done:  E(RB3LYP) =  -2306.93188264     A.U. after    9 cycles
 SCF Done:  E(RB3LYP) =  -2306.93188264     A.U. after    7 cycles
 SCF Done:  E(RB3LYP) =  -2306.93188276     A.U. after    7 cycles
 Optimization completed.
    -- Stationary point found.

                         Standard orientation:
 ---------------------------------------------------------------------
 Center     Atomic      Atomic             Coordinates (Angstroms)
 Number     Number       Type             X           Y           Z
 ---------------------------------------------------------------------
      1          6           0       -3.680724   -2.157478   -2.686779
      2          6           0       -4.234670   -0.825552   -2.133093
      3          6           0       -3.600470    0.362656   -2.890860
      4          6           0       -5.761694   -0.783800   -2.201947
      5          6           0       -6.585871   -0.849669   -3.319327
      6          6           0       -7.974883   -0.793330   -3.149394
      7          6           0       -8.528344   -0.670796   -1.870822
      8          6           0       -7.706111   -0.602687   -0.743661
      9          6           0       -6.320860   -0.660065   -0.913073
     10          6           0       -5.228489   -0.610259    0.064054
     11          6           0       -5.233124   -0.477437    1.452958
     12          6           0       -4.021612   -0.455462    2.143332
     13          6           0       -2.798565   -0.550132    1.457473
     14          7           0       -1.573455   -0.486161    2.179622
     15          6           0       -0.477673   -1.313950    1.861241
     16          6           0       -0.658322   -2.576890    1.267954
     17          6           0        0.437849   -3.339431    0.879843
     18          6           0        1.753129   -2.889352    1.074874
     19          6           0        2.908838   -3.685471    0.586665
     20          6           0        3.023374   -5.045231    0.921188
     21          6           0        4.100191   -5.817264    0.489806
     22          6           0        5.096491   -5.244235   -0.301720
     23          6           0        4.993096   -3.904334   -0.670498
     24          6           0        3.913191   -3.127439   -0.237574
     25          7           0        3.834563   -1.768669   -0.671329
     26          6           0        2.907295   -1.253136   -1.575631
     27          6           0        1.920696   -1.933043   -2.294151
     28          6           0        1.137505   -1.195902   -3.177347
     29          6           0        1.339295    0.185124   -3.347298
     30          6           0        2.325471    0.856560   -2.629276
     31          6           0        3.122254    0.143171   -1.719635
     32          6           0        4.233208    0.487336   -0.844455
     33          6           0        4.917935    1.683146   -0.534003
     34          6           0        4.501457    3.016547   -1.052676
     35          6           0        5.409260    3.828953   -1.749450
     36          6           0        5.037819    5.099368   -2.192117
     37          6           0        3.753131    5.583069   -1.939886
     38          6           0        2.842413    4.788132   -1.239809
     39          6           0        3.213703    3.517735   -0.800339
     40          6           0        6.015887    1.603676    0.331876
     41          6           0        6.416001    0.391061    0.911102
     42          6           0        5.735316   -0.792945    0.645133
     43          6           0        4.655611   -0.728492   -0.238994
     44          6           0        1.926413   -1.662458    1.733170
     45          6           0        0.839311   -0.889996    2.123218
     46          6           0       -1.472229    0.428378    3.277918
     47          6           0       -1.303441   -0.094295    4.567445
     48          6           0       -1.240959    0.742135    5.678753
     49          6           0       -1.365157    2.121711    5.508061
     50          6           0       -1.526818    2.647028    4.228037
     51          6           0       -1.567112    1.826850    3.087211
     52          6           0       -1.687036    2.466618    1.746491
     53          6           0       -2.664631    3.448879    1.521313
     54          6           0       -2.759196    4.098139    0.290125
     55          6           0       -1.875413    3.777756   -0.741256
     56          6           0       -0.897786    2.801920   -0.531613
     57          6           0       -0.804035    2.153753    0.699587
     58          6           0       -2.797482   -0.673962    0.054532
     59          6           0       -4.003433   -0.710654   -0.626220
     60          1           0       -2.591636   -2.201368   -2.568367
     61          1           0       -4.117651   -3.014529   -2.163955
     62          1           0       -3.908036   -2.257188   -3.754668
     63          1           0       -3.965608    1.318142   -2.501642
     64          1           0       -3.839913    0.310821   -3.959609
     65          1           0       -2.509342    0.349232   -2.787242
     66          1           0       -6.164715   -0.944292   -4.317810
     67          1           0       -8.627039   -0.845250   -4.017245
     68          1           0       -9.608030   -0.627861   -1.752955
     69          1           0       -8.142249   -0.506373    0.247617
     70          1           0       -6.166982   -0.400832    2.004329
     71          1           0       -4.016211   -0.362307    3.224495
     72          1           0       -1.661482   -2.946709    1.087073
     73          1           0        0.267487   -4.295872    0.391676
     74          1           0        2.261450   -5.487752    1.556886
     75          1           0        4.164856   -6.862651    0.779183
     76          1           0        5.940421   -5.837336   -0.642300
     77          1           0        5.739062   -3.446179   -1.313173
     78          1           0        1.777388   -3.001362   -2.170859
     79          1           0        0.366328   -1.701154   -3.753073
     80          1           0        0.726115    0.733411   -4.057303
     81          1           0        2.482320    1.918449   -2.780725
     82          1           0        6.407876    3.452156   -1.953965
     83          1           0        5.753153    5.710076   -2.737063
     84          1           0        3.464162    6.572889   -2.283294
     85          1           0        1.842160    5.156890   -1.027526
     86          1           0        2.504729    2.910753   -0.244301
     87          1           0        6.546175    2.517279    0.584740
     88          1           0        7.264172    0.378958    1.590280
     89          1           0        6.035067   -1.732932    1.097052
     90          1           0        2.927898   -1.295168    1.934604
     91          1           0        1.011128    0.057131    2.623244
     92          1           0       -1.233401   -1.172026    4.682591
     93          1           0       -1.110908    0.317622    6.670410
     94          1           0       -1.323233    2.788026    6.365227
     95          1           0       -1.587359    3.723231    4.092530
     96          1           0       -3.367579    3.690657    2.314043
     97          1           0       -3.528988    4.849889    0.136279
     98          1           0       -1.949370    4.281251   -1.701615
     99          1           0       -0.204699    2.537828   -1.326158
    100          1           0       -0.032971    1.404805    0.848627
    101          1           0       -1.852301   -0.723879   -0.476809
 ---------------------------------------------------------------------

 The electronic state is 1-A.
 Alpha  occ. eigenvalues --  -14.37510 -14.36234 -10.23580 -10.23024 -10.22979
 Alpha  occ. eigenvalues --  -10.22476 -10.22094 -10.21814 -10.20852 -10.20290
 Alpha  occ. eigenvalues --  -10.20144 -10.19949 -10.19872 -10.19808 -10.19677
 Alpha  occ. eigenvalues --  -10.19649 -10.19466 -10.19417 -10.19339 -10.19297
 Alpha  occ. eigenvalues --  -10.19261 -10.19240 -10.19220 -10.18986 -10.18730
 Alpha  occ. eigenvalues --  -10.18724 -10.18695 -10.18646 -10.18611 -10.18609
 Alpha  occ. eigenvalues --  -10.18569 -10.18556 -10.18529 -10.18524 -10.18505
 Alpha  occ. eigenvalues --  -10.18495 -10.18460 -10.18454 -10.18442 -10.18413
 Alpha  occ. eigenvalues --  -10.18388 -10.18363 -10.18355 -10.18348 -10.18342
 Alpha  occ. eigenvalues --  -10.18341 -10.18331 -10.18305 -10.18274 -10.18252
 Alpha  occ. eigenvalues --  -10.18244 -10.18236 -10.18193 -10.18085 -10.18084
 Alpha  occ. eigenvalues --  -10.17732 -10.17673 -10.17580 -10.17313  -0.98589
 Alpha  occ. eigenvalues --   -0.96234  -0.88051  -0.87414  -0.86337  -0.85627
 Alpha  occ. eigenvalues --   -0.84692  -0.84295  -0.83730  -0.83354  -0.83000
 Alpha  occ. eigenvalues --   -0.80399  -0.78268  -0.77799  -0.77375  -0.76977
 Alpha  occ. eigenvalues --   -0.76740  -0.74948  -0.74654  -0.74064  -0.73944
 Alpha  occ. eigenvalues --   -0.73814  -0.73435  -0.72953  -0.72534  -0.72392
 Alpha  occ. eigenvalues --   -0.71783  -0.71015  -0.70366  -0.69080  -0.68129
 Alpha  occ. eigenvalues --   -0.64606  -0.64051  -0.63191  -0.62907  -0.62078
 Alpha  occ. eigenvalues --   -0.61782  -0.60729  -0.60493  -0.60131  -0.59760
 Alpha  occ. eigenvalues --   -0.59579  -0.59242  -0.58255  -0.58092  -0.57336
 Alpha  occ. eigenvalues --   -0.56927  -0.56427  -0.55899  -0.54904  -0.53470
 Alpha  occ. eigenvalues --   -0.52932  -0.52119  -0.51411  -0.50796  -0.50540
 Alpha  occ. eigenvalues --   -0.50316  -0.49549  -0.49229  -0.48295  -0.47630
 Alpha  occ. eigenvalues --   -0.47237  -0.46813  -0.46215  -0.45810  -0.45449
 Alpha  occ. eigenvalues --   -0.45378  -0.45134  -0.44710  -0.44244  -0.44159
 Alpha  occ. eigenvalues --   -0.44074  -0.43980  -0.43684  -0.43547  -0.43095
 Alpha  occ. eigenvalues --   -0.42908  -0.42612  -0.42443  -0.42269  -0.42160
 Alpha  occ. eigenvalues --   -0.42085  -0.41940  -0.41758  -0.41479  -0.41477
 Alpha  occ. eigenvalues --   -0.41249  -0.41189  -0.41110  -0.40912  -0.39068
 Alpha  occ. eigenvalues --   -0.38631  -0.38334  -0.38135  -0.37816  -0.37341
 Alpha  occ. eigenvalues --   -0.37185  -0.37048  -0.36730  -0.36509  -0.36255
 Alpha  occ. eigenvalues --   -0.36173  -0.36025  -0.35687  -0.35333  -0.35238
 Alpha  occ. eigenvalues --   -0.35072  -0.34788  -0.34757  -0.34451  -0.34007
 Alpha  occ. eigenvalues --   -0.33723  -0.33656  -0.33630  -0.33521  -0.33371
 Alpha  occ. eigenvalues --   -0.33025  -0.32332  -0.31458  -0.31401  -0.31265
 Alpha  occ. eigenvalues --   -0.30191  -0.27842  -0.27469  -0.26832  -0.26247
 Alpha  occ. eigenvalues --   -0.26121  -0.25357  -0.25015  -0.24749  -0.24588
 Alpha  occ. eigenvalues --   -0.24472  -0.24052  -0.23686  -0.23284  -0.22805
 Alpha  occ. eigenvalues --   -0.21739  -0.20684  -0.19449  -0.17770
 Alpha virt. eigenvalues --   -0.03368  -0.02963  -0.02649  -0.02098  -0.01334
 Alpha virt. eigenvalues --   -0.00851  -0.00209   0.00083   0.00342   0.00424
 Alpha virt. eigenvalues --    0.00468   0.01639   0.01771   0.02154   0.02445

 Mulliken charges:
               1
     1  C   -0.441196
     2  C   -0.061520
     3  C   -0.441123
     4  C    0.102311
     5  C   -0.204073
     6  C   -0.133017
     7  C   -0.136620
     8  C   -0.194242
     9  C    0.079052
    10  C    0.087565
    11  C   -0.205674
    12  C   -0.184351
    13  C    0.305453
    14  N   -0.665450
    15  C    0.329140
    16  C   -0.187210
    17  C   -0.173073
    18  C    0.072153
    19  C    0.083391
    20  C   -0.197458
    21  C   -0.119878
    22  C   -0.144201
    23  C   -0.140070
    24  C    0.189321
    25  N   -0.725652
    26  C    0.317706
    27  C   -0.166639
    28  C   -0.148711
    29  C   -0.151411
    30  C   -0.208353
    31  C    0.054537
    32  C    0.007975
    33  C    0.013548
    34  C    0.066048
    35  C   -0.163272
    36  C   -0.133458
    37  C   -0.127215
    38  C   -0.139264
    39  C   -0.171496
    40  C   -0.187029
    41  C   -0.143366
    42  C   -0.185229
    43  C    0.311080
    44  C   -0.170974
    45  C   -0.194534
    46  C    0.187189
    47  C   -0.147060
    48  C   -0.139734
    49  C   -0.124446
    50  C   -0.191945
    51  C    0.073777
    52  C    0.072218
    53  C   -0.160770
    54  C   -0.134181
    55  C   -0.128601
    56  C   -0.148735
    57  C   -0.163183
    58  C   -0.242666
    59  C    0.094233
    60  H    0.147924
    61  H    0.154138
    62  H    0.142541
    63  H    0.160654
    64  H    0.139266
    65  H    0.151179
    66  H    0.122152
    67  H    0.124185
    68  H    0.124985
    69  H    0.125688
    70  H    0.128280
    71  H    0.137981
    72  H    0.146677
    73  H    0.130265
    74  H    0.140778
    75  H    0.135232
    76  H    0.137198
    77  H    0.150804
    78  H    0.136387
    79  H    0.125405
    80  H    0.122157
    81  H    0.151073
    82  H    0.133363
    83  H    0.128957
    84  H    0.127925
    85  H    0.136601
    86  H    0.145828
    87  H    0.126648
    88  H    0.127350
    89  H    0.138659
    90  H    0.145839
    91  H    0.148516
    92  H    0.143741
    93  H    0.134437
    94  H    0.132618
    95  H    0.139433
    96  H    0.131852
    97  H    0.129643
    98  H    0.128709
    99  H    0.143727
   100  H    0.150298
   101  H    0.151293
 Sum of Mulliken charges =  -0.00000

 Dipole moment (field-independent basis, Debye):
    X=              0.0032    Y=             -0.8539    Z=              0.9725  Tot=              1.2942
 Quadrupole moment (field-independent basis, Debye-Ang):
   XX=           -324.6443   YY=           -313.4109   ZZ=           -320.7547
   XY=            -11.2088   XZ=              0.6071   YZ=             -1.4845

 1\1\GINC-NODE96\FOpt\RB3LYP\6-31G(d)\C57H42N2\WYKGROUP\05-Nov-2022\0\\
 #p b3lyp/6-31g(d) opt SCF=XQC\\Gaussian input prepared by ASE\\0,1\C,-
 2.4008232593,4.29007898,0.2391269117\C,-3.0406072635,3.3170757339,1.25
 47022352\C,-2.0860019081,3.1039723631,2.4511858257\C,-4.4131514119,3.8
 110291665,1.7134190273\C,-4.7373726275,4.9833217573,2.3862894095\C,-6.
 0755957425,5.2379951159,2.7114160976\C,-7.0757145637,4.3237232326,2.36
 50815744\C,-6.7569574036,3.1430607092,1.6900801328\C,-5.4224583808,2.8
 896545938,1.3647948945\C,-4.7981843716,1.7563761834,0.6745094553\C,-5.

 Normal termination of Gaussian 16 at Sat Nov  5 04:48:54 2022.
