 Gaussian 16, Revision B.01,
 Gaussian 16:  ES64L-G16RevB.01 20-Dec-2017

 -------------------------------------------------------------------
 #p b3lyp/6-31g(d) 6D 10F nosymm GFInput td=(50-50,nstate=2) SCF=XQC
 -------------------------------------------------------------------

 ------------------------------
 Gaussian input prepared by ASE
 ------------------------------
 Symbolic Z-matrix:
 Charge =  0 Multiplicity = 1

                          Input orientation:
 ---------------------------------------------------------------------
 Center     Atomic      Atomic             Coordinates (Angstroms)
 Number     Number       Type             X           Y           Z
 ---------------------------------------------------------------------
      1          6           0        1.818404   11.753195   -1.622153
      2          6           0        2.730581   10.711317   -1.428719
      3          6           0        2.278389    9.406584   -1.260131
      4          6           0        0.900626    9.132000   -1.283888
      5          6           0        0.448530    7.756310   -1.105044
      6          7           0        1.175546    6.696338   -0.917115
      7          6           0        0.258125    5.653400   -0.808535
      8          6           0        0.439587    4.287499   -0.601843
      9          6           0       -0.704184    3.479039   -0.537700
     10          6           0       -0.562090    2.016505   -0.318758
     11          7           0        0.678100    1.523434   -0.192374
     12          6           0        0.762110    0.195958    0.004192
     13          6           0        2.107040   -0.399258    0.149520
     14          6           0        3.257824    0.419225    0.071391
     15          6           0        4.536940   -0.101681    0.205972
     16          6           0        4.664207   -1.477662    0.429172
     17          6           0        3.524733   -2.322665    0.497801
     18          6           0        2.250162   -1.776967    0.360069
     19          6           0        4.015327   -3.670989    0.703263
     20          6           0        3.391269   -4.913248    0.860829
     21          6           0        4.176504   -6.044603    1.065050
     22          6           0        5.576949   -5.943162    1.119544
     23          6           0        6.223293   -4.718046    0.965111
     24          6           0        5.429505   -3.589443    0.748301
     25          7           0        5.813388   -2.250385    0.580943
     26          6           0        7.150965   -1.765192    0.568951
     27          6           0        8.074495   -2.278437   -0.350012
     28          6           0        9.386927   -1.806536   -0.352674
     29          6           0        9.779970   -0.811124    0.544169
     30          6           0        8.855128   -0.294115    1.453486
     31          6           0        7.545744   -0.774034    1.475815
     32          7           0       -0.301207   -0.621267    0.076399
     33          6           0       -1.502482   -0.038220   -0.061073
     34          6           0       -2.703555   -0.897055    0.011035
     35          6           0       -3.991548   -0.330965   -0.132197
     36          6           0       -5.142478   -1.103599   -0.067050
     37          6           0       -4.997373   -2.478492    0.151661
     38          6           0       -3.714437   -3.072979    0.284645
     39          6           0       -2.573030   -2.276789    0.216371
     40          6           0       -3.928856   -4.495036    0.465429
     41          6           0       -3.072987   -5.584673    0.659663
     42          6           0       -3.619719   -6.854597    0.822685
     43          6           0       -5.012099   -7.042444    0.799777
     44          6           0       -5.886374   -5.974191    0.607442
     45          6           0       -5.330021   -4.705085    0.432356
     46          7           0       -5.970459   -3.471373    0.241450
     47          6           0       -7.376344   -3.269960    0.155434
     48          6           0       -8.124347   -3.952451   -0.811800
     49          6           0       -9.503532   -3.759077   -0.887015
     50          6           0      -10.139922   -2.873936   -0.014547
     51          6           0       -9.390929   -2.187476    0.943216
     52          6           0       -8.014108   -2.389363    1.037773
     53          7           0       -1.680916    1.279945   -0.260494
     54          6           0       -1.994551    4.041803   -0.679525
     55          6           0       -2.187539    5.405791   -0.886674
     56          6           0       -1.036207    6.177522   -0.945027
     57          8           0       -0.917593    7.527555   -1.135548
     58          6           0       -0.013186   10.179721   -1.478272
     59          6           0        0.448483   11.483483   -1.646275
     60          1           0        2.174857   12.771240   -1.753576
     61          1           0        3.797083   10.917805   -1.409525
     62          1           0        2.973203    8.587112   -1.109142
     63          1           0        1.425663    3.853852   -0.493064
     64          1           0        3.121761    1.480262   -0.101318
     65          1           0        5.408316    0.540535    0.134609
     66          1           0        1.363141   -2.398517    0.409161
     67          1           0        2.307792   -4.991178    0.828083
     68          1           0        3.703937   -7.014960    1.187617
     69          1           0        6.171826   -6.836699    1.288275
     70          1           0        7.304562   -4.645300    1.017123
     71          1           0        7.755663   -3.033990   -1.061301
     72          1           0       10.099327   -2.209372   -1.067319
     73          1           0       10.800969   -0.440284    0.534282
     74          1           0        9.154812    0.476804    2.157986
     75          1           0        6.828427   -0.393974    2.196560
     76          1           0       -4.066178    0.737031   -0.299384
     77          1           0       -6.121876   -0.652846   -0.187484
     78          1           0       -1.581522   -2.704089    0.315618
     79          1           0       -1.996390   -5.438906    0.686751
     80          1           0       -2.965757   -7.708776    0.973084
     81          1           0       -5.419556   -8.040339    0.937347
     82          1           0       -6.960801   -6.124855    0.599700
     83          1           0       -7.619704   -4.620049   -1.503244
     84          1           0      -10.078768   -4.292358   -1.638823
     85          1           0      -11.213228   -2.720004   -0.080679
     86          1           0       -9.879795   -1.501406    1.629362
     87          1           0       -7.429743   -1.877801    1.796264
     88          1           0       -2.847611    3.376594   -0.622799
     89          1           0       -3.176981    5.836657   -0.995613
     90          1           0       -1.076806    9.967363   -1.496634
     91          1           0       -0.263396   12.290393   -1.796389
 ---------------------------------------------------------------------

 SCF Done:  E(RB3LYP) =  -2404.65362791     A.U. after   16 cycles

 Excitation energies and oscillator strengths:

 Excited state symmetry could not be determined.
 Excited State   1:      Triplet-?Sym    2.8167 eV  440.18 nm  f=0.0000  <S**2>=2.000
     191 ->199        -0.12343
     192 ->198        -0.19299
     193 ->198         0.10790
     193 ->199        -0.13061
     193 ->200         0.22091
     194 ->202        -0.10435
     195 ->201        -0.10532
     196 ->198         0.21025
     196 ->199        -0.27198
     196 ->200        -0.19569
     197 ->198         0.19527
     197 ->199         0.22240
     197 ->208         0.11180
 This state for optimization and/or second-order correction.
 Total Energy, E(TD-HF/TD-DFT) =  -2404.55011712
 Copying the excited state density for this state as the 1-particle RhoCI density.

 Excited state symmetry could not be determined.
 Excited State   2:      Triplet-?Sym    2.8774 eV  430.90 nm  f=0.0000  <S**2>=2.000
     182 ->209         0.10145
     187 ->207        -0.12772
     192 ->198        -0.11829
     193 ->198         0.37184
     193 ->199        -0.17197
     193 ->200         0.38495
     196 ->199         0.13939
     196 ->200         0.13969
     197 ->198        -0.11718
     197 ->199        -0.13318

 Excited state symmetry could not be determined.
 Excited State   3:      Singlet-?Sym    3.3985 eV  364.82 nm  f=0.0208  <S**2>=0.000
     196 ->198         0.46731
     196 ->199         0.16492
     196 ->200        -0.10212
     197 ->198        -0.46342
     197 ->200         0.11619

 Excited state symmetry could not be determined.
 Excited State   4:      Singlet-?Sym    3.4349 eV  360.96 nm  f=0.3532  <S**2>=0.000
     196 ->198         0.42507
     196 ->199         0.16157
     196 ->200        -0.10024
     197 ->198         0.47451
     197 ->199        -0.14987
     197 ->200        -0.16451

 Alpha  occ. eigenvalues --  -19.22301 -14.38659 -14.38579 -14.33104 -14.32345
 Alpha  occ. eigenvalues --  -14.32291 -14.32272 -10.28613 -10.26443 -10.26317
 Alpha  occ. eigenvalues --  -10.26287 -10.25036 -10.24251 -10.24155 -10.22924
 Alpha  occ. eigenvalues --  -10.22839 -10.22593 -10.22522 -10.21789 -10.21179
 Alpha  occ. eigenvalues --  -10.20397 -10.20391 -10.20330 -10.20327 -10.20302
 Alpha  occ. eigenvalues --  -10.20288 -10.20236 -10.20225 -10.20164 -10.20066
 Alpha  occ. eigenvalues --  -10.20018 -10.19998 -10.19966 -10.19797 -10.19782
 Alpha  occ. eigenvalues --  -10.19772 -10.19694 -10.19394 -10.19315 -10.18984
 Alpha  occ. eigenvalues --  -10.18974 -10.18951 -10.18940 -10.18922 -10.18910
 Alpha  occ. eigenvalues --  -10.18909 -10.18893 -10.18885 -10.18866 -10.18858
 Alpha  occ. eigenvalues --  -10.18850 -10.18830 -10.18824 -10.18797 -10.18786
 Alpha  occ. eigenvalues --  -10.18716 -10.18600 -10.18279 -10.18221  -1.12720
 Alpha  occ. eigenvalues --   -1.00660  -0.99336  -0.99254  -0.92667  -0.89371
 Alpha  occ. eigenvalues --   -0.89292  -0.87276  -0.87183  -0.86774  -0.84943
 Alpha  occ. eigenvalues --   -0.84440  -0.84338  -0.84146  -0.84060  -0.78833
 Alpha  occ. eigenvalues --   -0.78737  -0.78334  -0.76257  -0.76059  -0.75873
 Alpha  occ. eigenvalues --   -0.75715  -0.75538  -0.75297  -0.75212  -0.75042
 Alpha  occ. eigenvalues --   -0.73501  -0.72412  -0.72182  -0.71659  -0.71575
 Alpha  occ. eigenvalues --   -0.67943  -0.67043  -0.65379  -0.64289  -0.63848
 Alpha  occ. eigenvalues --   -0.62747  -0.62208  -0.62085  -0.61718  -0.61682
 Alpha  occ. eigenvalues --   -0.60824  -0.60502  -0.59166  -0.58763  -0.58201
 Alpha  occ. eigenvalues --   -0.57910  -0.57777  -0.57394  -0.57044  -0.54336
 Alpha  occ. eigenvalues --   -0.53953  -0.53645  -0.53178  -0.52524  -0.51554
 Alpha  occ. eigenvalues --   -0.51363  -0.50863  -0.50514  -0.50335  -0.49200
 Alpha  occ. eigenvalues --   -0.48698  -0.48062  -0.47664  -0.47237  -0.47148
 Alpha  occ. eigenvalues --   -0.46322  -0.46156  -0.45942  -0.45111  -0.45058
 Alpha  occ. eigenvalues --   -0.44945  -0.44776  -0.44376  -0.44308  -0.44117
 Alpha  occ. eigenvalues --   -0.43782  -0.43491  -0.43403  -0.43387  -0.43218
 Alpha  occ. eigenvalues --   -0.42798  -0.42768  -0.42155  -0.42076  -0.41849
 Alpha  occ. eigenvalues --   -0.41792  -0.41567  -0.41473  -0.41319  -0.40627
 Alpha  occ. eigenvalues --   -0.38948  -0.38023  -0.37748  -0.37654  -0.37585
 Alpha  occ. eigenvalues --   -0.37523  -0.36723  -0.36683  -0.36623  -0.36469
 Alpha  occ. eigenvalues --   -0.36394  -0.36144  -0.36045  -0.36000  -0.35868
 Alpha  occ. eigenvalues --   -0.35628  -0.35399  -0.34968  -0.34734  -0.34199
 Alpha  occ. eigenvalues --   -0.34057  -0.33536  -0.33471  -0.33265  -0.33258
 Alpha  occ. eigenvalues --   -0.32747  -0.31113  -0.30662  -0.28841  -0.27905
 Alpha  occ. eigenvalues --   -0.27675  -0.27184  -0.26406  -0.26307  -0.26235
 Alpha  occ. eigenvalues --   -0.26140  -0.25813  -0.25035  -0.24969  -0.24889
 Alpha  occ. eigenvalues --   -0.24752  -0.23835  -0.22015  -0.21394  -0.21245
 Alpha  occ. eigenvalues --   -0.20012  -0.19850
 Alpha virt. eigenvalues --   -0.05820  -0.05303  -0.04824  -0.02591  -0.02455
 Alpha virt. eigenvalues --   -0.01856  -0.01676  -0.01461  -0.01361  -0.00663
 Alpha virt. eigenvalues --   -0.00227   0.00985   0.01643   0.02369   0.03978

 Mulliken charges:
               1
     1  C   -0.119398
     2  C   -0.137821
     3  C   -0.155784
     4  C    0.067680
     5  C    0.487550
     6  N   -0.543455
     7  C    0.253225
     8  C   -0.214166
     9  C    0.060240
    10  C    0.458264
    11  N   -0.553261
    12  C    0.456028
    13  C    0.065545
    14  C   -0.180145
    15  C   -0.182099
    16  C    0.335659
    17  C    0.060222
    18  C   -0.243569
    19  C    0.064659
    20  C   -0.194824
    21  C   -0.144390
    22  C   -0.141433
    23  C   -0.175929
    24  C    0.308161
    25  N   -0.737553
    26  C    0.259746
    27  C   -0.147138
    28  C   -0.142726
    29  C   -0.120249
    30  C   -0.142613
    31  C   -0.147424
    32  N   -0.549054
    33  C    0.455332
    34  C    0.065632
    35  C   -0.179542
    36  C   -0.182105
    37  C    0.335683
    38  C    0.060272
    39  C   -0.243442
    40  C    0.064634
    41  C   -0.194731
    42  C   -0.144366
    43  C   -0.141371
    44  C   -0.175944
    45  C    0.308080
    46  N   -0.737557
    47  C    0.259699
    48  C   -0.147189
    49  C   -0.142768
    50  C   -0.120331
    51  C   -0.142783
    52  C   -0.147506
    53  N   -0.560560
    54  C   -0.177240
    55  C   -0.195096
    56  C    0.355346
    57  O   -0.532149
    58  C   -0.164697
    59  C   -0.137100
    60  H    0.136176
    61  H    0.137996
    62  H    0.167939
    63  H    0.174514
    64  H    0.162073
    65  H    0.143560
    66  H    0.161564
    67  H    0.132349
    68  H    0.125465
    69  H    0.127929
    70  H    0.140683
    71  H    0.153604
    72  H    0.139835
    73  H    0.136706
    74  H    0.140604
    75  H    0.154538
    76  H    0.158387
    77  H    0.142181
    78  H    0.162244
    79  H    0.132838
    80  H    0.125835
    81  H    0.128161
    82  H    0.140683
    83  H    0.153819
    84  H    0.140060
    85  H    0.136821
    86  H    0.140359
    87  H    0.154246
    88  H    0.166701
    89  H    0.148437
    90  H    0.154672
    91  H    0.136871
 Sum of Mulliken charges =  -0.00000

 Dipole moment (field-independent basis, Debye):
    X=             -0.6355    Y=              0.3843    Z=             -0.0753  Tot=              0.7464
 Quadrupole moment (field-independent basis, Debye-Ang):
   XX=           -240.0680   YY=           -282.6941   ZZ=           -337.5403
   XY=              5.8046   XZ=              2.7457   YZ=             -1.2207

 Normal termination of Gaussian 16 at Sat Nov  5 12:14:57 2022.
