 Gaussian 16, Revision B.01,
 Gaussian 16:  ES64L-G16RevB.01 20-Dec-2017

 -------------------------------------------------------------------
 #p b3lyp/6-31g(d) 6D 10F nosymm GFInput td=(50-50,nstate=2) SCF=XQC
 -------------------------------------------------------------------

 ------------------------------
 Gaussian input prepared by ASE
 ------------------------------
 Symbolic Z-matrix:
 Charge =  0 Multiplicity = 1

                          Input orientation:
 ---------------------------------------------------------------------
 Center     Atomic      Atomic             Coordinates (Angstroms)
 Number     Number       Type             X           Y           Z
 ---------------------------------------------------------------------
      1          6           0        0.957126   -2.398276    4.641584
      2          6           0        2.249804   -2.049138    4.244840
      3          6           0        2.785820   -2.558437    3.063247
      4          6           0        2.039576   -3.431528    2.254955
      5          6           0        2.616089   -4.037924    1.022244
      6          6           0        2.545911   -5.432125    0.858137
      7          6           0        3.101197   -6.073330   -0.246690
      8          6           0        3.744359   -5.320197   -1.230123
      9          6           0        3.804791   -3.935224   -1.104436
     10          6           0        3.246487   -3.284089    0.005031
     11          7           0        3.300655   -1.853815    0.062580
     12          6           0        2.083852   -1.123666    0.007325
     13          6           0        0.992337   -1.605105   -0.731216
     14          6           0       -0.207651   -0.901507   -0.763368
     15          6           0       -0.366680    0.313621   -0.077192
     16          6           0       -1.643605    1.064193   -0.124161
     17          6           0       -1.652570    2.473051   -0.146132
     18          6           0       -2.843799    3.193482   -0.196991
     19          6           0       -4.057101    2.503014   -0.228140
     20          6           0       -4.066666    1.096318   -0.203968
     21          6           0       -2.877283    0.383836   -0.154663
     22          6           0       -5.509182    0.555243   -0.258603
     23          6           0       -5.652871   -0.306347   -1.532326
     24          6           0       -5.281741   -1.660553   -1.518245
     25          6           0       -5.321263   -2.429758   -2.681058
     26          6           0       -5.732534   -1.861258   -3.887638
     27          6           0       -6.100431   -0.516517   -3.915975
     28          6           0       -6.059355    0.252479   -2.751266
     29          6           0       -5.929274   -0.203743    1.019213
     30          6           0       -7.063711   -1.031228    1.011477
     31          6           0       -7.507756   -1.654757    2.177317
     32          6           0       -6.826912   -1.463946    3.380706
     33          6           0       -5.700687   -0.641997    3.402704
     34          6           0       -5.257893   -0.017671    2.234935
     35          6           0       -6.304258    1.874536   -0.318555
     36          6           0       -7.681368    2.060425   -0.367866
     37          6           0       -8.193251    3.362563   -0.398280
     38          6           0       -7.333611    4.465982   -0.371840
     39          6           0       -5.950597    4.285178   -0.315222
     40          6           0       -5.439345    2.985386   -0.289184
     41          6           0        0.735936    0.787138    0.656774
     42          6           0        1.932479    0.083533    0.709801
     43          6           0        4.560233   -1.213141   -0.038812
     44          6           0        5.696481   -1.799101    0.547064
     45          6           0        6.937037   -1.174448    0.443314
     46          6           0        7.075358    0.040895   -0.225036
     47          6           0        5.952884    0.642336   -0.818738
     48          6           0        6.074418    1.905908   -1.602793
     49          6           0        5.649906    1.917725   -2.921201
     50          6           0        5.765685    3.070352   -3.730112
     51          6           0        6.313298    4.221699   -3.216643
     52          6           0        6.747328    4.273163   -1.865688
     53          6           0        7.292093    5.464081   -1.313491
     54          6           0        7.682378    5.523010    0.004202
     55          6           0        7.532999    4.386767    0.833565
     56          6           0        7.015915    3.214208    0.328425
     57          6           0        6.621770    3.107911   -1.035012
     58          6           0        4.710044    0.002205   -0.728354
     59          6           0        0.742004   -3.775282    2.666048
     60          6           0        0.204210   -3.262836    3.846679
     61          1           0        0.540471   -1.998092    5.562041
     62          1           0        2.846600   -1.381121    4.860554
     63          1           0        3.795342   -2.286828    2.770843
     64          1           0        2.073754   -6.020085    1.640214
     65          1           0        3.041776   -7.154796   -0.332248
     66          1           0        4.183204   -5.804659   -2.098052
     67          1           0        4.279895   -3.333295   -1.873317
     68          1           0        1.090106   -2.528961   -1.291947
     69          1           0       -1.024666   -1.284888   -1.368357
     70          1           0       -0.707147    3.007771   -0.154163
     71          1           0       -2.820476    4.279965   -0.225290
     72          1           0       -2.889065   -0.701240   -0.117391
     73          1           0       -4.972487   -2.122824   -0.585747
     74          1           0       -5.032840   -3.477139   -2.640676
     75          1           0       -5.767628   -2.460442   -4.793605
     76          1           0       -6.422983   -0.058269   -4.847440
     77          1           0       -6.346600    1.297720   -2.794326
     78          1           0       -7.597751   -1.201691    0.081570
     79          1           0       -8.386807   -2.293340    2.141958
     80          1           0       -7.169701   -1.952045    4.289181
     81          1           0       -5.158798   -0.482885    4.331523
     82          1           0       -4.380730    0.619414    2.272975
     83          1           0       -8.356633    1.209597   -0.378579
     84          1           0       -9.268196    3.516499   -0.438993
     85          1           0       -7.745543    5.471469   -0.392676
     86          1           0       -5.285006    5.144277   -0.290553
     87          1           0        0.640694    1.702878    1.233624
     88          1           0        2.753864    0.459655    1.310453
     89          1           0        5.605444   -2.744659    1.071316
     90          1           0        7.807334   -1.644645    0.893875
     91          1           0        8.049500    0.512265   -0.310242
     92          1           0        5.241697    1.006647   -3.349762
     93          1           0        5.430147    3.034016   -4.763020
     94          1           0        6.417035    5.110805   -3.834151
     95          1           0        7.388241    6.336049   -1.956478
     96          1           0        8.095267    6.441420    0.412852
     97          1           0        7.823242    4.441943    1.879464
     98          1           0        6.894946    2.355306    0.979239
     99          1           0        3.845656    0.463712   -1.192517
    100          1           0        0.145445   -4.436735    2.043490
    101          1           0       -0.805674   -3.536059    4.141210
 ---------------------------------------------------------------------

 SCF Done:  E(RB3LYP) =  -2327.76858307     A.U. after   16 cycles

 Excitation energies and oscillator strengths:

 Excited state symmetry could not be determined.
 Excited State   1:      Triplet-?Sym    2.6399 eV  469.66 nm  f=0.0000  <S**2>=2.000
     195 ->208         0.13467
     199 ->202        -0.19031
     199 ->203         0.24093
     200 ->202        -0.16678
     200 ->203         0.50847
     201 ->202         0.21862
 This state for optimization and/or second-order correction.
 Total Energy, E(TD-HF/TD-DFT) =  -2327.67156948
 Copying the excited state density for this state as the 1-particle RhoCI density.

 Excited state symmetry could not be determined.
 Excited State   2:      Triplet-?Sym    2.6688 eV  464.57 nm  f=0.0000  <S**2>=2.000
     199 ->202        -0.17405
     199 ->203        -0.19629
     200 ->202         0.25384
     201 ->202         0.47115
     201 ->203         0.22945

 Excited state symmetry could not be determined.
 Excited State   3:      Singlet-?Sym    3.3959 eV  365.10 nm  f=0.0528  <S**2>=0.000
     201 ->202        -0.37336
     201 ->203         0.56734
     201 ->204        -0.16881

 Excited state symmetry could not be determined.
 Excited State   4:      Singlet-?Sym    3.4113 eV  363.46 nm  f=0.6965  <S**2>=0.000
     201 ->202         0.57660
     201 ->203         0.38464

 Alpha  occ. eigenvalues --  -14.36330 -10.23069 -10.23061 -10.22559 -10.21599
 Alpha  occ. eigenvalues --  -10.20292 -10.19803 -10.19748 -10.19693 -10.19691
 Alpha  occ. eigenvalues --  -10.19663 -10.19639 -10.19529 -10.19484 -10.19431
 Alpha  occ. eigenvalues --  -10.19307 -10.19262 -10.19246 -10.19079 -10.19026
 Alpha  occ. eigenvalues --  -10.19010 -10.19009 -10.18970 -10.18915 -10.18822
 Alpha  occ. eigenvalues --  -10.18801 -10.18790 -10.18784 -10.18773 -10.18727
 Alpha  occ. eigenvalues --  -10.18725 -10.18714 -10.18707 -10.18699 -10.18683
 Alpha  occ. eigenvalues --  -10.18669 -10.18650 -10.18649 -10.18626 -10.18609
 Alpha  occ. eigenvalues --  -10.18583 -10.18573 -10.18564 -10.18557 -10.18521
 Alpha  occ. eigenvalues --  -10.18520 -10.18491 -10.18488 -10.18471 -10.18462
 Alpha  occ. eigenvalues --  -10.18450 -10.18431 -10.18388 -10.18344 -10.18318
 Alpha  occ. eigenvalues --  -10.18310 -10.18299 -10.18256 -10.18197 -10.18156
 Alpha  occ. eigenvalues --   -0.96306  -0.89114  -0.87291  -0.86444  -0.85737
 Alpha  occ. eigenvalues --   -0.85105  -0.84711  -0.84411  -0.84233  -0.83250
 Alpha  occ. eigenvalues --   -0.81595  -0.80354  -0.78306  -0.77755  -0.77520
 Alpha  occ. eigenvalues --   -0.75646  -0.75066  -0.74396  -0.74249  -0.74155
 Alpha  occ. eigenvalues --   -0.74047  -0.73899  -0.73725  -0.73585  -0.73498
 Alpha  occ. eigenvalues --   -0.73231  -0.72509  -0.71492  -0.70725  -0.69175
 Alpha  occ. eigenvalues --   -0.67455  -0.63877  -0.63256  -0.62452  -0.62234
 Alpha  occ. eigenvalues --   -0.61705  -0.60874  -0.60696  -0.60656  -0.60228
 Alpha  occ. eigenvalues --   -0.60051  -0.59401  -0.59153  -0.58967  -0.58146
 Alpha  occ. eigenvalues --   -0.57865  -0.57309  -0.56755  -0.56045  -0.55371
 Alpha  occ. eigenvalues --   -0.53176  -0.52970  -0.51667  -0.51402  -0.51143
 Alpha  occ. eigenvalues --   -0.50781  -0.49936  -0.49787  -0.49636  -0.48866
 Alpha  occ. eigenvalues --   -0.48463  -0.47894  -0.47456  -0.46854  -0.46155
 Alpha  occ. eigenvalues --   -0.45672  -0.45551  -0.45031  -0.44750  -0.44604
 Alpha  occ. eigenvalues --   -0.44309  -0.44119  -0.43939  -0.43784  -0.43599
 Alpha  occ. eigenvalues --   -0.43505  -0.43250  -0.43003  -0.42754  -0.42483
 Alpha  occ. eigenvalues --   -0.42159  -0.41861  -0.41712  -0.41667  -0.41479
 Alpha  occ. eigenvalues --   -0.41385  -0.41321  -0.41191  -0.41057  -0.40247
 Alpha  occ. eigenvalues --   -0.39791  -0.39719  -0.38340  -0.38319  -0.37609
 Alpha  occ. eigenvalues --   -0.37540  -0.37423  -0.37157  -0.36850  -0.36698
 Alpha  occ. eigenvalues --   -0.36399  -0.36226  -0.35930  -0.35838  -0.35558
 Alpha  occ. eigenvalues --   -0.35186  -0.34917  -0.34802  -0.34451  -0.34270
 Alpha  occ. eigenvalues --   -0.34146  -0.33860  -0.33681  -0.33612  -0.33360
 Alpha  occ. eigenvalues --   -0.33310  -0.33271  -0.32234  -0.32187  -0.32032
 Alpha  occ. eigenvalues --   -0.31802  -0.30349  -0.28422  -0.27918  -0.26956
 Alpha  occ. eigenvalues --   -0.25917  -0.25904  -0.25265  -0.24778  -0.24738
 Alpha  occ. eigenvalues --   -0.24570  -0.24558  -0.24211  -0.24187  -0.23965
 Alpha  occ. eigenvalues --   -0.23291  -0.23048  -0.22864  -0.21011  -0.20559
 Alpha  occ. eigenvalues --   -0.18051
 Alpha virt. eigenvalues --   -0.03931  -0.03814  -0.02701  -0.01540  -0.01336
 Alpha virt. eigenvalues --   -0.00812  -0.00646  -0.00474  -0.00053   0.00059
 Alpha virt. eigenvalues --    0.00240   0.00819   0.01022   0.01549   0.01839

 Mulliken charges:
               1
     1  C   -0.123358
     2  C   -0.137510
     3  C   -0.153034
     4  C    0.072115
     5  C    0.069289
     6  C   -0.190908
     7  C   -0.125817
     8  C   -0.139515
     9  C   -0.150498
    10  C    0.191619
    11  N   -0.665652
    12  C    0.311035
    13  C   -0.180466
    14  C   -0.188794
    15  C    0.094740
    16  C    0.097054
    17  C   -0.189321
    18  C   -0.199211
    19  C    0.091341
    20  C    0.081825
    21  C   -0.238653
    22  C   -0.227228
    23  C    0.155642
    24  C   -0.178639
    25  C   -0.137306
    26  C   -0.126846
    27  C   -0.132915
    28  C   -0.184520
    29  C    0.155245
    30  C   -0.177432
    31  C   -0.136622
    32  C   -0.126965
    33  C   -0.133195
    34  C   -0.183265
    35  C    0.080867
    36  C   -0.180897
    37  C   -0.134290
    38  C   -0.134860
    39  C   -0.193916
    40  C    0.090012
    41  C   -0.188588
    42  C   -0.157486
    43  C    0.310200
    44  C   -0.178435
    45  C   -0.142872
    46  C   -0.171700
    47  C    0.059832
    48  C    0.018198
    49  C   -0.178607
    50  C   -0.136867
    51  C   -0.186772
    52  C    0.129171
    53  C   -0.195203
    54  C   -0.132085
    55  C   -0.136635
    56  C   -0.199758
    57  C    0.091878
    58  C   -0.230447
    59  C   -0.160615
    60  C   -0.133877
    61  H    0.128375
    62  H    0.129512
    63  H    0.138498
    64  H    0.138979
    65  H    0.132051
    66  H    0.134396
    67  H    0.145082
    68  H    0.141923
    69  H    0.137795
    70  H    0.132336
    71  H    0.130087
    72  H    0.135513
    73  H    0.139527
    74  H    0.127962
    75  H    0.127015
    76  H    0.128953
    77  H    0.143775
    78  H    0.138392
    79  H    0.128046
    80  H    0.126580
    81  H    0.128476
    82  H    0.144707
    83  H    0.133078
    84  H    0.128321
    85  H    0.128321
    86  H    0.129451
    87  H    0.132642
    88  H    0.142924
    89  H    0.143122
    90  H    0.131628
    91  H    0.136892
    92  H    0.133828
    93  H    0.130732
    94  H    0.128337
    95  H    0.128543
    96  H    0.128750
    97  H    0.128309
    98  H    0.144748
    99  H    0.152187
   100  H    0.131340
   101  H    0.130386
 Sum of Mulliken charges =  -0.00000

 Dipole moment (field-independent basis, Debye):
    X=              0.0446    Y=             -0.8045    Z=              0.0584  Tot=              0.8078
 Quadrupole moment (field-independent basis, Debye-Ang):
   XX=           -329.2942   YY=           -312.7416   ZZ=           -326.2463
   XY=              3.4927   XZ=              3.3680   YZ=              1.7418

 Normal termination of Gaussian 16 at Sat Nov  5 11:34:36 2022.
