 Gaussian 16, Revision B.01,
 Gaussian 16:  ES64L-G16RevB.01 20-Dec-2017

 -----------------------------
 #p b3lyp/6-31g(d) opt SCF=XQC
 -----------------------------

 ------------------------------
 Gaussian input prepared by ASE
 ------------------------------
 Symbolic Z-matrix:
 Charge =  0 Multiplicity = 1

 SCF Done:  E(RB3LYP) =  -2327.74393232     A.U. after   16 cycles
 SCF Done:  E(RB3LYP) =  -2327.76064119     A.U. after   15 cycles
 SCF Done:  E(RB3LYP) =  -2327.76576797     A.U. after   12 cycles
 SCF Done:  E(RB3LYP) =  -2327.76781394     A.U. after   13 cycles
 SCF Done:  E(RB3LYP) =  -2327.76833192     A.U. after   12 cycles
 SCF Done:  E(RB3LYP) =  -2327.76848385     A.U. after   11 cycles
 SCF Done:  E(RB3LYP) =  -2327.76853070     A.U. after   11 cycles
 SCF Done:  E(RB3LYP) =  -2327.76856539     A.U. after   10 cycles
 SCF Done:  E(RB3LYP) =  -2327.76857716     A.U. after   10 cycles
 SCF Done:  E(RB3LYP) =  -2327.76858022     A.U. after    9 cycles
 SCF Done:  E(RB3LYP) =  -2327.76858181     A.U. after    9 cycles
 SCF Done:  E(RB3LYP) =  -2327.76858218     A.U. after    7 cycles
 SCF Done:  E(RB3LYP) =  -2327.76858233     A.U. after    7 cycles
 SCF Done:  E(RB3LYP) =  -2327.76858238     A.U. after    7 cycles
 SCF Done:  E(RB3LYP) =  -2327.76858239     A.U. after    6 cycles
 Optimization completed.
    -- Stationary point found.

                         Standard orientation:
 ---------------------------------------------------------------------
 Center     Atomic      Atomic             Coordinates (Angstroms)
 Number     Number       Type             X           Y           Z
 ---------------------------------------------------------------------
      1          6           0        0.736733    3.850055   -3.622850
      2          6           0        2.047681    3.430748   -3.386382
      3          6           0        2.603486    3.540255   -2.112824
      4          6           0        1.859046    4.075531   -1.048966
      5          6           0        2.454410    4.261179    0.304081
      6          6           0        2.355644    5.521196    0.919106
      7          6           0        2.925479    5.781042    2.163251
      8          6           0        3.612936    4.767269    2.832334
      9          6           0        3.702792    3.503038    2.256794
     10          6           0        3.130049    3.235247    1.005055
     11          7           0        3.216580    1.905675    0.479051
     12          6           0        2.019422    1.160059    0.312773
     13          6           0        0.937335    1.337685    1.188085
     14          6           0       -0.244280    0.625249    1.008432
     15          6           0       -0.393066   -0.301444   -0.036444
     16          6           0       -1.650049   -1.065506   -0.216187
     17          6           0       -1.624949   -2.402962   -0.658934
     18          6           0       -2.796900   -3.137158   -0.826622
     19          6           0       -4.024957   -2.533687   -0.548200
     20          6           0       -4.068584   -1.198131   -0.107910
     21          6           0       -2.898245   -0.472007    0.058662
     22          6           0       -5.521516   -0.750598    0.147635
     23          6           0       -5.650824   -0.360132    1.636316
     24          6           0       -5.312483    0.934514    2.062024
     25          6           0       -5.338524    1.277468    3.413719
     26          6           0       -5.703108    0.331584    4.373173
     27          6           0       -6.038054   -0.958708    3.963981
     28          6           0       -6.010516   -1.300793    2.610538
     29          6           0       -5.994219    0.372397   -0.801461
     30          6           0       -7.147355    1.115377   -0.501468
     31          6           0       -7.637723    2.072971   -1.388995
     32          6           0       -6.985623    2.309483   -2.600163
     33          6           0       -5.841214    1.576155   -2.911651
     34          6           0       -5.352025    0.617137   -2.022544
     35          6           0       -6.283103   -2.040665   -0.215663
     36          6           0       -7.653552   -2.275582   -0.205560
     37          6           0       -8.133345   -3.530860   -0.596186
     38          6           0       -7.248783   -4.536808   -0.999713
     39          6           0       -5.872513   -4.304105   -1.018494
     40          6           0       -5.393175   -3.052498   -0.624499
     41          6           0        0.700050   -0.472745   -0.905029
     42          6           0        1.877654    0.246445   -0.745020
     43          6           0        4.493316    1.307130    0.341321
     44          6           0        5.598921    2.088387   -0.039381
     45          6           0        6.856331    1.503594   -0.169271
     46          6           0        7.041658    0.141133    0.059287
     47          6           0        5.950400   -0.656877    0.442035
     48          6           0        6.123253   -2.103396    0.764261
     49          6           0        5.735268   -2.560919    2.012736
     50          6           0        5.900413   -3.911051    2.395046
     51          6           0        6.461004   -4.812074    1.521530
     52          6           0        6.859116   -4.403298    0.221330
     53          6           0        7.416744   -5.329044   -0.701720
     54          6           0        7.772225   -4.939615   -1.972188
     55          6           0        7.573332   -3.599286   -2.378595
     56          6           0        7.042520   -2.674546   -1.506511
     57          6           0        6.683304   -3.034406   -0.177197
     58          6           0        4.690704   -0.061934    0.589678
     59          6           0        0.542944    4.494315   -1.300665
     60          6           0       -0.014537    4.381464   -2.574319
     61          1           0        0.304744    3.761528   -4.616096
     62          1           0        2.643154    3.021115   -4.198249
     63          1           0        3.626775    3.219515   -1.944268
     64          1           0        1.848496    6.318280    0.382699
     65          1           0        2.842747    6.771976    2.601002
     66          1           0        4.063666    4.953304    3.803324
     67          1           0        4.212857    2.697194    2.776092
     68          1           0        1.028396    2.028697    2.019769
     69          1           0       -1.053361    0.762793    1.720455
     70          1           0       -0.667226   -2.880687   -0.844298
     71          1           0       -2.747018   -4.171358   -1.157881
     72          1           0       -2.936807    0.564174    0.380780
     73          1           0       -5.039849    1.686891    1.328209
     74          1           0       -5.076266    2.288514    3.715104
     75          1           0       -5.727693    0.598540    5.426339
     76          1           0       -6.324099   -1.707366    4.698384
     77          1           0       -6.271574   -2.310662    2.312363
     78          1           0       -7.659725    0.954093    0.442167
     79          1           0       -8.530400    2.636574   -1.129673
     80          1           0       -7.364564    3.057878   -3.291092
     81          1           0       -5.321240    1.748045   -3.850664
     82          1           0       -4.461342    0.055769   -2.283869
     83          1           0       -8.348290   -1.497125    0.096682
     84          1           0       -9.202820   -3.723302   -0.589109
     85          1           0       -7.635998   -5.505763   -1.303549
     86          1           0       -5.187627   -5.086089   -1.336461
     87          1           0        0.610882   -1.150723   -1.749305
     88          1           0        2.691048    0.114467   -1.450638
     89          1           0        5.471184    3.150326   -0.221526
     90          1           0        7.702599    2.122775   -0.455541
     91          1           0        8.028682   -0.301237   -0.032883
     92          1           0        5.317380   -1.854445    2.724513
     93          1           0        5.592411   -4.226551    3.388222
     94          1           0        6.602635   -5.850954    1.810070
     95          1           0        7.551079   -6.360353   -0.383348
     96          1           0        8.195507   -5.659402   -2.667664
     97          1           0        7.836162   -3.298727   -3.389424
     98          1           0        6.883476   -1.653780   -1.836127
     99          1           0        3.850506   -0.677195    0.891544
    100          1           0       -0.051949    4.895509   -0.484501
    101          1           0       -1.038284    4.704415   -2.744346
 ---------------------------------------------------------------------

 The electronic state is 1-A.
 Alpha  occ. eigenvalues --  -14.36330 -10.23069 -10.23061 -10.22559 -10.21599
 Alpha  occ. eigenvalues --  -10.20292 -10.19803 -10.19748 -10.19693 -10.19691
 Alpha  occ. eigenvalues --  -10.19663 -10.19639 -10.19529 -10.19484 -10.19431
 Alpha  occ. eigenvalues --  -10.19307 -10.19262 -10.19246 -10.19080 -10.19027
 Alpha  occ. eigenvalues --  -10.19010 -10.19009 -10.18970 -10.18915 -10.18822
 Alpha  occ. eigenvalues --  -10.18801 -10.18790 -10.18784 -10.18773 -10.18727
 Alpha  occ. eigenvalues --  -10.18725 -10.18714 -10.18707 -10.18699 -10.18683
 Alpha  occ. eigenvalues --  -10.18669 -10.18650 -10.18649 -10.18626 -10.18609
 Alpha  occ. eigenvalues --  -10.18583 -10.18573 -10.18564 -10.18557 -10.18521
 Alpha  occ. eigenvalues --  -10.18520 -10.18491 -10.18488 -10.18471 -10.18462
 Alpha  occ. eigenvalues --  -10.18450 -10.18431 -10.18388 -10.18344 -10.18317
 Alpha  occ. eigenvalues --  -10.18310 -10.18299 -10.18256 -10.18197 -10.18156
 Alpha  occ. eigenvalues --   -0.96306  -0.89114  -0.87291  -0.86444  -0.85737
 Alpha  occ. eigenvalues --   -0.85105  -0.84711  -0.84411  -0.84233  -0.83250
 Alpha  occ. eigenvalues --   -0.81595  -0.80354  -0.78306  -0.77755  -0.77520
 Alpha  occ. eigenvalues --   -0.75646  -0.75066  -0.74396  -0.74249  -0.74155
 Alpha  occ. eigenvalues --   -0.74047  -0.73899  -0.73725  -0.73585  -0.73498
 Alpha  occ. eigenvalues --   -0.73231  -0.72509  -0.71492  -0.70725  -0.69175
 Alpha  occ. eigenvalues --   -0.67455  -0.63877  -0.63256  -0.62452  -0.62234
 Alpha  occ. eigenvalues --   -0.61705  -0.60874  -0.60696  -0.60656  -0.60228
 Alpha  occ. eigenvalues --   -0.60051  -0.59401  -0.59153  -0.58967  -0.58146
 Alpha  occ. eigenvalues --   -0.57865  -0.57309  -0.56755  -0.56045  -0.55371
 Alpha  occ. eigenvalues --   -0.53176  -0.52970  -0.51667  -0.51402  -0.51143
 Alpha  occ. eigenvalues --   -0.50781  -0.49936  -0.49787  -0.49636  -0.48866
 Alpha  occ. eigenvalues --   -0.48463  -0.47894  -0.47456  -0.46854  -0.46155
 Alpha  occ. eigenvalues --   -0.45672  -0.45551  -0.45031  -0.44750  -0.44604
 Alpha  occ. eigenvalues --   -0.44309  -0.44119  -0.43939  -0.43784  -0.43599
 Alpha  occ. eigenvalues --   -0.43505  -0.43250  -0.43003  -0.42754  -0.42483
 Alpha  occ. eigenvalues --   -0.42159  -0.41861  -0.41712  -0.41667  -0.41479
 Alpha  occ. eigenvalues --   -0.41385  -0.41321  -0.41191  -0.41057  -0.40247
 Alpha  occ. eigenvalues --   -0.39791  -0.39719  -0.38340  -0.38319  -0.37609
 Alpha  occ. eigenvalues --   -0.37540  -0.37423  -0.37157  -0.36850  -0.36698
 Alpha  occ. eigenvalues --   -0.36399  -0.36225  -0.35930  -0.35837  -0.35558
 Alpha  occ. eigenvalues --   -0.35186  -0.34917  -0.34802  -0.34451  -0.34270
 Alpha  occ. eigenvalues --   -0.34146  -0.33860  -0.33681  -0.33612  -0.33360
 Alpha  occ. eigenvalues --   -0.33310  -0.33271  -0.32234  -0.32187  -0.32032
 Alpha  occ. eigenvalues --   -0.31802  -0.30349  -0.28422  -0.27918  -0.26956
 Alpha  occ. eigenvalues --   -0.25917  -0.25904  -0.25264  -0.24778  -0.24738
 Alpha  occ. eigenvalues --   -0.24570  -0.24558  -0.24211  -0.24187  -0.23965
 Alpha  occ. eigenvalues --   -0.23291  -0.23048  -0.22864  -0.21011  -0.20559
 Alpha  occ. eigenvalues --   -0.18051
 Alpha virt. eigenvalues --   -0.03931  -0.03814  -0.02701  -0.01540  -0.01336
 Alpha virt. eigenvalues --   -0.00812  -0.00646  -0.00474  -0.00053   0.00059
 Alpha virt. eigenvalues --    0.00240   0.00819   0.01022   0.01549   0.01839

 Mulliken charges:
               1
     1  C   -0.123367
     2  C   -0.137512
     3  C   -0.153009
     4  C    0.072103
     5  C    0.069273
     6  C   -0.190899
     7  C   -0.125815
     8  C   -0.139521
     9  C   -0.150498
    10  C    0.191631
    11  N   -0.665658
    12  C    0.311042
    13  C   -0.180486
    14  C   -0.188765
    15  C    0.094727
    16  C    0.097042
    17  C   -0.189306
    18  C   -0.199220
    19  C    0.091346
    20  C    0.081820
    21  C   -0.238653
    22  C   -0.227220
    23  C    0.155632
    24  C   -0.178633
    25  C   -0.137304
    26  C   -0.126855
    27  C   -0.132905
    28  C   -0.184517
    29  C    0.155295
    30  C   -0.177443
    31  C   -0.136627
    32  C   -0.126954
    33  C   -0.133193
    34  C   -0.183302
    35  C    0.080836
    36  C   -0.180883
    37  C   -0.134292
    38  C   -0.134852
    39  C   -0.193926
    40  C    0.090016
    41  C   -0.188578
    42  C   -0.157488
    43  C    0.310210
    44  C   -0.178425
    45  C   -0.142884
    46  C   -0.171689
    47  C    0.059837
    48  C    0.018179
    49  C   -0.178600
    50  C   -0.136868
    51  C   -0.186773
    52  C    0.129177
    53  C   -0.195203
    54  C   -0.132086
    55  C   -0.136632
    56  C   -0.199757
    57  C    0.091882
    58  C   -0.230457
    59  C   -0.160627
    60  C   -0.133864
    61  H    0.128376
    62  H    0.129513
    63  H    0.138495
    64  H    0.138978
    65  H    0.132051
    66  H    0.134396
    67  H    0.145082
    68  H    0.141923
    69  H    0.137787
    70  H    0.132334
    71  H    0.130087
    72  H    0.135515
    73  H    0.139527
    74  H    0.127962
    75  H    0.127015
    76  H    0.128953
    77  H    0.143774
    78  H    0.138392
    79  H    0.128046
    80  H    0.126578
    81  H    0.128476
    82  H    0.144712
    83  H    0.133077
    84  H    0.128321
    85  H    0.128321
    86  H    0.129451
    87  H    0.132642
    88  H    0.142924
    89  H    0.143119
    90  H    0.131628
    91  H    0.136891
    92  H    0.133827
    93  H    0.130732
    94  H    0.128337
    95  H    0.128543
    96  H    0.128750
    97  H    0.128308
    98  H    0.144745
    99  H    0.152186
   100  H    0.131341
   101  H    0.130385
 Sum of Mulliken charges =  -0.00000

 Dipole moment (field-independent basis, Debye):
    X=              0.0239    Y=              0.7799    Z=              0.2089  Tot=              0.8078
 Quadrupole moment (field-independent basis, Debye-Ang):
   XX=           -329.3042   YY=           -315.3836   ZZ=           -323.5521
   XY=             -2.5571   XZ=             -4.4083   YZ=              5.4614

 1\1\GINC-NODE60\FOpt\RB3LYP\6-31G(d)\C59H41N1\WYKGROUP\05-Nov-2022\0\\
 #p b3lyp/6-31g(d) opt SCF=XQC\\Gaussian input prepared by ASE\\0,1\C,0
 .9571257086,-2.3982762029,4.6415842742\C,2.2498043967,-2.0491382518,4.
 2448401946\C,2.7858197832,-2.5584366266,3.0632472461\C,2.0395762389,-3
 .431528071,2.2549548572\C,2.6160889386,-4.0379239069,1.0222441107\C,2.
 5459109743,-5.4321252949,0.858136556\C,3.1011972083,-6.0733300411,-0.2
 466897064\C,3.7443586368,-5.3201969533,-1.2301227588\C,3.8047907277,-3
 .9352236986,-1.1044355853\C,3.2464868318,-3.2840888215,0.005030957\N,3

 Normal termination of Gaussian 16 at Sat Nov  5 03:02:52 2022.
