 Gaussian 16, Revision B.01,
 Gaussian 16:  ES64L-G16RevB.01 20-Dec-2017

 -----------------------------
 #p b3lyp/6-31g(d) opt SCF=XQC
 -----------------------------

 ------------------------------
 Gaussian input prepared by ASE
 ------------------------------
 Symbolic Z-matrix:
 Charge =  0 Multiplicity = 1

 SCF Done:  E(RB3LYP) =  -1957.94740061     A.U. after   15 cycles
 SCF Done:  E(RB3LYP) =  -1957.95790976     A.U. after   13 cycles
 SCF Done:  E(RB3LYP) =  -1957.95873555     A.U. after   12 cycles
 SCF Done:  E(RB3LYP) =  -1957.95897240     A.U. after   11 cycles
 SCF Done:  E(RB3LYP) =  -1957.95899960     A.U. after   10 cycles
 SCF Done:  E(RB3LYP) =  -1957.95900708     A.U. after    9 cycles
 SCF Done:  E(RB3LYP) =  -1957.95900770     A.U. after    8 cycles
 SCF Done:  E(RB3LYP) =  -1957.95900777     A.U. after    7 cycles
 Optimization completed.
    -- Stationary point found.

                         Standard orientation:
 ---------------------------------------------------------------------
 Center     Atomic      Atomic             Coordinates (Angstroms)
 Number     Number       Type             X           Y           Z
 ---------------------------------------------------------------------
      1          6           0       -9.234049    1.762300   -2.561050
      2          6           0       -8.164691    2.122134   -1.737837
      3          6           0       -7.719595    1.253143   -0.743141
      4          6           0       -8.335807    0.006282   -0.548254
      5          6           0       -7.909751   -0.911243    0.548804
      6          6           0       -8.894275   -1.367683    1.441205
      7          6           0       -8.582479   -2.185675    2.524462
      8          6           0       -7.258444   -2.565313    2.739448
      9          6           0       -6.269586   -2.131366    1.860048
     10          6           0       -6.566644   -1.313030    0.757082
     11          6           0       -5.448312   -0.950219   -0.162516
     12          6           0       -5.535307   -1.169002   -1.547216
     13          6           0       -4.454521   -0.883107   -2.378634
     14          6           0       -3.270755   -0.364168   -1.854271
     15          6           0       -3.165206   -0.151969   -0.475299
     16          7           0       -1.960948    0.363626    0.077759
     17          6           0       -1.844819    1.509010    0.874963
     18          6           0       -2.830461    2.412777    1.281041
     19          6           0       -2.435971    3.493641    2.066843
     20          6           0       -1.093097    3.678581    2.438203
     21          6           0       -0.113637    2.782428    2.019975
     22          6           0       -0.482947    1.688163    1.229380
     23          6           0        0.255836    0.602468    0.617981
     24          6           0        1.603938    0.235991    0.622833
     25          6           0        2.023759   -0.914105   -0.058103
     26          6           0        3.454288   -1.314143   -0.069999
     27          6           0        3.818742   -2.679780    0.008520
     28          6           0        5.148988   -3.079715    0.012019
     29          6           0        6.158423   -2.113709   -0.068306
     30          6           0        7.604105   -2.166389   -0.075432
     31          6           0        8.534409   -3.211291   -0.023502
     32          6           0        9.893180   -2.913214   -0.070845
     33          6           0       10.329471   -1.581349   -0.176561
     34          6           0        9.425105   -0.522381   -0.229418
     35          6           0        8.062585   -0.826712   -0.168664
     36          7           0        6.956552    0.030156   -0.220702
     37          6           0        7.007385    1.447448   -0.313130
     38          6           0        6.352597    2.107851   -1.360617
     39          6           0        6.396385    3.499537   -1.441300
     40          6           0        7.107420    4.239024   -0.494118
     41          6           0        7.768453    3.579137    0.543785
     42          6           0        7.712670    2.189115    0.643298
     43          6           0        5.793301   -0.747039   -0.157662
     44          6           0        4.459213   -0.339550   -0.153698
     45          6           0        1.054154   -1.691572   -0.734873
     46          6           0       -0.294037   -1.350821   -0.754979
     47          6           0       -0.687256   -0.191718   -0.081000
     48          6           0       -4.246818   -0.450609    0.361346
     49          6           0       -9.414226   -0.339911   -1.378723
     50          6           0       -9.857421    0.527408   -2.377906
     51          1           0       -9.578642    2.439790   -3.337681
     52          1           0       -7.677615    3.085081   -1.867263
     53          1           0       -6.893333    1.545006   -0.101960
     54          1           0       -9.920014   -1.042520    1.290865
     55          1           0       -9.367732   -2.514856    3.199580
     56          1           0       -6.995679   -3.202975    3.579047
     57          1           0       -5.242954   -2.455820    2.005617
     58          1           0       -6.450484   -1.571211   -1.968854
     59          1           0       -4.536539   -1.057443   -3.447928
     60          1           0       -2.436382   -0.114412   -2.501902
     61          1           0       -3.867965    2.281413    0.992232
     62          1           0       -3.185351    4.208218    2.396585
     63          1           0       -0.818954    4.530438    3.053993
     64          1           0        0.926019    2.931186    2.300044
     65          1           0        2.325250    0.826162    1.181304
     66          1           0        3.037604   -3.428065    0.101583
     67          1           0        5.401295   -4.134070    0.091108
     68          1           0        8.198184   -4.242440    0.048581
     69          1           0       10.624203   -3.715739   -0.030015
     70          1           0       11.394352   -1.369222   -0.221055
     71          1           0        9.769524    0.502483   -0.320328
     72          1           0        5.822484    1.526433   -2.108444
     73          1           0        5.883535    4.004780   -2.255126
     74          1           0        7.145950    5.322424   -0.564247
     75          1           0        8.319134    4.147502    1.288394
     76          1           0        8.203004    1.672414    1.462482
     77          1           0        4.197337    0.709531   -0.237319
     78          1           0        1.377266   -2.573932   -1.279292
     79          1           0       -1.012928   -1.967592   -1.284071
     80          1           0       -4.148988   -0.288207    1.430218
     81          1           0       -9.897658   -1.304412   -1.246398
     82          1           0      -10.688909    0.235649   -3.014250
 ---------------------------------------------------------------------

 The electronic state is 1-A.
 Alpha  occ. eigenvalues --  -14.38100 -14.37827 -10.23829 -10.23737 -10.22256
 Alpha  occ. eigenvalues --  -10.22206 -10.22037 -10.22010 -10.20806 -10.20575
 Alpha  occ. eigenvalues --  -10.20481 -10.20091 -10.19952 -10.19926 -10.19877
 Alpha  occ. eigenvalues --  -10.19842 -10.19813 -10.19813 -10.19776 -10.19706
 Alpha  occ. eigenvalues --  -10.19477 -10.19398 -10.19360 -10.19313 -10.19272
 Alpha  occ. eigenvalues --  -10.19225 -10.19213 -10.19158 -10.19123 -10.19106
 Alpha  occ. eigenvalues --  -10.19043 -10.18838 -10.18683 -10.18676 -10.18653
 Alpha  occ. eigenvalues --  -10.18610 -10.18584 -10.18569 -10.18483 -10.18463
 Alpha  occ. eigenvalues --  -10.18461 -10.18450 -10.18447 -10.18385 -10.18367
 Alpha  occ. eigenvalues --  -10.18277 -10.18187 -10.17986 -10.17790 -10.17645
 Alpha  occ. eigenvalues --   -0.98800  -0.98562  -0.87907  -0.86825  -0.86475
 Alpha  occ. eigenvalues --   -0.85236  -0.84735  -0.83865  -0.83704  -0.83253
 Alpha  occ. eigenvalues --   -0.79345  -0.78334  -0.77649  -0.77388  -0.75731
 Alpha  occ. eigenvalues --   -0.75563  -0.75112  -0.74530  -0.74470  -0.74328
 Alpha  occ. eigenvalues --   -0.73161  -0.72438  -0.71859  -0.71347  -0.70932
 Alpha  occ. eigenvalues --   -0.69654  -0.65165  -0.63826  -0.63581  -0.62503
 Alpha  occ. eigenvalues --   -0.62046  -0.61838  -0.61377  -0.60606  -0.59733
 Alpha  occ. eigenvalues --   -0.59392  -0.58818  -0.58372  -0.57678  -0.56900
 Alpha  occ. eigenvalues --   -0.56692  -0.56145  -0.53799  -0.53424  -0.51978
 Alpha  occ. eigenvalues --   -0.51635  -0.51353  -0.50820  -0.49794  -0.49550
 Alpha  occ. eigenvalues --   -0.48852  -0.47930  -0.47560  -0.46950  -0.46659
 Alpha  occ. eigenvalues --   -0.46174  -0.46036  -0.45345  -0.44976  -0.44806
 Alpha  occ. eigenvalues --   -0.44574  -0.44088  -0.43628  -0.43484  -0.43057
 Alpha  occ. eigenvalues --   -0.42952  -0.42831  -0.42717  -0.42534  -0.42353
 Alpha  occ. eigenvalues --   -0.42060  -0.42024  -0.41960  -0.41542  -0.41337
 Alpha  occ. eigenvalues --   -0.41100  -0.40887  -0.38617  -0.38063  -0.37521
 Alpha  occ. eigenvalues --   -0.37319  -0.37246  -0.37139  -0.36900  -0.36294
 Alpha  occ. eigenvalues --   -0.36196  -0.35857  -0.35731  -0.35520  -0.35388
 Alpha  occ. eigenvalues --   -0.35243  -0.34745  -0.34398  -0.33938  -0.33694
 Alpha  occ. eigenvalues --   -0.33591  -0.33549  -0.33114  -0.32742  -0.32208
 Alpha  occ. eigenvalues --   -0.31586  -0.28267  -0.27384  -0.27255  -0.26957
 Alpha  occ. eigenvalues --   -0.25947  -0.25881  -0.25781  -0.25054  -0.24762
 Alpha  occ. eigenvalues --   -0.24636  -0.24184  -0.22475  -0.21561  -0.20664
 Alpha  occ. eigenvalues --   -0.19445  -0.18668
 Alpha virt. eigenvalues --   -0.03494  -0.03018  -0.02456  -0.01933  -0.01420
 Alpha virt. eigenvalues --   -0.01367  -0.01005   0.00019   0.00844   0.00864
 Alpha virt. eigenvalues --    0.01127   0.02116   0.02882   0.03904   0.04367

 Mulliken charges:
               1
     1  C   -0.126504
     2  C   -0.134869
     3  C   -0.152039
     4  C    0.055452
     5  C    0.041284
     6  C   -0.177475
     7  C   -0.127479
     8  C   -0.129243
     9  C   -0.176820
    10  C    0.041028
    11  C    0.052732
    12  C   -0.144269
    13  C   -0.147232
    14  C   -0.151817
    15  C    0.270474
    16  N   -0.740673
    17  C    0.311092
    18  C   -0.176423
    19  C   -0.142373
    20  C   -0.145240
    21  C   -0.197075
    22  C    0.057660
    23  C    0.065061
    24  C   -0.258072
    25  C    0.078601
    26  C    0.089950
    27  C   -0.198176
    28  C   -0.203136
    29  C    0.066407
    30  C    0.057641
    31  C   -0.197676
    32  C   -0.145182
    33  C   -0.141998
    34  C   -0.178034
    35  C    0.314552
    36  N   -0.740291
    37  C    0.262893
    38  C   -0.148217
    39  C   -0.142844
    40  C   -0.121514
    41  C   -0.143160
    42  C   -0.148773
    43  C    0.318832
    44  C   -0.238576
    45  C   -0.193837
    46  C   -0.179262
    47  C    0.317622
    48  C   -0.203878
    49  C   -0.169871
    50  C   -0.134319
    51  H    0.130420
    52  H    0.132463
    53  H    0.137855
    54  H    0.137848
    55  H    0.133163
    56  H    0.134126
    57  H    0.139987
    58  H    0.144523
    59  H    0.139085
    60  H    0.150924
    61  H    0.139694
    62  H    0.126345
    63  H    0.123739
    64  H    0.131124
    65  H    0.135210
    66  H    0.125747
    67  H    0.129435
    68  H    0.128750
    69  H    0.122834
    70  H    0.125424
    71  H    0.138551
    72  H    0.153886
    73  H    0.139048
    74  H    0.134719
    75  H    0.137709
    76  H    0.152041
    77  H    0.141281
    78  H    0.131066
    79  H    0.140432
    80  H    0.153829
    81  H    0.132942
    82  H    0.130862
 Sum of Mulliken charges =  -0.00000

 Dipole moment (field-independent basis, Debye):
    X=             -2.0693    Y=              1.1792    Z=             -0.7678  Tot=              2.5024
 Quadrupole moment (field-independent basis, Debye-Ang):
   XX=           -252.2203   YY=           -264.8645   ZZ=           -276.8248
   XY=             16.7921   XZ=              7.0653   YZ=             -1.2821

 1\1\GINC-NODE89\FOpt\RB3LYP\6-31G(d)\C48H32N2\WYKGROUP\05-Nov-2022\0\\
 #p b3lyp/6-31g(d) opt SCF=XQC\\Gaussian input prepared by ASE\\0,1\C,8
 .8752507624,-3.104384886,2.0506924104\C,7.8355976405,-2.2347949254,2.3
 877684142\C,7.4880902187,-1.1897265892,1.5335170808\C,8.1743564236,-0.
 989870198,0.3246099229\C,7.8537520108,0.1578345431,-0.5736663496\C,8.9
 062836209,1.0081236846,-0.9520718429\C,8.6940059958,2.1325292723,-1.74
 60634596\C,7.403747893,2.4328438193,-2.1801821309\C,6.3487013034,1.596
 4854152,-1.8239870176\C,6.5451975128,0.4532208161,-1.0310271769\C,5.36

 Normal termination of Gaussian 16 at Sat Nov  5 01:58:55 2022.
