 Gaussian 16, Revision B.01,
 Gaussian 16:  ES64L-G16RevB.01 20-Dec-2017

 -----------------------------
 #p b3lyp/6-31g(d) opt SCF=XQC
 -----------------------------

 ------------------------------
 Gaussian input prepared by ASE
 ------------------------------
 Symbolic Z-matrix:
 Charge =  0 Multiplicity = 1

 SCF Done:  E(RB3LYP) =  -2547.82895682     A.U. after   16 cycles
 SCF Done:  E(RB3LYP) =  -2547.84273248     A.U. after   13 cycles
 SCF Done:  E(RB3LYP) =  -2547.84010130     A.U. after   14 cycles
 SCF Done:  E(RB3LYP) =  -2547.84112813     A.U. after   13 cycles
 SCF Done:  E(RB3LYP) =  -2547.84353783     A.U. after   10 cycles
 SCF Done:  E(RB3LYP) =  -2547.84377581     A.U. after   12 cycles
 SCF Done:  E(RB3LYP) =  -2547.84408491     A.U. after   12 cycles
 SCF Done:  E(RB3LYP) =  -2547.84416197     A.U. after   11 cycles
 SCF Done:  E(RB3LYP) =  -2547.84414523     A.U. after   11 cycles
 SCF Done:  E(RB3LYP) =  -2547.84418235     A.U. after   11 cycles
 SCF Done:  E(RB3LYP) =  -2547.84418603     A.U. after    8 cycles
 SCF Done:  E(RB3LYP) =  -2547.84418620     A.U. after    7 cycles
 Optimization completed.
    -- Stationary point found.

                         Standard orientation:
 ---------------------------------------------------------------------
 Center     Atomic      Atomic             Coordinates (Angstroms)
 Number     Number       Type             X           Y           Z
 ---------------------------------------------------------------------
      1          6           0        0.805881    4.897501   -3.667079
      2          6           0       -0.453055    4.307019   -3.554758
      3          6           0       -0.745039    3.469471   -2.477506
      4          6           0        0.216180    3.181307   -1.498204
      5          6           0        1.438000    3.887318   -1.565306
      6          6           0        1.743245    4.708918   -2.654135
      7         16           0        2.561170    3.847939   -0.179104
      8          6           0        1.331871    3.857488    1.111151
      9          6           0        1.629831    4.596279    2.282478
     10          6           0        0.649587    4.817287    3.213407
     11          6           0       -0.691746    4.438745    2.940051
     12          6           0       -1.741912    4.849019    3.803349
     13          6           0       -3.059686    4.622140    3.481456
     14          6           0       -3.373057    3.987473    2.259426
     15          6           0       -2.375954    3.536852    1.421195
     16          6           0       -0.997154    3.699947    1.742863
     17          6           0        0.092457    3.248556    0.910088
     18          6           0        0.020910    2.251037   -0.282251
     19          6           0       -1.176826    1.265514   -0.321720
     20          6           0       -1.633660    0.698572   -1.522121
     21          6           0       -2.593306   -0.313459   -1.540853
     22          6           0       -3.126619   -0.805830   -0.347299
     23          7           0       -4.116754   -1.821751   -0.361878
     24          6           0       -5.336945   -1.765058   -1.046741
     25          6           0       -5.869276   -0.737246   -1.830119
     26          6           0       -7.131466   -0.932816   -2.386985
     27          6           0       -7.853167   -2.118856   -2.168518
     28          6           0       -7.323320   -3.133542   -1.376760
     29          6           0       -6.057430   -2.962426   -0.804495
     30          6           0       -5.234696   -3.779586    0.062747
     31          6           0       -5.392395   -5.051535    0.625476
     32          6           0       -4.374785   -5.573345    1.418617
     33          6           0       -3.198738   -4.838320    1.646821
     34          6           0       -3.016389   -3.570089    1.099498
     35          6           0       -4.048044   -3.045487    0.315940
     36          6           0       -2.650762   -0.286810    0.862768
     37          6           0       -1.682668    0.711841    0.868046
     38          6           0        1.197047    1.212476   -0.199809
     39          6           0        1.744011    0.664913   -1.366585
     40          6           0        2.698552   -0.347874   -1.312602
     41          6           0        3.136860   -0.838243   -0.077935
     42          7           0        4.122213   -1.859727   -0.016499
     43          6           0        3.984272   -3.094446    0.627171
     44          6           0        2.883737   -3.621984    1.308457
     45          6           0        3.006582   -4.901157    1.846632
     46          6           0        4.192027   -5.643876    1.708835
     47          6           0        5.280079   -5.118181    1.018228
     48          6           0        5.183462   -3.835175    0.466787
     49          6           0        6.086276   -3.008888   -0.307005
     50          6           0        7.396793   -3.179247   -0.768732
     51          6           0        8.001136   -2.153245   -1.489272
     52          6           0        7.309606   -0.956541   -1.745786
     53          6           0        6.004607   -0.760957   -1.298828
     54          6           0        5.398662   -1.800232   -0.587198
     55          6           0        2.588002   -0.308150    1.095423
     56          6           0        1.620650    0.690977    1.029212
     57          1           0        1.040356    5.541616   -4.509774
     58          1           0       -1.215054    4.495917   -4.305691
     59          1           0       -1.735186    3.036151   -2.407063
     60          1           0        2.693456    5.234705   -2.678685
     61          1           0        2.629496    4.999210    2.416761
     62          1           0        0.868110    5.364500    4.126774
     63          1           0       -1.479950    5.381476    4.714629
     64          1           0       -3.854335    4.955534    4.142935
     65          1           0       -4.412244    3.859488    1.968717
     66          1           0       -2.653526    3.078920    0.482157
     67          1           0       -1.210636    1.007637   -2.469493
     68          1           0       -2.911414   -0.740089   -2.486980
     69          1           0       -5.322252    0.184780   -1.996786
     70          1           0       -7.565222   -0.148289   -3.001265
     71          1           0       -8.834001   -2.241066   -2.619091
     72          1           0       -7.886425   -4.046395   -1.200540
     73          1           0       -6.296673   -5.625503    0.440303
     74          1           0       -4.486054   -6.558959    1.861493
     75          1           0       -2.410776   -5.267134    2.260052
     76          1           0       -2.100300   -3.014561    1.270454
     77          1           0       -3.046682   -0.662353    1.801044
     78          1           0       -1.328181    1.074035    1.825142
     79          1           0        1.426412    1.032256   -2.337313
     80          1           0        3.101634   -0.767880   -2.229009
     81          1           0        1.962354   -3.058050    1.409967
     82          1           0        2.164636   -5.332647    2.381384
     83          1           0        4.255823   -6.638076    2.141942
     84          1           0        6.192712   -5.697517    0.904009
     85          1           0        7.936159   -4.100228   -0.562656
     86          1           0        9.017281   -2.274585   -1.853757
     87          1           0        7.801812   -0.163357   -2.302217
     88          1           0        5.480281    0.169219   -1.491549
     89          1           0        2.930570   -0.673223    2.058809
     90          1           0        1.217544    1.089497    1.954494
 ---------------------------------------------------------------------

 The electronic state is 1-A.
 Alpha  occ. eigenvalues --  -88.89784 -14.38267 -14.37761 -10.24278 -10.24034
 Alpha  occ. eigenvalues --  -10.23379 -10.23062 -10.23045 -10.22409 -10.22361
 Alpha  occ. eigenvalues --  -10.21963 -10.21944 -10.21813 -10.21761 -10.21601
 Alpha  occ. eigenvalues --  -10.21236 -10.20893 -10.20534 -10.20446 -10.20283
 Alpha  occ. eigenvalues --  -10.20236 -10.20168 -10.20153 -10.20138 -10.20087
 Alpha  occ. eigenvalues --  -10.20014 -10.19986 -10.19973 -10.19665 -10.19652
 Alpha  occ. eigenvalues --  -10.19608 -10.19524 -10.19460 -10.19430 -10.19427
 Alpha  occ. eigenvalues --  -10.19318 -10.18846 -10.18799 -10.18754 -10.18754
 Alpha  occ. eigenvalues --  -10.18745 -10.18724 -10.18678 -10.18660 -10.18419
 Alpha  occ. eigenvalues --  -10.18415 -10.18406 -10.18369 -10.18345 -10.18329
 Alpha  occ. eigenvalues --  -10.18307 -10.18292 -10.18136 -10.18073 -10.17753
 Alpha  occ. eigenvalues --  -10.17737  -7.95822  -5.92310  -5.91948  -5.91359
 Alpha  occ. eigenvalues --   -0.98956  -0.98486  -0.90445  -0.87634  -0.87234
 Alpha  occ. eigenvalues --   -0.86672  -0.84697  -0.84218  -0.84056  -0.83824
 Alpha  occ. eigenvalues --   -0.83489  -0.81351  -0.79754  -0.78184  -0.77942
 Alpha  occ. eigenvalues --   -0.77133  -0.76044  -0.75524  -0.75424  -0.75125
 Alpha  occ. eigenvalues --   -0.74953  -0.74630  -0.74250  -0.73141  -0.72517
 Alpha  occ. eigenvalues --   -0.71416  -0.71097  -0.71030  -0.70508  -0.67343
 Alpha  occ. eigenvalues --   -0.64597  -0.63813  -0.63388  -0.62850  -0.62144
 Alpha  occ. eigenvalues --   -0.61853  -0.61082  -0.60896  -0.60278  -0.59968
 Alpha  occ. eigenvalues --   -0.59490  -0.59175  -0.58198  -0.57453  -0.57295
 Alpha  occ. eigenvalues --   -0.56907  -0.56634  -0.53810  -0.53299  -0.52362
 Alpha  occ. eigenvalues --   -0.52083  -0.51428  -0.51306  -0.51005  -0.50449
 Alpha  occ. eigenvalues --   -0.50121  -0.49216  -0.48430  -0.48166  -0.47036
 Alpha  occ. eigenvalues --   -0.46864  -0.46376  -0.46143  -0.45663  -0.45457
 Alpha  occ. eigenvalues --   -0.45227  -0.44987  -0.44821  -0.44446  -0.44128
 Alpha  occ. eigenvalues --   -0.43699  -0.43497  -0.43298  -0.43104  -0.43000
 Alpha  occ. eigenvalues --   -0.42860  -0.42609  -0.42395  -0.42292  -0.41856
 Alpha  occ. eigenvalues --   -0.41526  -0.41484  -0.41377  -0.41257  -0.41065
 Alpha  occ. eigenvalues --   -0.40666  -0.40384  -0.39772  -0.39036  -0.38382
 Alpha  occ. eigenvalues --   -0.37619  -0.37302  -0.36872  -0.36570  -0.36403
 Alpha  occ. eigenvalues --   -0.36163  -0.36025  -0.35902  -0.35433  -0.35205
 Alpha  occ. eigenvalues --   -0.35124  -0.35006  -0.34736  -0.34683  -0.34440
 Alpha  occ. eigenvalues --   -0.33824  -0.33449  -0.33369  -0.33048  -0.32948
 Alpha  occ. eigenvalues --   -0.32405  -0.32294  -0.31662  -0.29798  -0.28458
 Alpha  occ. eigenvalues --   -0.27759  -0.27373  -0.26894  -0.26294  -0.25845
 Alpha  occ. eigenvalues --   -0.25467  -0.25142  -0.24962  -0.24575  -0.23977
 Alpha  occ. eigenvalues --   -0.22052  -0.21216  -0.21149  -0.20766  -0.19756
 Alpha  occ. eigenvalues --   -0.19156
 Alpha virt. eigenvalues --   -0.05311  -0.03314  -0.02561  -0.02477  -0.02183
 Alpha virt. eigenvalues --   -0.01995  -0.01591  -0.01336   0.00008   0.00370
 Alpha virt. eigenvalues --    0.00796   0.01179   0.01954   0.02998   0.03359

 Mulliken charges:
               1
     1  C   -0.118341
     2  C   -0.140682
     3  C   -0.194225
     4  C    0.146769
     5  C   -0.123568
     6  C   -0.161136
     7  S    0.179723
     8  C   -0.137938
     9  C   -0.158541
    10  C   -0.176700
    11  C    0.125317
    12  C   -0.193700
    13  C   -0.132710
    14  C   -0.138776
    15  C   -0.188223
    16  C    0.067514
    17  C    0.051334
    18  C   -0.222791
    19  C    0.135921
    20  C   -0.205103
    21  C   -0.159393
    22  C    0.274144
    23  N   -0.737315
    24  C    0.312055
    25  C   -0.175370
    26  C   -0.142050
    27  C   -0.144765
    28  C   -0.197141
    29  C    0.059945
    30  C    0.059316
    31  C   -0.197004
    32  C   -0.144386
    33  C   -0.141402
    34  C   -0.175653
    35  C    0.312349
    36  C   -0.157413
    37  C   -0.177690
    38  C    0.160570
    39  C   -0.176676
    40  C   -0.153788
    41  C    0.269430
    42  N   -0.734645
    43  C    0.312363
    44  C   -0.175737
    45  C   -0.141638
    46  C   -0.144904
    47  C   -0.197459
    48  C    0.059319
    49  C    0.059646
    50  C   -0.197590
    51  C   -0.144961
    52  C   -0.142382
    53  C   -0.177190
    54  C    0.311591
    55  C   -0.155648
    56  C   -0.175220
    57  H    0.137129
    58  H    0.136036
    59  H    0.147947
    60  H    0.148373
    61  H    0.148966
    62  H    0.136164
    63  H    0.132404
    64  H    0.133260
    65  H    0.134589
    66  H    0.149151
    67  H    0.150386
    68  H    0.153324
    69  H    0.134776
    70  H    0.125669
    71  H    0.124122
    72  H    0.130176
    73  H    0.129881
    74  H    0.124480
    75  H    0.126593
    76  H    0.140342
    77  H    0.154463
    78  H    0.151628
    79  H    0.140668
    80  H    0.150698
    81  H    0.137849
    82  H    0.124132
    83  H    0.122652
    84  H    0.128664
    85  H    0.128507
    86  H    0.122415
    87  H    0.125081
    88  H    0.141662
    89  H    0.150337
    90  H    0.140024
 Sum of Mulliken charges =  -0.00000

 Dipole moment (field-independent basis, Debye):
    X=             -1.3007    Y=              3.0203    Z=             -0.1063  Tot=              3.2902
 Quadrupole moment (field-independent basis, Debye-Ang):
   XX=           -323.4230   YY=           -313.9422   ZZ=           -305.9551
   XY=              0.6392   XZ=             -0.5248   YZ=             -6.3205

 Normal termination of Gaussian 16 at Sat Nov  5 02:39:58 2022.
