 Gaussian 16, Revision B.01,
 Gaussian 16:  ES64L-G16RevB.01 20-Dec-2017

 -------------------------------------------------------------------
 #p b3lyp/6-31g(d) 6D 10F nosymm GFInput td=(50-50,nstate=2) SCF=XQC
 -------------------------------------------------------------------

 ------------------------------
 Gaussian input prepared by ASE
 ------------------------------
 Symbolic Z-matrix:
 Charge =  0 Multiplicity = 1

                          Input orientation:
 ---------------------------------------------------------------------
 Center     Atomic      Atomic             Coordinates (Angstroms)
 Number     Number       Type             X           Y           Z
 ---------------------------------------------------------------------
      1          6           0        8.875251   -3.104385    2.050692
      2          6           0        7.835598   -2.234795    2.387768
      3          6           0        7.488090   -1.189727    1.533517
      4          6           0        8.174356   -0.989870    0.324610
      5          6           0        7.853752    0.157835   -0.573666
      6          6           0        8.906284    1.008124   -0.952072
      7          6           0        8.694006    2.132529   -1.746063
      8          6           0        7.403748    2.432844   -2.180182
      9          6           0        6.348701    1.596485   -1.823987
     10          6           0        6.545198    0.453221   -1.031027
     11          6           0        5.362338   -0.413784   -0.753348
     12          6           0        5.384976   -1.793517   -1.015362
     13          6           0        4.248103   -2.572166   -0.809655
     14          6           0        3.070387   -1.999505   -0.329448
     15          6           0        3.029257   -0.624245   -0.075079
     16          7           0        1.832818   -0.021701    0.401811
     17          6           0        1.703911    0.743887    1.567221
     18          6           0        2.664543    1.065519    2.529989
     19          6           0        2.260565    1.837275    3.617450
     20          6           0        0.932278    2.276729    3.751442
     21          6           0       -0.023219    1.942386    2.796147
     22          6           0        0.356044    1.167675    1.693955
     23          6           0       -0.360563    0.633193    0.554154
     24          6           0       -1.686829    0.724726    0.124797
     25          6           0       -2.085925    0.105146   -1.066626
     26          6           0       -3.493656    0.185621   -1.533957
     27          6           0       -3.785904    0.327710   -2.911766
     28          6           0       -5.092794    0.417963   -3.373729
     29          6           0       -6.151264    0.363254   -2.459822
     30          6           0       -7.590890    0.438283   -2.580941
     31          6           0       -8.464648    0.575127   -3.666207
     32          6           0       -9.836976    0.594025   -3.434451
     33          6           0      -10.343151    0.470438   -2.129113
     34          6           0       -9.496001    0.333665   -1.031063
     35          6           0       -8.118903    0.328140   -1.268424
     36          7           0       -7.060667    0.187390   -0.362574
     37          6           0       -7.185884    0.052893    1.046708
     38          6           0       -6.621865   -1.049893    1.700814
     39          6           0       -6.738166   -1.172248    3.085271
     40          6           0       -7.432374   -0.210966    3.822546
     41          6           0       -8.003164    0.882588    3.168331
     42          6           0       -7.873965    1.023013    1.786751
     43          6           0       -5.858987    0.210282   -1.081322
     44          6           0       -4.548233    0.127022   -0.611381
     45          6           0       -1.117355   -0.599465   -1.820287
     46          6           0        0.209437   -0.705407   -1.417132
     47          6           0        0.581184   -0.091575   -0.218214
     48          6           0        4.167862    0.159978   -0.293291
     49          6           0        9.221986   -1.867640    0.001330
     50          6           0        9.567437   -2.917027    0.853667
     51          1           0        9.143706   -3.920151    2.716537
     52          1           0        7.295588   -2.367480    3.321602
     53          1           0        6.684377   -0.513161    1.807948
     54          1           0        9.905208    0.790657   -0.584197
     55          1           0        9.529808    2.773025   -2.014328
     56          1           0        7.218353    3.305627   -2.800233
     57          1           0        5.348593    1.809218   -2.191361
     58          1           0        6.294648   -2.252429   -1.388186
     59          1           0        4.280648   -3.638280   -1.016665
     60          1           0        2.190977   -2.607310   -0.141845
     61          1           0        3.690110    0.723738    2.437903
     62          1           0        2.990719    2.101897    4.377563
     63          1           0        0.650370    2.879410    4.610113
     64          1           0       -1.052258    2.275012    2.905196
     65          1           0       -2.404976    1.303420    0.699133
     66          1           0       -2.965113    0.400910   -3.618669
     67          1           0       -5.288432    0.544475   -4.435472
     68          1           0       -8.074842    0.661152   -4.677228
     69          1           0      -10.524474    0.700989   -4.268724
     70          1           0      -11.418001    0.478556   -1.969180
     71          1           0       -9.894689    0.229507   -0.027353
     72          1           0       -6.105074   -1.807191    1.119660
     73          1           0       -6.295464   -2.029018    3.585829
     74          1           0       -7.527737   -0.313272    4.899857
     75          1           0       -8.540002    1.638234    3.735372
     76          1           0       -8.293360    1.884240    1.276002
     77          1           0       -4.343037   -0.004379    0.445393
     78          1           0       -1.425753   -1.096709   -2.735159
     79          1           0        0.928062   -1.253801   -2.017124
     80          1           0        4.120110    1.226930   -0.098955
     81          1           0        9.758594   -1.731810   -0.934128
     82          1           0       10.376618   -3.589060    0.579753
 ---------------------------------------------------------------------

 SCF Done:  E(RB3LYP) =  -1957.95900678     A.U. after   15 cycles

 Excitation energies and oscillator strengths:

 Excited state symmetry could not be determined.
 Excited State   1:      Triplet-?Sym    2.8847 eV  429.81 nm  f=0.0000  <S**2>=2.000
     164 ->169         0.20614
     165 ->169         0.13105
     165 ->170        -0.18809
     166 ->178         0.11463
     167 ->169         0.53759
 This state for optimization and/or second-order correction.
 Total Energy, E(TD-HF/TD-DFT) =  -1957.85299755
 Copying the excited state density for this state as the 1-particle RhoCI density.

 Excited state symmetry could not be determined.
 Excited State   2:      Triplet-?Sym    3.1842 eV  389.37 nm  f=0.0000  <S**2>=2.000
     164 ->170        -0.38842
     165 ->169         0.15106
     165 ->170         0.22922
     167 ->169         0.16438
     167 ->170         0.37364
     167 ->177         0.12979

 Excited state symmetry could not be determined.
 Excited State   3:      Singlet-?Sym    3.6888 eV  336.11 nm  f=0.0573  <S**2>=0.000
     167 ->168         0.68321

 Excited state symmetry could not be determined.
 Excited State   4:      Singlet-?Sym    3.7898 eV  327.15 nm  f=0.3375  <S**2>=0.000
     167 ->169         0.58525
     167 ->170         0.33468

 Alpha  occ. eigenvalues --  -14.38100 -14.37827 -10.23829 -10.23737 -10.22256
 Alpha  occ. eigenvalues --  -10.22206 -10.22037 -10.22010 -10.20806 -10.20575
 Alpha  occ. eigenvalues --  -10.20481 -10.20091 -10.19952 -10.19926 -10.19877
 Alpha  occ. eigenvalues --  -10.19842 -10.19813 -10.19812 -10.19776 -10.19706
 Alpha  occ. eigenvalues --  -10.19477 -10.19398 -10.19360 -10.19313 -10.19272
 Alpha  occ. eigenvalues --  -10.19225 -10.19213 -10.19158 -10.19123 -10.19106
 Alpha  occ. eigenvalues --  -10.19043 -10.18838 -10.18682 -10.18676 -10.18653
 Alpha  occ. eigenvalues --  -10.18610 -10.18584 -10.18569 -10.18483 -10.18463
 Alpha  occ. eigenvalues --  -10.18461 -10.18450 -10.18447 -10.18385 -10.18367
 Alpha  occ. eigenvalues --  -10.18277 -10.18187 -10.17986 -10.17790 -10.17645
 Alpha  occ. eigenvalues --   -0.98800  -0.98562  -0.87907  -0.86825  -0.86475
 Alpha  occ. eigenvalues --   -0.85236  -0.84735  -0.83865  -0.83704  -0.83253
 Alpha  occ. eigenvalues --   -0.79345  -0.78334  -0.77649  -0.77388  -0.75731
 Alpha  occ. eigenvalues --   -0.75563  -0.75112  -0.74530  -0.74470  -0.74328
 Alpha  occ. eigenvalues --   -0.73161  -0.72438  -0.71859  -0.71347  -0.70932
 Alpha  occ. eigenvalues --   -0.69654  -0.65165  -0.63826  -0.63581  -0.62503
 Alpha  occ. eigenvalues --   -0.62046  -0.61838  -0.61377  -0.60606  -0.59733
 Alpha  occ. eigenvalues --   -0.59392  -0.58818  -0.58372  -0.57678  -0.56900
 Alpha  occ. eigenvalues --   -0.56692  -0.56145  -0.53799  -0.53424  -0.51978
 Alpha  occ. eigenvalues --   -0.51635  -0.51353  -0.50820  -0.49794  -0.49551
 Alpha  occ. eigenvalues --   -0.48852  -0.47930  -0.47560  -0.46950  -0.46659
 Alpha  occ. eigenvalues --   -0.46174  -0.46036  -0.45345  -0.44976  -0.44806
 Alpha  occ. eigenvalues --   -0.44574  -0.44088  -0.43628  -0.43484  -0.43057
 Alpha  occ. eigenvalues --   -0.42952  -0.42831  -0.42717  -0.42534  -0.42353
 Alpha  occ. eigenvalues --   -0.42060  -0.42024  -0.41960  -0.41542  -0.41337
 Alpha  occ. eigenvalues --   -0.41100  -0.40887  -0.38617  -0.38063  -0.37521
 Alpha  occ. eigenvalues --   -0.37319  -0.37246  -0.37139  -0.36900  -0.36294
 Alpha  occ. eigenvalues --   -0.36196  -0.35857  -0.35731  -0.35520  -0.35388
 Alpha  occ. eigenvalues --   -0.35243  -0.34745  -0.34398  -0.33938  -0.33694
 Alpha  occ. eigenvalues --   -0.33591  -0.33549  -0.33114  -0.32742  -0.32208
 Alpha  occ. eigenvalues --   -0.31586  -0.28267  -0.27384  -0.27255  -0.26957
 Alpha  occ. eigenvalues --   -0.25947  -0.25881  -0.25781  -0.25054  -0.24762
 Alpha  occ. eigenvalues --   -0.24636  -0.24184  -0.22475  -0.21561  -0.20664
 Alpha  occ. eigenvalues --   -0.19444  -0.18668
 Alpha virt. eigenvalues --   -0.03494  -0.03018  -0.02456  -0.01933  -0.01420
 Alpha virt. eigenvalues --   -0.01367  -0.01005   0.00019   0.00844   0.00864
 Alpha virt. eigenvalues --    0.01127   0.02116   0.02882   0.03904   0.04367

 Mulliken charges:
               1
     1  C   -0.126500
     2  C   -0.134881
     3  C   -0.152019
     4  C    0.055419
     5  C    0.041305
     6  C   -0.177491
     7  C   -0.127476
     8  C   -0.129235
     9  C   -0.176824
    10  C    0.041018
    11  C    0.052761
    12  C   -0.144287
    13  C   -0.147214
    14  C   -0.151823
    15  C    0.270488
    16  N   -0.740681
    17  C    0.311092
    18  C   -0.176428
    19  C   -0.142372
    20  C   -0.145240
    21  C   -0.197076
    22  C    0.057664
    23  C    0.065062
    24  C   -0.258068
    25  C    0.078593
    26  C    0.089950
    27  C   -0.198164
    28  C   -0.203146
    29  C    0.066409
    30  C    0.057641
    31  C   -0.197673
    32  C   -0.145187
    33  C   -0.141999
    34  C   -0.178022
    35  C    0.314539
    36  N   -0.740304
    37  C    0.262908
    38  C   -0.148217
    39  C   -0.142843
    40  C   -0.121520
    41  C   -0.143155
    42  C   -0.148768
    43  C    0.318842
    44  C   -0.238594
    45  C   -0.193835
    46  C   -0.179256
    47  C    0.317615
    48  C   -0.203893
    49  C   -0.169874
    50  C   -0.134315
    51  H    0.130420
    52  H    0.132464
    53  H    0.137856
    54  H    0.137849
    55  H    0.133164
    56  H    0.134126
    57  H    0.139987
    58  H    0.144522
    59  H    0.139084
    60  H    0.150925
    61  H    0.139695
    62  H    0.126345
    63  H    0.123739
    64  H    0.131124
    65  H    0.135210
    66  H    0.125746
    67  H    0.129435
    68  H    0.128750
    69  H    0.122835
    70  H    0.125424
    71  H    0.138552
    72  H    0.153886
    73  H    0.139049
    74  H    0.134720
    75  H    0.137709
    76  H    0.152040
    77  H    0.141284
    78  H    0.131067
    79  H    0.140432
    80  H    0.153830
    81  H    0.132944
    82  H    0.130862
 Sum of Mulliken charges =  -0.00000

 Dipole moment (field-independent basis, Debye):
    X=              1.9645    Y=             -0.9189    Z=              1.2485  Tot=              2.5025
 Quadrupole moment (field-independent basis, Debye-Ang):
   XX=           -251.8628   YY=           -275.9688   ZZ=           -266.6863
   XY=             -7.6637   XZ=            -16.6818   YZ=             -1.0031

 Normal termination of Gaussian 16 at Sat Nov  5 11:41:15 2022.
