 Gaussian 16, Revision B.01,
 Gaussian 16:  ES64L-G16RevB.01 20-Dec-2017

 -------------------------------------------------------------------
 #p b3lyp/6-31g(d) 6D 10F nosymm GFInput td=(50-50,nstate=2) SCF=XQC
 -------------------------------------------------------------------

 ------------------------------
 Gaussian input prepared by ASE
 ------------------------------
 Symbolic Z-matrix:
 Charge =  0 Multiplicity = 1

                          Input orientation:
 ---------------------------------------------------------------------
 Center     Atomic      Atomic             Coordinates (Angstroms)
 Number     Number       Type             X           Y           Z
 ---------------------------------------------------------------------
      1          6           0       -1.176595    4.777197    3.858240
      2          6           0        0.115593    4.277130    3.695791
      3          6           0        0.438997    3.510753    2.575394
      4          6           0       -0.521685    3.204513    1.601063
      5          6           0       -1.785341    3.824255    1.723100
      6          6           0       -2.120689    4.573329    2.854549
      7         16           0       -2.932384    3.773822    0.356950
      8          6           0       -1.733687    3.923592   -0.953286
      9          6           0       -2.103794    4.693666   -2.083155
     10          6           0       -1.159838    5.021331   -3.020137
     11          6           0        0.208801    4.720389   -2.788937
     12          6           0        1.211569    5.238253   -3.650754
     13          6           0        2.547816    5.084710   -3.363546
     14          6           0        2.927559    4.417131   -2.178432
     15          6           0        1.979839    3.863708   -1.344494
     16          6           0        0.586882    3.949621   -1.633373
     17          6           0       -0.453193    3.389552   -0.803260
     18          6           0       -0.291621    2.345634    0.339528
     19          6           0        0.968505    1.440831    0.311256
     20          6           0        1.486495    0.851245    1.475369
     21          6           0        2.510388   -0.094803    1.429415
     22          6           0        3.049560   -0.495834    0.204715
     23          7           0        4.104038   -1.443552    0.153884
     24          6           0        5.332023   -1.337456    0.818650
     25          6           0        5.812393   -0.313434    1.639675
     26          6           0        7.096073   -0.450166    2.164024
     27          6           0        7.888971   -1.574605    1.877282
     28          6           0        7.410045   -2.584994    1.048460
     29          6           0        6.123950   -2.472181    0.507650
     30          6           0        5.338338   -3.301642   -0.382047
     31          6           0        5.566952   -4.533367   -1.006526
     32          6           0        4.569183   -5.084720   -1.804873
     33          6           0        3.343100   -4.419562   -1.977231
     34          6           0        3.089814   -3.192471   -1.367871
     35          6           0        4.101211   -2.636968   -0.579216
     36          6           0        2.515520    0.045166   -0.970957
     37          6           0        1.484355    0.976705   -0.912042
     38          6           0       -1.398867    1.236297    0.229603
     39          6           0       -1.884280    0.601078    1.379050
     40          6           0       -2.771539   -0.469189    1.294781
     41          6           0       -3.202691   -0.930701    0.046545
     42          7           0       -4.120277   -2.011337   -0.045023
     43          6           0       -3.915506   -3.203572   -0.748241
     44          6           0       -2.797400   -3.625447   -1.473143
     45          6           0       -2.847682   -4.884074   -2.068405
     46          6           0       -3.978919   -5.709186   -1.944333
     47          6           0       -5.084256   -5.288747   -1.210430
     48          6           0       -5.060112   -4.028641   -0.601270
     49          6           0       -5.998539   -3.300108    0.226482
     50          6           0       -7.285147   -3.577767    0.703152
     51          6           0       -7.939971   -2.627969    1.481727
     52          6           0       -7.322868   -1.401035    1.781612
     53          6           0       -6.043103   -1.099273    1.320973
     54          6           0       -5.385627   -2.062600    0.550648
     55          6           0       -2.714385   -0.312470   -1.110329
     56          6           0       -1.813197    0.744472   -1.014718
     57          1           0       -1.434911    5.365271    4.734276
     58          1           0        0.879216    4.481643    4.440962
     59          1           0        1.453640    3.147627    2.466961
     60          1           0       -3.102495    5.033360    2.920765
     61          1           0       -3.130244    5.035206   -2.180444
     62          1           0       -1.432765    5.593947   -3.902778
     63          1           0        0.896314    5.793189   -4.531224
     64          1           0        3.304928    5.499818   -4.022818
     65          1           0        3.978760    4.345132   -1.912734
     66          1           0        2.306382    3.382824   -0.433088
     67          1           0        1.064160    1.088094    2.443625
     68          1           0        2.875476   -0.542124    2.348641
     69          1           0        5.209921    0.561776    1.859171
     70          1           0        7.490446    0.332539    2.806527
     71          1           0        8.884935   -1.652001    2.303961
     72          1           0        8.027762   -3.449561    0.819564
     73          1           0        6.510483   -5.054029   -0.864718
     74          1           0        4.735286   -6.039579   -2.295393
     75          1           0        2.572139   -4.871213   -2.595655
     76          1           0        2.136004   -2.691622   -1.496132
     77          1           0        2.915348   -0.260156   -1.932760
     78          1           0        1.086954    1.357889   -1.844592
     79          1           0       -1.571056    0.944004    2.360078
     80          1           0       -3.126999   -0.956318    2.197575
     81          1           0       -1.917162   -2.997685   -1.564619
     82          1           0       -1.990755   -5.234019   -2.637817
     83          1           0       -3.986704   -6.684643   -2.422357
     84          1           0       -5.954492   -5.931860   -1.107141
     85          1           0       -7.767398   -4.522092    0.463837
     86          1           0       -8.938144   -2.832838    1.858294
     87          1           0       -7.854055   -0.668392    2.383358
     88          1           0       -5.576738   -0.146169    1.547652
     89          1           0       -3.052515   -0.655122   -2.083470
     90          1           0       -1.456497    1.210591   -1.927382
 ---------------------------------------------------------------------

 SCF Done:  E(RB3LYP) =  -2547.84418582     A.U. after   16 cycles

 Excitation energies and oscillator strengths:

 Excited state symmetry could not be determined.
 Excited State   1:      Triplet-?Sym    2.5397 eV  488.17 nm  f=0.0000  <S**2>=2.000
     186 ->192        -0.32210
     187 ->192         0.55955
     187 ->193         0.12251
 This state for optimization and/or second-order correction.
 Total Energy, E(TD-HF/TD-DFT) =  -2547.75085175
 Copying the excited state density for this state as the 1-particle RhoCI density.

 Excited state symmetry could not be determined.
 Excited State   2:      Triplet-?Sym    3.0810 eV  402.41 nm  f=0.0000  <S**2>=2.000
     185 ->192         0.11238
     185 ->193        -0.22307
     186 ->192        -0.12462
     190 ->193         0.14940
     191 ->192         0.39268
     191 ->193        -0.35357

 Excited state symmetry could not be determined.
 Excited State   3:      Singlet-?Sym    3.3640 eV  368.56 nm  f=0.0544  <S**2>=0.000
     191 ->192         0.69661

 Excited state symmetry could not be determined.
 Excited State   4:      Singlet-?Sym    3.5470 eV  349.54 nm  f=0.0143  <S**2>=0.000
     190 ->192         0.69895

 Alpha  occ. eigenvalues --  -88.89784 -14.38267 -14.37761 -10.24278 -10.24034
 Alpha  occ. eigenvalues --  -10.23379 -10.23062 -10.23045 -10.22409 -10.22361
 Alpha  occ. eigenvalues --  -10.21963 -10.21944 -10.21813 -10.21761 -10.21601
 Alpha  occ. eigenvalues --  -10.21235 -10.20893 -10.20534 -10.20446 -10.20283
 Alpha  occ. eigenvalues --  -10.20236 -10.20168 -10.20153 -10.20138 -10.20087
 Alpha  occ. eigenvalues --  -10.20014 -10.19986 -10.19973 -10.19665 -10.19652
 Alpha  occ. eigenvalues --  -10.19608 -10.19524 -10.19460 -10.19430 -10.19427
 Alpha  occ. eigenvalues --  -10.19318 -10.18846 -10.18799 -10.18754 -10.18754
 Alpha  occ. eigenvalues --  -10.18745 -10.18724 -10.18678 -10.18660 -10.18419
 Alpha  occ. eigenvalues --  -10.18415 -10.18406 -10.18369 -10.18345 -10.18329
 Alpha  occ. eigenvalues --  -10.18307 -10.18292 -10.18136 -10.18073 -10.17753
 Alpha  occ. eigenvalues --  -10.17737  -7.95822  -5.92310  -5.91948  -5.91359
 Alpha  occ. eigenvalues --   -0.98956  -0.98486  -0.90445  -0.87634  -0.87234
 Alpha  occ. eigenvalues --   -0.86672  -0.84697  -0.84218  -0.84056  -0.83824
 Alpha  occ. eigenvalues --   -0.83489  -0.81351  -0.79754  -0.78184  -0.77942
 Alpha  occ. eigenvalues --   -0.77133  -0.76044  -0.75524  -0.75424  -0.75125
 Alpha  occ. eigenvalues --   -0.74953  -0.74630  -0.74250  -0.73141  -0.72517
 Alpha  occ. eigenvalues --   -0.71416  -0.71097  -0.71030  -0.70508  -0.67343
 Alpha  occ. eigenvalues --   -0.64597  -0.63813  -0.63388  -0.62850  -0.62144
 Alpha  occ. eigenvalues --   -0.61853  -0.61082  -0.60896  -0.60278  -0.59968
 Alpha  occ. eigenvalues --   -0.59490  -0.59174  -0.58198  -0.57453  -0.57295
 Alpha  occ. eigenvalues --   -0.56907  -0.56634  -0.53810  -0.53299  -0.52362
 Alpha  occ. eigenvalues --   -0.52083  -0.51428  -0.51306  -0.51005  -0.50449
 Alpha  occ. eigenvalues --   -0.50121  -0.49216  -0.48430  -0.48166  -0.47036
 Alpha  occ. eigenvalues --   -0.46864  -0.46376  -0.46143  -0.45663  -0.45457
 Alpha  occ. eigenvalues --   -0.45227  -0.44987  -0.44821  -0.44446  -0.44128
 Alpha  occ. eigenvalues --   -0.43699  -0.43497  -0.43298  -0.43104  -0.43000
 Alpha  occ. eigenvalues --   -0.42860  -0.42609  -0.42395  -0.42292  -0.41856
 Alpha  occ. eigenvalues --   -0.41526  -0.41484  -0.41377  -0.41257  -0.41065
 Alpha  occ. eigenvalues --   -0.40666  -0.40384  -0.39772  -0.39036  -0.38382
 Alpha  occ. eigenvalues --   -0.37619  -0.37302  -0.36872  -0.36570  -0.36403
 Alpha  occ. eigenvalues --   -0.36163  -0.36025  -0.35902  -0.35433  -0.35205
 Alpha  occ. eigenvalues --   -0.35124  -0.35006  -0.34736  -0.34683  -0.34440
 Alpha  occ. eigenvalues --   -0.33825  -0.33449  -0.33369  -0.33048  -0.32948
 Alpha  occ. eigenvalues --   -0.32405  -0.32294  -0.31662  -0.29798  -0.28458
 Alpha  occ. eigenvalues --   -0.27759  -0.27373  -0.26894  -0.26294  -0.25845
 Alpha  occ. eigenvalues --   -0.25467  -0.25142  -0.24962  -0.24575  -0.23977
 Alpha  occ. eigenvalues --   -0.22052  -0.21216  -0.21149  -0.20766  -0.19756
 Alpha  occ. eigenvalues --   -0.19156
 Alpha virt. eigenvalues --   -0.05310  -0.03314  -0.02561  -0.02477  -0.02183
 Alpha virt. eigenvalues --   -0.01995  -0.01591  -0.01336   0.00008   0.00370
 Alpha virt. eigenvalues --    0.00796   0.01179   0.01954   0.02998   0.03359

 Mulliken charges:
               1
     1  C   -0.118341
     2  C   -0.140680
     3  C   -0.194226
     4  C    0.146815
     5  C   -0.123580
     6  C   -0.161140
     7  S    0.179727
     8  C   -0.137971
     9  C   -0.158515
    10  C   -0.176716
    11  C    0.125300
    12  C   -0.193701
    13  C   -0.132711
    14  C   -0.138778
    15  C   -0.188236
    16  C    0.067545
    17  C    0.051373
    18  C   -0.222826
    19  C    0.135890
    20  C   -0.205108
    21  C   -0.159391
    22  C    0.274148
    23  N   -0.737303
    24  C    0.312064
    25  C   -0.175380
    26  C   -0.142061
    27  C   -0.144759
    28  C   -0.197129
    29  C    0.059927
    30  C    0.059325
    31  C   -0.197014
    32  C   -0.144386
    33  C   -0.141403
    34  C   -0.175633
    35  C    0.312338
    36  C   -0.157421
    37  C   -0.177676
    38  C    0.160586
    39  C   -0.176689
    40  C   -0.153794
    41  C    0.269447
    42  N   -0.734643
    43  C    0.312359
    44  C   -0.175732
    45  C   -0.141631
    46  C   -0.144907
    47  C   -0.197475
    48  C    0.059335
    49  C    0.059620
    50  C   -0.197562
    51  C   -0.144962
    52  C   -0.142398
    53  C   -0.177167
    54  C    0.311586
    55  C   -0.155648
    56  C   -0.175224
    57  H    0.137129
    58  H    0.136036
    59  H    0.147947
    60  H    0.148374
    61  H    0.148963
    62  H    0.136164
    63  H    0.132405
    64  H    0.133260
    65  H    0.134589
    66  H    0.149153
    67  H    0.150388
    68  H    0.153323
    69  H    0.134782
    70  H    0.125671
    71  H    0.124122
    72  H    0.130177
    73  H    0.129881
    74  H    0.124481
    75  H    0.126594
    76  H    0.140333
    77  H    0.154462
    78  H    0.151628
    79  H    0.140665
    80  H    0.150699
    81  H    0.137842
    82  H    0.124130
    83  H    0.122653
    84  H    0.128665
    85  H    0.128506
    86  H    0.122415
    87  H    0.125083
    88  H    0.141654
    89  H    0.150337
    90  H    0.140020
 Sum of Mulliken charges =  -0.00000

 Dipole moment (field-independent basis, Debye):
    X=              1.1026    Y=              3.0917    Z=              0.2245  Tot=              3.2901
 Quadrupole moment (field-independent basis, Debye-Ang):
   XX=           -323.6167   YY=           -313.9052   ZZ=           -305.3884
   XY=             -1.3653   XZ=             -0.7045   YZ=              5.7774

 Normal termination of Gaussian 16 at Sat Nov  5 11:24:41 2022.
