 Gaussian 16, Revision B.01,
 Gaussian 16:  ES64L-G16RevB.01 20-Dec-2017

 -------------------------------------------------------------------
 #p b3lyp/6-31g(d) 6D 10F nosymm GFInput td=(50-50,nstate=2) SCF=XQC
 -------------------------------------------------------------------

 ------------------------------
 Gaussian input prepared by ASE
 ------------------------------
 Symbolic Z-matrix:
 Charge =  0 Multiplicity = 1

                          Input orientation:
 ---------------------------------------------------------------------
 Center     Atomic      Atomic             Coordinates (Angstroms)
 Number     Number       Type             X           Y           Z
 ---------------------------------------------------------------------
      1          6           0       12.445745    2.054584   -0.559613
      2          6           0       11.098560    1.578214   -0.074922
      3          6           0       10.945610    1.088232    1.206689
      4          6           0        9.681174    0.637438    1.662980
      5          6           0        9.489343    0.105748    3.039401
      6          6           0       10.399358    0.366720    4.076821
      7          6           0       10.192166   -0.150769    5.354991
      8          6           0        9.072234   -0.940056    5.619913
      9          6           0        8.155948   -1.200291    4.597453
     10          6           0        8.359039   -0.680590    3.322106
     11          7           0        8.610804    0.650944    0.874057
     12          6           0        8.725940    1.116666   -0.384489
     13          6           0        9.951715    1.607851   -0.920251
     14          6           0        9.995167    2.096860   -2.267494
     15          6           0        8.881213    2.101918   -3.054046
     16          6           0        7.631106    1.615396   -2.558871
     17          6           0        6.450854    1.611605   -3.334717
     18          6           0        5.277960    1.131379   -2.799208
     19          6           0        5.278924    0.636294   -1.467944
     20          6           0        4.046231    0.101738   -0.826532
     21          6           0        3.987889    0.000068    0.573595
     22          6           0        2.838099   -0.479510    1.193380
     23          6           0        1.735195   -0.873038    0.435358
     24          6           0        1.770505   -0.795026   -0.965663
     25          6           0        0.607570   -1.225710   -1.785281
     26          6           0        0.787883   -1.934663   -2.984209
     27          6           0       -0.309209   -2.319101   -3.754365
     28          6           0       -1.603175   -2.009608   -3.344882
     29          6           0       -1.813751   -1.313492   -2.144467
     30          6           0       -3.199186   -0.989866   -1.713742
     31          6           0       -3.522560   -0.712418   -0.379633
     32          6           0       -4.855279   -0.410930   -0.078787
     33          6           0       -5.305352   -0.088124    1.300972
     34          6           0       -4.416995    0.394850    2.274143
     35          6           0       -4.873440    0.683813    3.558392
     36          6           0       -6.215532    0.498979    3.887552
     37          6           0       -7.127113    0.024755    2.929532
     38          6           0       -8.551576   -0.207640    3.297571
     39          6           0       -8.847517   -0.977605    4.411289
     40          6           0      -10.177172   -1.257915    4.801779
     41          6           0      -11.229766   -0.764030    4.067974
     42          6           0      -10.980352    0.044257    2.930766
     43          6           0      -12.041242    0.594209    2.158334
     44          7           0      -11.881354    1.374021    1.110626
     45          6           0      -10.600946    1.674470    0.759367
     46          6           0       -9.486274    1.202317    1.414521
     47          6           0       -9.638002    0.341608    2.535094
     48          6           0       -6.653571   -0.263868    1.642961
     49          7           0       -5.795494   -0.418963   -1.037369
     50          6           0       -5.408788   -0.718260   -2.287238
     51          6           0       -6.456932   -0.733562   -3.341851
     52          6           0       -7.797638   -0.470702   -3.018740
     53          6           0       -8.778399   -0.489307   -4.007817
     54          6           0       -8.435414   -0.768197   -5.332867
     55          6           0       -7.103120   -1.027491   -5.663021
     56          6           0       -6.120180   -1.010519   -4.676191
     57          7           0       -4.149998   -0.995034   -2.662030
     58          6           0       -0.702084   -0.926382   -1.382801
     59          6           0        2.934009   -0.304446   -1.576978
     60          7           0        6.379700    0.643747   -0.720133
     61          6           0        7.533653    1.117303   -1.229042
     62          1           0       12.417773    3.111964   -0.850388
     63          1           0       12.782537    1.488047   -1.436346
     64          1           0       13.202328    1.942920    0.222113
     65          1           0       11.811805    1.029007    1.857484
     66          1           0       11.264839    0.998340    3.900231
     67          1           0       10.904676    0.069018    6.145748
     68          1           0        8.912503   -1.345568    6.615527
     69          1           0        7.279929   -1.812702    4.795189
     70          1           0        7.652168   -0.869685    2.521622
     71          1           0       10.934002    2.469637   -2.664191
     72          1           0        8.927178    2.477978   -4.073376
     73          1           0        6.478014    2.000706   -4.350037
     74          1           0        4.363615    1.155137   -3.381528
     75          1           0        4.855151    0.301582    1.150280
     76          1           0        2.801678   -0.555838    2.276957
     77          1           0        0.853340   -1.273114    0.928168
     78          1           0        1.791813   -2.203294   -3.300839
     79          1           0       -0.152725   -2.873485   -4.675851
     80          1           0       -2.462178   -2.302814   -3.937429
     81          1           0       -2.775154   -0.775017    0.400642
     82          1           0       -3.375704    0.574226    2.024439
     83          1           0       -4.182632    1.069952    4.302856
     84          1           0       -6.569107    0.741898    4.885770
     85          1           0       -8.028938   -1.402166    4.986259
     86          1           0      -10.356563   -1.876649    5.676509
     87          1           0      -12.257986   -0.979878    4.347925
     88          1           0      -13.068608    0.364405    2.445841
     89          1           0      -10.494052    2.335847   -0.097679
     90          1           0       -8.499167    1.497590    1.077715
     91          1           0       -7.327968   -0.651738    0.888345
     92          1           0       -8.056197   -0.251168   -1.989141
     93          1           0       -9.812696   -0.285236   -3.743893
     94          1           0       -9.201604   -0.781862   -6.103705
     95          1           0       -6.829015   -1.242473   -6.692560
     96          1           0       -5.083158   -1.206538   -4.923684
     97          1           0       -0.844448   -0.336081   -0.482985
     98          1           0        2.958374   -0.241820   -2.660294
 ---------------------------------------------------------------------

 SCF Done:  E(RB3LYP) =  -2430.10448675     A.U. after   14 cycles

 Excitation energies and oscillator strengths:

 Excited state symmetry could not be determined.
 Excited State   1:      Triplet-?Sym    2.4922 eV  497.49 nm  f=0.0000  <S**2>=2.000
     189 ->205         0.10485
     190 ->209         0.12654
     202 ->210         0.13666
     204 ->205         0.61211
     204 ->206        -0.13073
 This state for optimization and/or second-order correction.
 Total Energy, E(TD-HF/TD-DFT) =  -2430.01290031
 Copying the excited state density for this state as the 1-particle RhoCI density.

 Excited state symmetry could not be determined.
 Excited State   2:      Triplet-?Sym    2.6517 eV  467.56 nm  f=0.0000  <S**2>=2.000
     203 ->206         0.13686
     203 ->207        -0.46817
     203 ->208         0.43014

 Excited state symmetry could not be determined.
 Excited State   3:      Singlet-?Sym    3.5470 eV  349.55 nm  f=0.5349  <S**2>=0.000
     204 ->205         0.67621
     204 ->206        -0.13896

 Excited state symmetry could not be determined.
 Excited State   4:      Singlet-?Sym    3.7288 eV  332.50 nm  f=0.0092  <S**2>=0.000
     200 ->205        -0.12120
     202 ->205        -0.10331
     202 ->206        -0.12637
     204 ->205         0.11461
     204 ->206         0.58912
     204 ->209        -0.25990

 Alpha  occ. eigenvalues --  -14.33112 -14.33080 -14.32615 -14.32420 -14.32034
 Alpha  occ. eigenvalues --  -10.26111 -10.24763 -10.24725 -10.23440 -10.23092
 Alpha  occ. eigenvalues --  -10.22806 -10.22688 -10.22308 -10.21695 -10.21498
 Alpha  occ. eigenvalues --  -10.21283 -10.21045 -10.21013 -10.20894 -10.20811
 Alpha  occ. eigenvalues --  -10.20723 -10.20564 -10.20558 -10.20487 -10.20439
 Alpha  occ. eigenvalues --  -10.20270 -10.20230 -10.20207 -10.20186 -10.20186
 Alpha  occ. eigenvalues --  -10.20177 -10.20124 -10.20119 -10.20102 -10.20062
 Alpha  occ. eigenvalues --  -10.20032 -10.19873 -10.19835 -10.19709 -10.19689
 Alpha  occ. eigenvalues --  -10.19633 -10.19559 -10.19537 -10.19411 -10.19358
 Alpha  occ. eigenvalues --  -10.19292 -10.19270 -10.19264 -10.19182 -10.19033
 Alpha  occ. eigenvalues --  -10.18981 -10.18870 -10.18825 -10.18805 -10.18563
 Alpha  occ. eigenvalues --  -10.18526 -10.18489 -10.18473 -10.18342 -10.18315
 Alpha  occ. eigenvalues --  -10.18105  -0.98522  -0.95483  -0.93690  -0.93387
 Alpha  occ. eigenvalues --   -0.89733  -0.87647  -0.87088  -0.85871  -0.85568
 Alpha  occ. eigenvalues --   -0.85037  -0.84802  -0.84475  -0.82110  -0.81115
 Alpha  occ. eigenvalues --   -0.80595  -0.79421  -0.78293  -0.77940  -0.76945
 Alpha  occ. eigenvalues --   -0.76507  -0.76121  -0.75426  -0.75229  -0.74117
 Alpha  occ. eigenvalues --   -0.73847  -0.73743  -0.73326  -0.72725  -0.72269
 Alpha  occ. eigenvalues --   -0.72065  -0.71367  -0.66607  -0.66365  -0.65552
 Alpha  occ. eigenvalues --   -0.65063  -0.64669  -0.63721  -0.63257  -0.62755
 Alpha  occ. eigenvalues --   -0.62122  -0.61841  -0.60763  -0.60324  -0.59732
 Alpha  occ. eigenvalues --   -0.59319  -0.59040  -0.58318  -0.57546  -0.57173
 Alpha  occ. eigenvalues --   -0.56607  -0.55139  -0.54154  -0.52922  -0.52527
 Alpha  occ. eigenvalues --   -0.52010  -0.51856  -0.51540  -0.51282  -0.50810
 Alpha  occ. eigenvalues --   -0.50393  -0.49653  -0.49386  -0.48767  -0.48203
 Alpha  occ. eigenvalues --   -0.47860  -0.47312  -0.46763  -0.46327  -0.45985
 Alpha  occ. eigenvalues --   -0.45693  -0.45294  -0.45037  -0.44832  -0.44452
 Alpha  occ. eigenvalues --   -0.44211  -0.44046  -0.43753  -0.43680  -0.43462
 Alpha  occ. eigenvalues --   -0.43378  -0.43088  -0.42941  -0.42597  -0.42243
 Alpha  occ. eigenvalues --   -0.42004  -0.41953  -0.41818  -0.41748  -0.41444
 Alpha  occ. eigenvalues --   -0.41162  -0.41023  -0.40847  -0.40570  -0.40522
 Alpha  occ. eigenvalues --   -0.39802  -0.39543  -0.39401  -0.38961  -0.38256
 Alpha  occ. eigenvalues --   -0.37845  -0.37554  -0.37027  -0.36904  -0.36555
 Alpha  occ. eigenvalues --   -0.36424  -0.36106  -0.35965  -0.35692  -0.35559
 Alpha  occ. eigenvalues --   -0.35413  -0.34779  -0.34504  -0.34279  -0.33999
 Alpha  occ. eigenvalues --   -0.33787  -0.33767  -0.33713  -0.33555  -0.33466
 Alpha  occ. eigenvalues --   -0.32163  -0.30544  -0.30119  -0.29828  -0.29542
 Alpha  occ. eigenvalues --   -0.29299  -0.27229  -0.26753  -0.25844  -0.25783
 Alpha  occ. eigenvalues --   -0.25734  -0.25666  -0.25254  -0.25082  -0.25009
 Alpha  occ. eigenvalues --   -0.24689  -0.24656  -0.24412  -0.24076  -0.23257
 Alpha  occ. eigenvalues --   -0.22971  -0.22571  -0.22043  -0.21155
 Alpha virt. eigenvalues --   -0.06500  -0.06384  -0.05559  -0.05079  -0.04931
 Alpha virt. eigenvalues --   -0.03431  -0.02551  -0.02268  -0.01455  -0.01324
 Alpha virt. eigenvalues --   -0.00099   0.00539   0.00649   0.01607   0.02659

 Mulliken charges:
               1
     1  C   -0.539873
     2  C    0.163344
     3  C   -0.244530
     4  C    0.268360
     5  C    0.091073
     6  C   -0.178132
     7  C   -0.138683
     8  C   -0.122105
     9  C   -0.136043
    10  C   -0.162699
    11  N   -0.571294
    12  C    0.219300
    13  C    0.102626
    14  C   -0.199903
    15  C   -0.195536
    16  C    0.165113
    17  C   -0.165767
    18  C   -0.171143
    19  C    0.256958
    20  C    0.094784
    21  C   -0.162169
    22  C   -0.138477
    23  C   -0.169694
    24  C    0.087040
    25  C    0.082688
    26  C   -0.167744
    27  C   -0.140083
    28  C   -0.155027
    29  C    0.094227
    30  C    0.277651
    31  C   -0.220239
    32  C    0.277068
    33  C    0.095255
    34  C   -0.170857
    35  C   -0.141795
    36  C   -0.158087
    37  C    0.064483
    38  C    0.033894
    39  C   -0.179668
    40  C   -0.135810
    41  C   -0.185650
    42  C    0.103285
    43  C   -0.007294
    44  N   -0.415225
    45  C    0.021383
    46  C   -0.206244
    47  C    0.109945
    48  C   -0.212672
    49  N   -0.554953
    50  C    0.444249
    51  C    0.075450
    52  C   -0.164181
    53  C   -0.140019
    54  C   -0.118806
    55  C   -0.138970
    56  C   -0.161610
    57  N   -0.554924
    58  C   -0.229638
    59  C   -0.235853
    60  N   -0.568214
    61  C    0.218963
    62  H    0.170472
    63  H    0.170707
    64  H    0.163221
    65  H    0.134005
    66  H    0.127174
    67  H    0.128372
    68  H    0.128796
    69  H    0.130155
    70  H    0.172010
    71  H    0.132842
    72  H    0.133394
    73  H    0.140685
    74  H    0.144686
    75  H    0.175843
    76  H    0.132689
    77  H    0.128307
    78  H    0.137895
    79  H    0.135828
    80  H    0.160024
    81  H    0.150284
    82  H    0.134447
    83  H    0.137321
    84  H    0.138725
    85  H    0.139744
    86  H    0.137596
    87  H    0.139252
    88  H    0.140508
    89  H    0.143292
    90  H    0.157364
    91  H    0.172327
    92  H    0.157813
    93  H    0.134320
    94  H    0.130390
    95  H    0.129414
    96  H    0.155623
    97  H    0.135579
    98  H    0.131368
 Sum of Mulliken charges =  -0.00000

 Dipole moment (field-independent basis, Debye):
    X=              5.3051    Y=              0.0037    Z=              0.7832  Tot=              5.3626
 Quadrupole moment (field-independent basis, Debye-Ang):
   XX=           -318.8082   YY=           -348.6142   ZZ=           -301.0697
   XY=             31.7132   XZ=            -30.3302   YZ=             -7.6207

 Normal termination of Gaussian 16 at Sat Nov  5 12:32:49 2022.
