 Gaussian 16, Revision B.01,
 Gaussian 16:  ES64L-G16RevB.01 20-Dec-2017

 -----------------------------
 #p b3lyp/6-31g(d) opt SCF=XQC
 -----------------------------

 ------------------------------
 Gaussian input prepared by ASE
 ------------------------------
 Symbolic Z-matrix:
 Charge =  0 Multiplicity = 1

 SCF Done:  E(RB3LYP) =  -2430.09181875     A.U. after   14 cycles
 SCF Done:  E(RB3LYP) =  -2430.10368209     A.U. after   12 cycles
 SCF Done:  E(RB3LYP) =  -2430.10434630     A.U. after   11 cycles
 SCF Done:  E(RB3LYP) =  -2430.10444622     A.U. after   11 cycles
 SCF Done:  E(RB3LYP) =  -2430.10447794     A.U. after   10 cycles
 SCF Done:  E(RB3LYP) =  -2430.10448467     A.U. after    9 cycles
 SCF Done:  E(RB3LYP) =  -2430.10448609     A.U. after    9 cycles
 SCF Done:  E(RB3LYP) =  -2430.10448670     A.U. after    9 cycles
 SCF Done:  E(RB3LYP) =  -2430.10448683     A.U. after    7 cycles
 SCF Done:  E(RB3LYP) =  -2430.10448685     A.U. after    6 cycles
 Optimization completed.
    -- Stationary point found.

                         Standard orientation:
 ---------------------------------------------------------------------
 Center     Atomic      Atomic             Coordinates (Angstroms)
 Number     Number       Type             X           Y           Z
 ---------------------------------------------------------------------
      1          6           0       12.683741   -0.600941   -1.411769
      2          6           0       11.314587   -0.123367   -0.994514
      3          6           0       11.139018    1.146527   -0.482120
      4          6           0        9.853774    1.596050   -0.086781
      5          6           0        9.637404    2.959847    0.467536
      6          6           0       10.561974    4.000196    0.279603
      7          6           0       10.330796    5.266168    0.816552
      8          6           0        9.171814    5.515703    1.552689
      9          6           0        8.241051    4.490349    1.739924
     10          6           0        8.468255    3.227267    1.200621
     11          7           0        8.783898    0.811305   -0.175173
     12          6           0        8.920489   -0.435990   -0.664755
     13          6           0       10.169061   -0.963852   -1.104363
     14          6           0       10.235092   -2.299012   -1.623083
     15          6           0        9.121255   -3.081444   -1.705252
     16          6           0        7.848541   -2.593961   -1.272553
     17          6           0        6.668058   -3.365680   -1.349078
     18          6           0        5.472864   -2.837984   -0.917664
     19          6           0        5.450839   -1.519096   -0.390955
     20          6           0        4.193321   -0.886641    0.094162
     21          6           0        4.132718    0.510806    0.226694
     22          6           0        2.960810    1.122691    0.660714
     23          6           0        1.837296    0.359103    0.977742
     24          6           0        1.873662   -1.039734    0.867608
     25          6           0        0.688132   -1.865596    1.217107
     26          6           0        0.828717   -3.081923    1.905103
     27          6           0       -0.288545   -3.857442    2.213064
     28          6           0       -1.563755   -3.436224    1.846695
     29          6           0       -1.735227   -2.218618    1.169976
     30          6           0       -3.100999   -1.775513    0.785253
     31          6           0       -3.406654   -0.433998    0.523892
     32          6           0       -4.721210   -0.121447    0.160855
     33          6           0       -5.150931    1.267229   -0.151273
     34          6           0       -4.236555    2.248791   -0.563531
     35          6           0       -4.674604    3.541188   -0.844528
     36          6           0       -6.023807    3.870313   -0.721846
     37          6           0       -6.960887    2.904188   -0.319163
     38          6           0       -8.394745    3.271308   -0.152340
     39          6           0       -8.728056    4.367069    0.628048
     40          6           0      -10.069685    4.755155    0.848187
     41          6           0      -11.096658    4.037071    0.282477
     42          6           0      -10.807862    2.918910   -0.539163
     43          6           0      -11.840279    2.163595   -1.162220
     44          7           0      -11.642182    1.134521   -1.957914
     45          6           0      -10.348601    0.786310   -2.199768
     46          6           0       -9.258669    1.426082   -1.654436
     47          6           0       -9.452679    2.526014   -0.775781
     48          6           0       -6.505751    1.609420   -0.037673
     49          7           0       -5.662590   -1.076762    0.096613
     50          6           0       -5.294651   -2.334804    0.385133
     51          6           0       -6.344395   -3.385931    0.320192
     52          6           0       -7.668894   -3.052029   -0.004155
     53          6           0       -8.651380   -4.037947   -0.060695
     54          6           0       -8.326197   -5.370507    0.203347
     55          6           0       -7.009928   -5.711336    0.523525
     56          6           0       -6.025355   -4.727709    0.581754
     57          7           0       -4.052791   -2.720431    0.717850
     58          6           0       -0.603289   -1.451571    0.859900
     59          6           0        3.059858   -1.642931    0.423525
     60          7           0        6.552086   -0.775046   -0.322905
     61          6           0        7.728072   -1.276248   -0.747999
     62          1           0       12.710299   -0.865960   -2.475934
     63          1           0       12.988696   -1.492254   -0.849970
     64          1           0       13.435126    0.175294   -1.241890
     65          1           0       12.002323    1.792769   -0.362072
     66          1           0       11.458821    3.836013   -0.310222
     67          1           0       11.055462    6.059598    0.653455
     68          1           0        8.993271    6.501751    1.973442
     69          1           0        7.334726    4.676172    2.310537
     70          1           0        7.750799    2.424835    1.333135
     71          1           0       11.191238   -2.689745   -1.956030
     72          1           0        9.184602   -4.091528   -2.103100
     73          1           0        6.713313   -4.371378   -1.760827
     74          1           0        4.559772   -3.416467   -1.003144
     75          1           0        5.015733    1.091682   -0.015149
     76          1           0        2.922751    2.204221    0.761386
     77          1           0        0.936832    0.845067    1.343248
     78          1           0        1.816611   -3.408349    2.217841
     79          1           0       -0.163114   -4.792592    2.752256
     80          1           0       -2.438122   -4.032785    2.080288
     81          1           0       -2.661879    0.342005    0.644275
     82          1           0       -3.187861    1.999982   -0.694488
     83          1           0       -3.963039    4.292436   -1.175959
     84          1           0       -6.362130    4.875303   -0.958478
     85          1           0       -7.931503    4.928833    1.108505
     86          1           0      -10.279229    5.615263    1.477845
     87          1           0      -12.134136    4.315191    0.451261
     88          1           0      -12.877615    2.448929   -0.979274
     89          1           0      -10.209195   -0.054845   -2.875342
     90          1           0       -8.258228    1.093184   -1.906037
     91          1           0       -7.201039    0.847925    0.296093
     92          1           0       -7.913483   -2.016554   -0.211732
     93          1           0       -9.673075   -3.765673   -0.311842
     94          1           0       -9.093686   -6.138857    0.158353
     95          1           0       -6.749576   -6.746693    0.727369
     96          1           0       -5.000484   -4.983374    0.825405
     97          1           0       -0.712792   -0.537264    0.285058
     98          1           0        3.085163   -2.724491    0.335912
 ---------------------------------------------------------------------

 The electronic state is 1-A.
 Alpha  occ. eigenvalues --  -14.33112 -14.33080 -14.32615 -14.32420 -14.32034
 Alpha  occ. eigenvalues --  -10.26111 -10.24763 -10.24725 -10.23440 -10.23092
 Alpha  occ. eigenvalues --  -10.22806 -10.22688 -10.22308 -10.21695 -10.21498
 Alpha  occ. eigenvalues --  -10.21283 -10.21045 -10.21013 -10.20894 -10.20811
 Alpha  occ. eigenvalues --  -10.20723 -10.20564 -10.20558 -10.20487 -10.20439
 Alpha  occ. eigenvalues --  -10.20270 -10.20230 -10.20208 -10.20186 -10.20186
 Alpha  occ. eigenvalues --  -10.20177 -10.20124 -10.20119 -10.20102 -10.20062
 Alpha  occ. eigenvalues --  -10.20032 -10.19873 -10.19835 -10.19709 -10.19689
 Alpha  occ. eigenvalues --  -10.19633 -10.19560 -10.19537 -10.19411 -10.19358
 Alpha  occ. eigenvalues --  -10.19292 -10.19270 -10.19264 -10.19182 -10.19033
 Alpha  occ. eigenvalues --  -10.18981 -10.18870 -10.18825 -10.18805 -10.18563
 Alpha  occ. eigenvalues --  -10.18526 -10.18489 -10.18473 -10.18342 -10.18315
 Alpha  occ. eigenvalues --  -10.18105  -0.98522  -0.95483  -0.93690  -0.93387
 Alpha  occ. eigenvalues --   -0.89733  -0.87647  -0.87088  -0.85871  -0.85568
 Alpha  occ. eigenvalues --   -0.85037  -0.84802  -0.84475  -0.82110  -0.81115
 Alpha  occ. eigenvalues --   -0.80595  -0.79421  -0.78293  -0.77940  -0.76945
 Alpha  occ. eigenvalues --   -0.76507  -0.76121  -0.75426  -0.75229  -0.74117
 Alpha  occ. eigenvalues --   -0.73847  -0.73743  -0.73326  -0.72725  -0.72269
 Alpha  occ. eigenvalues --   -0.72065  -0.71367  -0.66607  -0.66365  -0.65552
 Alpha  occ. eigenvalues --   -0.65063  -0.64669  -0.63721  -0.63257  -0.62755
 Alpha  occ. eigenvalues --   -0.62122  -0.61841  -0.60763  -0.60324  -0.59732
 Alpha  occ. eigenvalues --   -0.59319  -0.59040  -0.58318  -0.57546  -0.57173
 Alpha  occ. eigenvalues --   -0.56607  -0.55139  -0.54154  -0.52922  -0.52527
 Alpha  occ. eigenvalues --   -0.52010  -0.51856  -0.51540  -0.51282  -0.50810
 Alpha  occ. eigenvalues --   -0.50392  -0.49653  -0.49386  -0.48767  -0.48203
 Alpha  occ. eigenvalues --   -0.47860  -0.47312  -0.46763  -0.46327  -0.45985
 Alpha  occ. eigenvalues --   -0.45693  -0.45294  -0.45037  -0.44832  -0.44452
 Alpha  occ. eigenvalues --   -0.44211  -0.44046  -0.43753  -0.43680  -0.43462
 Alpha  occ. eigenvalues --   -0.43378  -0.43088  -0.42941  -0.42597  -0.42243
 Alpha  occ. eigenvalues --   -0.42004  -0.41953  -0.41818  -0.41748  -0.41444
 Alpha  occ. eigenvalues --   -0.41162  -0.41023  -0.40847  -0.40570  -0.40522
 Alpha  occ. eigenvalues --   -0.39802  -0.39543  -0.39401  -0.38961  -0.38256
 Alpha  occ. eigenvalues --   -0.37845  -0.37554  -0.37027  -0.36904  -0.36555
 Alpha  occ. eigenvalues --   -0.36424  -0.36106  -0.35965  -0.35692  -0.35559
 Alpha  occ. eigenvalues --   -0.35413  -0.34779  -0.34504  -0.34279  -0.33999
 Alpha  occ. eigenvalues --   -0.33787  -0.33767  -0.33713  -0.33555  -0.33466
 Alpha  occ. eigenvalues --   -0.32163  -0.30544  -0.30119  -0.29828  -0.29542
 Alpha  occ. eigenvalues --   -0.29299  -0.27229  -0.26753  -0.25844  -0.25783
 Alpha  occ. eigenvalues --   -0.25734  -0.25666  -0.25254  -0.25082  -0.25009
 Alpha  occ. eigenvalues --   -0.24689  -0.24656  -0.24412  -0.24076  -0.23257
 Alpha  occ. eigenvalues --   -0.22971  -0.22571  -0.22043  -0.21155
 Alpha virt. eigenvalues --   -0.06500  -0.06384  -0.05559  -0.05079  -0.04931
 Alpha virt. eigenvalues --   -0.03431  -0.02551  -0.02268  -0.01455  -0.01324
 Alpha virt. eigenvalues --   -0.00099   0.00539   0.00649   0.01607   0.02659

 Mulliken charges:
               1
     1  C   -0.539868
     2  C    0.163323
     3  C   -0.244513
     4  C    0.268341
     5  C    0.091077
     6  C   -0.178143
     7  C   -0.138679
     8  C   -0.122100
     9  C   -0.136049
    10  C   -0.162697
    11  N   -0.571289
    12  C    0.219307
    13  C    0.102643
    14  C   -0.199908
    15  C   -0.195534
    16  C    0.165101
    17  C   -0.165758
    18  C   -0.171160
    19  C    0.256982
    20  C    0.094779
    21  C   -0.162172
    22  C   -0.138475
    23  C   -0.169694
    24  C    0.087032
    25  C    0.082695
    26  C   -0.167736
    27  C   -0.140080
    28  C   -0.155054
    29  C    0.094264
    30  C    0.277637
    31  C   -0.220219
    32  C    0.277046
    33  C    0.095257
    34  C   -0.170856
    35  C   -0.141792
    36  C   -0.158087
    37  C    0.064482
    38  C    0.033879
    39  C   -0.179662
    40  C   -0.135814
    41  C   -0.185647
    42  C    0.103284
    43  C   -0.007301
    44  N   -0.415220
    45  C    0.021379
    46  C   -0.206232
    47  C    0.109953
    48  C   -0.212673
    49  N   -0.554945
    50  C    0.444240
    51  C    0.075453
    52  C   -0.164182
    53  C   -0.140021
    54  C   -0.118805
    55  C   -0.138970
    56  C   -0.161612
    57  N   -0.554912
    58  C   -0.229662
    59  C   -0.235845
    60  N   -0.568237
    61  C    0.218980
    62  H    0.170470
    63  H    0.170706
    64  H    0.163221
    65  H    0.134005
    66  H    0.127175
    67  H    0.128371
    68  H    0.128795
    69  H    0.130156
    70  H    0.172007
    71  H    0.132841
    72  H    0.133394
    73  H    0.140686
    74  H    0.144685
    75  H    0.175845
    76  H    0.132689
    77  H    0.128307
    78  H    0.137893
    79  H    0.135827
    80  H    0.160027
    81  H    0.150285
    82  H    0.134446
    83  H    0.137321
    84  H    0.138725
    85  H    0.139745
    86  H    0.137596
    87  H    0.139252
    88  H    0.140509
    89  H    0.143291
    90  H    0.157363
    91  H    0.172328
    92  H    0.157814
    93  H    0.134321
    94  H    0.130390
    95  H    0.129414
    96  H    0.155622
    97  H    0.135579
    98  H    0.131368
 Sum of Mulliken charges =  -0.00000

 Dipole moment (field-independent basis, Debye):
    X=              5.2998    Y=              0.7651    Z=              0.2915  Tot=              5.3627
 Quadrupole moment (field-independent basis, Debye-Ang):
   XX=           -314.1384   YY=           -301.3418   ZZ=           -351.5047
   XY=            -30.0627   XZ=            -30.6426   YZ=              7.3136

 Normal termination of Gaussian 16 at Sat Nov  5 02:32:28 2022.
