 Gaussian 16, Revision B.01,
 Gaussian 16:  ES64L-G16RevB.01 20-Dec-2017

 -----------------------------
 #p b3lyp/6-31g(d) opt SCF=XQC
 -----------------------------

 ------------------------------
 Gaussian input prepared by ASE
 ------------------------------
 Symbolic Z-matrix:
 Charge =  0 Multiplicity = 1

 SCF Done:  E(RB3LYP) =  -2466.45314125     A.U. after   15 cycles
 SCF Done:  E(RB3LYP) =  -2466.46416321     A.U. after   13 cycles
 SCF Done:  E(RB3LYP) =  -2466.46435599     A.U. after   12 cycles
 SCF Done:  E(RB3LYP) =  -2466.46497105     A.U. after   12 cycles
 SCF Done:  E(RB3LYP) =  -2466.46501299     A.U. after   10 cycles
 SCF Done:  E(RB3LYP) =  -2466.46503613     A.U. after   10 cycles
 SCF Done:  E(RB3LYP) =  -2466.46503872     A.U. after    9 cycles
 SCF Done:  E(RB3LYP) =  -2466.46503993     A.U. after    9 cycles
 SCF Done:  E(RB3LYP) =  -2466.46504025     A.U. after    9 cycles
 SCF Done:  E(RB3LYP) =  -2466.46504033     A.U. after    7 cycles
 SCF Done:  E(RB3LYP) =  -2466.46504035     A.U. after    6 cycles
 Optimization completed.
    -- Stationary point found.

                         Standard orientation:
 ---------------------------------------------------------------------
 Center     Atomic      Atomic             Coordinates (Angstroms)
 Number     Number       Type             X           Y           Z
 ---------------------------------------------------------------------
      1          6           0      -10.919747   -1.042813    1.102152
      2          6           0       -9.980785   -1.055459    2.135783
      3          6           0       -8.629490   -0.843836    1.857349
      4          6           0       -8.218394   -0.620378    0.541032
      5          7           0       -6.822585   -0.395354    0.255343
      6          6           0       -6.012583   -1.501554   -0.065059
      7          6           0       -6.611038   -2.781318   -0.132413
      8          6           0       -5.864813   -3.892367   -0.488555
      9          6           0       -4.505011   -3.768050   -0.797333
     10          6           0       -3.914287   -2.518319   -0.711768
     11          6           0       -4.616948   -1.352373   -0.327613
     12          5           0       -3.982031    0.050079   -0.190550
     13          6           0       -2.499699    0.512284   -0.263522
     14          6           0       -1.340819   -0.279936   -0.343986
     15          6           0       -0.024576    0.204592   -0.409777
     16          6           0        0.154127    1.620642   -0.334506
     17          6           0       -0.967309    2.456613   -0.257509
     18          6           0       -2.245021    1.905644   -0.218510
     19          8           0       -3.233834    2.846895   -0.106731
     20          6           0       -4.547210    2.516134    0.087776
     21          6           0       -5.409400    3.586584    0.302876
     22          6           0       -6.757532    3.300992    0.515641
     23          6           0       -7.243527    1.996794    0.510309
     24          6           0       -6.359020    0.925535    0.275837
     25          6           0       -4.977090    1.174746    0.061736
     26          7           0        1.441932    2.189897   -0.316633
     27          6           0        1.550677    3.629189   -0.331146
     28          6           0        1.575316    4.342443    0.870275
     29          6           0        1.682577    5.733627    0.846994
     30          6           0        1.764308    6.410038   -0.372267
     31          6           0        1.738863    5.693452   -1.570460
     32          6           0        1.632432    4.301878   -1.552234
     33          6           0        2.621832    1.442954   -0.210105
     34          6           0        3.856940    2.095810   -0.062002
     35          6           0        4.997763    1.317622    0.092136
     36          6           0        4.984818   -0.089357    0.133920
     37          6           0        3.736973   -0.719383   -0.074790
     38          6           0        2.547639    0.021865   -0.265510
     39          5           0        1.231111   -0.676482   -0.517764
     40          6           0        1.382913   -2.147461   -0.977751
     41          6           0        0.416283   -2.833479   -1.746048
     42          6           0        0.654682   -4.078754   -2.309184
     43          6           0        1.912481   -4.668480   -2.141995
     44          6           0        2.898971   -4.024287   -1.408522
     45          6           0        2.641503   -2.780295   -0.800183
     46          7           0        3.690250   -2.120757   -0.091164
     47          6           0        4.700633   -2.871502    0.582125
     48          6           0        4.364124   -4.122698    1.135517
     49          6           0        5.311797   -4.872293    1.817749
     50          6           0        6.614607   -4.388695    1.984771
     51          6           0        6.934561   -3.136759    1.481479
     52          6           0        6.006008   -2.340061    0.775153
     53          5           0        6.254440   -0.864914    0.389593
     54          6           0        7.550353   -0.018198    0.349812
     55          6           0        8.881884   -0.492448    0.348560
     56          6           0        9.975598    0.362878    0.317306
     57          6           0        9.770089    1.749461    0.286717
     58          6           0        8.481021    2.264167    0.263778
     59          6           0        7.392734    1.383565    0.279910
     60          8           0        6.167709    2.008426    0.223294
     61          6           0       -9.155708   -0.605952   -0.495506
     62          6           0      -10.505875   -0.817821   -0.212739
     63          1           0      -11.971215   -1.207628    1.320549
     64          1           0      -10.298697   -1.229715    3.159955
     65          1           0       -7.888296   -0.850485    2.650919
     66          1           0       -7.664282   -2.902802    0.084761
     67          1           0       -6.352017   -4.863050   -0.536868
     68          1           0       -3.923897   -4.635389   -1.097185
     69          1           0       -2.866031   -2.428849   -0.968253
     70          1           0       -1.456616   -1.355436   -0.314909
     71          1           0       -0.880013    3.532699   -0.193829
     72          1           0       -5.025575    4.600823    0.309534
     73          1           0       -7.452397    4.117978    0.692111
     74          1           0       -8.297602    1.821044    0.679317
     75          1           0        1.510807    3.803389    1.810656
     76          1           0        1.701769    6.287712    1.781244
     77          1           0        1.847467    7.493185   -0.388293
     78          1           0        1.802306    6.216045   -2.520752
     79          1           0        1.611703    3.731337   -2.475855
     80          1           0        3.950938    3.172546   -0.054475
     81          1           0       -0.531634   -2.342347   -1.940686
     82          1           0       -0.111248   -4.573369   -2.900105
     83          1           0        2.138693   -5.622041   -2.612077
     84          1           0        3.881997   -4.472852   -1.330629
     85          1           0        3.350285   -4.495420    1.052684
     86          1           0        5.022894   -5.828944    2.245293
     87          1           0        7.352766   -4.971157    2.529002
     88          1           0        7.922780   -2.731106    1.672348
     89          1           0        9.053230   -1.564618    0.349727
     90          1           0       10.985081   -0.038644    0.313796
     91          1           0       10.619119    2.427659    0.267894
     92          1           0        8.293039    3.332340    0.220830
     93          1           0       -8.819561   -0.429721   -1.512945
     94          1           0      -11.233314   -0.806756   -1.019651
 ---------------------------------------------------------------------

 The electronic state is 1-A.
 Alpha  occ. eigenvalues --  -19.19963 -19.19559 -14.38677 -14.38531 -14.38200
 Alpha  occ. eigenvalues --  -10.25428 -10.24986 -10.24961 -10.24767 -10.24191
 Alpha  occ. eigenvalues --  -10.23713 -10.23695 -10.23576 -10.23511 -10.23456
 Alpha  occ. eigenvalues --  -10.23389 -10.23336 -10.23128 -10.20517 -10.20492
 Alpha  occ. eigenvalues --  -10.20431 -10.20388 -10.20379 -10.20321 -10.20297
 Alpha  occ. eigenvalues --  -10.20251 -10.20233 -10.20218 -10.19299 -10.19231
 Alpha  occ. eigenvalues --  -10.19127 -10.18970 -10.18887 -10.18796 -10.18706
 Alpha  occ. eigenvalues --  -10.18613 -10.18610 -10.18608 -10.18538 -10.18418
 Alpha  occ. eigenvalues --  -10.18353 -10.18343 -10.18243 -10.18219 -10.18215
 Alpha  occ. eigenvalues --  -10.17861 -10.17820 -10.17768 -10.17689 -10.17675
 Alpha  occ. eigenvalues --  -10.16816 -10.16785 -10.16586 -10.16397 -10.16162
 Alpha  occ. eigenvalues --  -10.16057 -10.16028 -10.15769 -10.15676  -6.70744
 Alpha  occ. eigenvalues --   -6.70696  -6.70101  -1.08872  -1.08619  -0.97958
 Alpha  occ. eigenvalues --   -0.97650  -0.97441  -0.86498  -0.86383  -0.85556
 Alpha  occ. eigenvalues --   -0.85029  -0.84898  -0.84364  -0.83813  -0.83159
 Alpha  occ. eigenvalues --   -0.82567  -0.77361  -0.76841  -0.76606  -0.76320
 Alpha  occ. eigenvalues --   -0.75964  -0.75794  -0.75614  -0.75363  -0.74826
 Alpha  occ. eigenvalues --   -0.74328  -0.73907  -0.73581  -0.73266  -0.72530
 Alpha  occ. eigenvalues --   -0.72342  -0.70992  -0.70778  -0.69979  -0.64729
 Alpha  occ. eigenvalues --   -0.64567  -0.63841  -0.63013  -0.62593  -0.62172
 Alpha  occ. eigenvalues --   -0.62093  -0.62011  -0.61508  -0.61155  -0.60409
 Alpha  occ. eigenvalues --   -0.59671  -0.59305  -0.59082  -0.58657  -0.57403
 Alpha  occ. eigenvalues --   -0.55991  -0.55871  -0.55188  -0.54604  -0.53130
 Alpha  occ. eigenvalues --   -0.52920  -0.51921  -0.51833  -0.50694  -0.50625
 Alpha  occ. eigenvalues --   -0.50223  -0.49655  -0.48821  -0.48406  -0.47716
 Alpha  occ. eigenvalues --   -0.47393  -0.47337  -0.47084  -0.46982  -0.46828
 Alpha  occ. eigenvalues --   -0.46466  -0.46191  -0.45617  -0.45391  -0.44971
 Alpha  occ. eigenvalues --   -0.44826  -0.44333  -0.44263  -0.43959  -0.43576
 Alpha  occ. eigenvalues --   -0.43495  -0.43411  -0.43328  -0.43308  -0.43090
 Alpha  occ. eigenvalues --   -0.42758  -0.42469  -0.42266  -0.41791  -0.41620
 Alpha  occ. eigenvalues --   -0.40760  -0.40364  -0.39902  -0.39671  -0.39290
 Alpha  occ. eigenvalues --   -0.39062  -0.38639  -0.38354  -0.38079  -0.38040
 Alpha  occ. eigenvalues --   -0.37558  -0.37273  -0.37188  -0.36820  -0.36618
 Alpha  occ. eigenvalues --   -0.36394  -0.36125  -0.35991  -0.35913  -0.35889
 Alpha  occ. eigenvalues --   -0.35618  -0.35178  -0.35073  -0.34763  -0.34323
 Alpha  occ. eigenvalues --   -0.34129  -0.33821  -0.32836  -0.31984  -0.31170
 Alpha  occ. eigenvalues --   -0.30357  -0.30214  -0.29772  -0.29433  -0.28932
 Alpha  occ. eigenvalues --   -0.28272  -0.27609  -0.26825  -0.26584  -0.26350
 Alpha  occ. eigenvalues --   -0.26274  -0.26187  -0.26082  -0.25329  -0.24839
 Alpha  occ. eigenvalues --   -0.24638  -0.24242  -0.24102  -0.23890  -0.22432
 Alpha  occ. eigenvalues --   -0.21727  -0.20206  -0.19261  -0.18326
 Alpha virt. eigenvalues --   -0.05732  -0.04973  -0.03863  -0.01883  -0.01811
 Alpha virt. eigenvalues --   -0.01694  -0.01633  -0.01169  -0.00283  -0.00154
 Alpha virt. eigenvalues --    0.00090   0.00243   0.01038   0.01198   0.02165

 Mulliken charges:
               1
     1  C   -0.118857
     2  C   -0.143404
     3  C   -0.115824
     4  C    0.178395
     5  N   -0.669578
     6  C    0.246687
     7  C   -0.172196
     8  C   -0.141850
     9  C   -0.118917
    10  C   -0.218707
    11  C    0.090648
    12  B    0.024825
    13  C    0.118573
    14  C   -0.342017
    15  C    0.131056
    16  C    0.263423
    17  C   -0.261324
    18  C    0.280574
    19  O   -0.549391
    20  C    0.291582
    21  C   -0.187540
    22  C   -0.142727
    23  C   -0.177905
    24  C    0.267654
    25  C   -0.002935
    26  N   -0.692193
    27  C    0.187150
    28  C   -0.118951
    29  C   -0.141071
    30  C   -0.117428
    31  C   -0.142505
    32  C   -0.114453
    33  C    0.293879
    34  C   -0.275673
    35  C    0.315312
    36  C    0.016013
    37  C    0.164449
    38  C    0.017997
    39  B    0.012647
    40  C    0.087742
    41  C   -0.231344
    42  C   -0.116547
    43  C   -0.145810
    44  C   -0.153534
    45  C    0.207568
    46  N   -0.658401
    47  C    0.211467
    48  C   -0.155369
    49  C   -0.144644
    50  C   -0.113427
    51  C   -0.223548
    52  C    0.088798
    53  B    0.031763
    54  C    0.099967
    55  C   -0.223132
    56  C   -0.116926
    57  C   -0.138710
    58  C   -0.173750
    59  C    0.266109
    60  O   -0.550199
    61  C   -0.118575
    62  C   -0.142711
    63  H    0.137836
    64  H    0.141257
    65  H    0.151174
    66  H    0.146484
    67  H    0.129828
    68  H    0.124301
    69  H    0.133797
    70  H    0.138793
    71  H    0.156504
    72  H    0.133987
    73  H    0.132105
    74  H    0.142785
    75  H    0.152068
    76  H    0.141817
    77  H    0.138073
    78  H    0.141670
    79  H    0.151162
    80  H    0.154586
    81  H    0.140518
    82  H    0.126624
    83  H    0.132164
    84  H    0.154598
    85  H    0.156251
    86  H    0.133366
    87  H    0.127501
    88  H    0.131113
    89  H    0.133438
    90  H    0.127340
    91  H    0.133879
    92  H    0.140637
    93  H    0.151081
    94  H    0.141061
 Sum of Mulliken charges =  -0.00000

 Dipole moment (field-independent basis, Debye):
    X=             -3.0110    Y=              0.6999    Z=              0.4418  Tot=              3.1227
 Quadrupole moment (field-independent basis, Debye-Ang):
   XX=           -285.0745   YY=           -306.4692   ZZ=           -343.0131
   XY=              8.1657   XZ=             -3.5132   YZ=             -0.6287

 Normal termination of Gaussian 16 at Sat Nov  5 02:38:50 2022.
