 Gaussian 16, Revision B.01,
 Gaussian 16:  ES64L-G16RevB.01 20-Dec-2017

 -------------------------------------------------------------------
 #p b3lyp/6-31g(d) 6D 10F nosymm GFInput td=(50-50,nstate=2) SCF=XQC
 -------------------------------------------------------------------

 ------------------------------
 Gaussian input prepared by ASE
 ------------------------------
 Symbolic Z-matrix:
 Charge =  0 Multiplicity = 1

                          Input orientation:
 ---------------------------------------------------------------------
 Center     Atomic      Atomic             Coordinates (Angstroms)
 Number     Number       Type             X           Y           Z
 ---------------------------------------------------------------------
      1          6           0       10.850727    0.147610    0.942717
      2          6           0        9.932158   -0.043941    1.977001
      3          6           0        8.566687   -0.116498    1.696770
      4          6           0        8.120987    0.004246    0.378287
      5          7           0        6.710218   -0.077398    0.089143
      6          6           0        5.955901    1.111299    0.068041
      7          6           0        6.621612    2.339017    0.291684
      8          6           0        5.930601    3.537944    0.235144
      9          6           0        4.560838    3.557739   -0.053329
     10          6           0        3.904794    2.354366   -0.252328
     11          6           0        4.549826    1.097582   -0.180465
     12          5           0        3.842283   -0.264102   -0.364802
     13          6           0        2.336010   -0.622747   -0.501836
     14          6           0        1.220570    0.220642   -0.354937
     15          6           0       -0.120970   -0.169414   -0.495362
     16          6           0       -0.374866   -1.551461   -0.756666
     17          6           0        0.700756   -2.434609   -0.916298
     18          6           0        2.006961   -1.971827   -0.784769
     19          8           0        2.945077   -2.958987   -0.931913
     20          6           0        4.277678   -2.748876   -0.703394
     21          6           0        5.084186   -3.880053   -0.777466
     22          6           0        6.449358   -3.719809   -0.543114
     23          6           0        7.005209   -2.477920   -0.250040
     24          6           0        6.176122   -1.340207   -0.193900
     25          6           0        4.779158   -1.463229   -0.419800
     26          7           0       -1.691138   -2.045193   -0.837093
     27          6           0       -1.878029   -3.431504   -1.193201
     28          6           0       -1.920184   -4.411380   -0.197804
     29          6           0       -2.103139   -5.749019   -0.550921
     30          6           0       -2.242870   -6.106662   -1.893819
     31          6           0       -2.199673   -5.124374   -2.885309
     32          6           0       -2.017615   -3.785098   -2.536978
     33          6           0       -2.826730   -1.289767   -0.518979
     34          6           0       -4.092634   -1.898489   -0.494686
     35          6           0       -5.186681   -1.126149   -0.124055
     36          6           0       -5.096707    0.226902    0.253648
     37          6           0       -3.820390    0.827494    0.164685
     38          6           0       -2.676551    0.097434   -0.234042
     39          5           0       -1.328723    0.771424   -0.350934
     40          6           0       -1.408582    2.315489   -0.439796
     41          6           0       -0.419828    3.118914   -1.049836
     42          6           0       -0.600198    4.473276   -1.290325
     43          6           0       -1.821023    5.065458   -0.948720
     44          6           0       -2.827949    4.311933   -0.361839
     45          6           0       -2.627675    2.946990   -0.077755
     46          7           0       -3.698019    2.187503    0.483593
     47          6           0       -4.654196    2.801732    1.347457
     48          6           0       -4.240635    3.864745    2.174464
     49          6           0       -5.134109    4.472668    3.044840
     50          6           0       -6.458092    4.026719    3.130137
     51          6           0       -6.854283    2.950104    2.351067
     52          6           0       -5.982878    2.303263    1.446588
     53          5           0       -6.317700    0.978441    0.726050
     54          6           0       -7.658130    0.230067    0.523357
     55          6           0       -8.961793    0.754512    0.676036
     56          6           0      -10.100670   -0.014053    0.473460
     57          6           0       -9.971243   -1.360610    0.104931
     58          6           0       -8.712594   -1.916378   -0.079648
     59          6           0       -7.578029   -1.119404    0.114483
     60          8           0       -6.389886   -1.770721   -0.127272
     61          6           0        9.037762    0.194852   -0.659194
     62          6           0       10.402198    0.266658   -0.374667
     63          1           0       11.913265    0.203791    1.162495
     64          1           0       10.277018   -0.137411    3.003010
     65          1           0        7.841016   -0.265544    2.490719
     66          1           0        7.683552    2.353407    0.499827
     67          1           0        6.468813    4.466871    0.406463
     68          1           0        4.022440    4.498876   -0.118691
     69          1           0        2.848879    2.380244   -0.491085
     70          1           0        1.395026    1.250484   -0.072188
     71          1           0        0.556355   -3.488766   -1.110042
     72          1           0        4.646090   -4.846157   -1.002767
     73          1           0        7.101883   -4.587892   -0.588819
     74          1           0        8.070074   -2.399355   -0.075640
     75          1           0       -1.810001   -4.118787    0.842054
     76          1           0       -2.135921   -6.510451    0.223255
     77          1           0       -2.384926   -7.148643   -2.166723
     78          1           0       -2.308072   -5.398674   -3.930868
     79          1           0       -1.982218   -3.010354   -3.296939
     80          1           0       -4.244750   -2.939410   -0.742870
     81          1           0        0.496485    2.643917   -1.385085
     82          1           0        0.180920    5.058119   -1.768125
     83          1           0       -2.003414    6.114038   -1.169269
     84          1           0       -3.783676    4.775523   -0.149025
     85          1           0       -3.209686    4.196911    2.152964
     86          1           0       -4.786267    5.282839    3.680504
     87          1           0       -7.153885    4.495779    3.820198
     88          1           0       -7.859541    2.558726    2.468725
     89          1           0       -9.074685    1.801757    0.939556
     90          1           0      -11.086794    0.424851    0.596797
     91          1           0      -10.856009   -1.972331   -0.050460
     92          1           0       -8.583611   -2.950478   -0.383251
     93          1           0        8.674709    0.285668   -1.678596
     94          1           0       11.113661    0.415306   -1.182207
 ---------------------------------------------------------------------

 SCF Done:  E(RB3LYP) =  -2466.46503713     A.U. after   15 cycles

 Excitation energies and oscillator strengths:

 Excited state symmetry could not be determined.
 Excited State   1:      Triplet-?Sym    2.6144 eV  474.24 nm  f=0.0000  <S**2>=2.000
     203 ->206         0.17008
     203 ->207         0.16998
     204 ->205         0.63627
     204 ->207         0.10573
 This state for optimization and/or second-order correction.
 Total Energy, E(TD-HF/TD-DFT) =  -2466.36896070
 Copying the excited state density for this state as the 1-particle RhoCI density.

 Excited state symmetry could not be determined.
 Excited State   2:      Triplet-?Sym    2.7204 eV  455.75 nm  f=0.0000  <S**2>=2.000
     202 ->205        -0.10218
     203 ->205         0.37694
     203 ->206        -0.19136
     203 ->207         0.10535
     204 ->206         0.50268

 Excited state symmetry could not be determined.
 Excited State   3:      Singlet-?Sym    2.9516 eV  420.06 nm  f=0.6705  <S**2>=0.000
     203 ->207         0.10195
     204 ->205         0.67880

 Excited state symmetry could not be determined.
 Excited State   4:      Singlet-?Sym    3.1670 eV  391.49 nm  f=0.0132  <S**2>=0.000
     202 ->205        -0.10806
     203 ->205         0.31280
     203 ->206        -0.12869
     204 ->206         0.59247

 Alpha  occ. eigenvalues --  -19.19963 -19.19559 -14.38677 -14.38531 -14.38200
 Alpha  occ. eigenvalues --  -10.25428 -10.24986 -10.24961 -10.24768 -10.24191
 Alpha  occ. eigenvalues --  -10.23713 -10.23695 -10.23576 -10.23511 -10.23456
 Alpha  occ. eigenvalues --  -10.23389 -10.23336 -10.23128 -10.20517 -10.20492
 Alpha  occ. eigenvalues --  -10.20431 -10.20388 -10.20379 -10.20321 -10.20297
 Alpha  occ. eigenvalues --  -10.20250 -10.20233 -10.20218 -10.19299 -10.19231
 Alpha  occ. eigenvalues --  -10.19126 -10.18970 -10.18887 -10.18796 -10.18706
 Alpha  occ. eigenvalues --  -10.18613 -10.18610 -10.18608 -10.18538 -10.18417
 Alpha  occ. eigenvalues --  -10.18353 -10.18343 -10.18243 -10.18219 -10.18215
 Alpha  occ. eigenvalues --  -10.17861 -10.17820 -10.17768 -10.17689 -10.17675
 Alpha  occ. eigenvalues --  -10.16816 -10.16785 -10.16586 -10.16397 -10.16162
 Alpha  occ. eigenvalues --  -10.16057 -10.16028 -10.15769 -10.15676  -6.70744
 Alpha  occ. eigenvalues --   -6.70696  -6.70100  -1.08872  -1.08619  -0.97958
 Alpha  occ. eigenvalues --   -0.97650  -0.97441  -0.86497  -0.86383  -0.85556
 Alpha  occ. eigenvalues --   -0.85029  -0.84898  -0.84364  -0.83813  -0.83159
 Alpha  occ. eigenvalues --   -0.82567  -0.77361  -0.76841  -0.76606  -0.76320
 Alpha  occ. eigenvalues --   -0.75964  -0.75794  -0.75614  -0.75363  -0.74826
 Alpha  occ. eigenvalues --   -0.74328  -0.73907  -0.73581  -0.73266  -0.72530
 Alpha  occ. eigenvalues --   -0.72341  -0.70992  -0.70778  -0.69979  -0.64729
 Alpha  occ. eigenvalues --   -0.64567  -0.63841  -0.63013  -0.62593  -0.62172
 Alpha  occ. eigenvalues --   -0.62093  -0.62011  -0.61508  -0.61155  -0.60409
 Alpha  occ. eigenvalues --   -0.59671  -0.59305  -0.59082  -0.58657  -0.57403
 Alpha  occ. eigenvalues --   -0.55991  -0.55871  -0.55188  -0.54604  -0.53130
 Alpha  occ. eigenvalues --   -0.52920  -0.51921  -0.51833  -0.50694  -0.50625
 Alpha  occ. eigenvalues --   -0.50223  -0.49655  -0.48821  -0.48406  -0.47716
 Alpha  occ. eigenvalues --   -0.47393  -0.47337  -0.47084  -0.46982  -0.46828
 Alpha  occ. eigenvalues --   -0.46466  -0.46191  -0.45617  -0.45391  -0.44971
 Alpha  occ. eigenvalues --   -0.44826  -0.44333  -0.44263  -0.43959  -0.43576
 Alpha  occ. eigenvalues --   -0.43495  -0.43411  -0.43328  -0.43308  -0.43090
 Alpha  occ. eigenvalues --   -0.42758  -0.42469  -0.42266  -0.41791  -0.41620
 Alpha  occ. eigenvalues --   -0.40760  -0.40364  -0.39902  -0.39671  -0.39290
 Alpha  occ. eigenvalues --   -0.39062  -0.38639  -0.38354  -0.38079  -0.38040
 Alpha  occ. eigenvalues --   -0.37558  -0.37273  -0.37188  -0.36820  -0.36618
 Alpha  occ. eigenvalues --   -0.36394  -0.36125  -0.35991  -0.35913  -0.35889
 Alpha  occ. eigenvalues --   -0.35618  -0.35178  -0.35072  -0.34763  -0.34323
 Alpha  occ. eigenvalues --   -0.34129  -0.33821  -0.32836  -0.31984  -0.31170
 Alpha  occ. eigenvalues --   -0.30357  -0.30214  -0.29772  -0.29433  -0.28932
 Alpha  occ. eigenvalues --   -0.28272  -0.27609  -0.26825  -0.26584  -0.26350
 Alpha  occ. eigenvalues --   -0.26274  -0.26187  -0.26082  -0.25329  -0.24839
 Alpha  occ. eigenvalues --   -0.24638  -0.24242  -0.24102  -0.23890  -0.22432
 Alpha  occ. eigenvalues --   -0.21727  -0.20206  -0.19261  -0.18326
 Alpha virt. eigenvalues --   -0.05732  -0.04973  -0.03863  -0.01883  -0.01811
 Alpha virt. eigenvalues --   -0.01694  -0.01633  -0.01169  -0.00283  -0.00154
 Alpha virt. eigenvalues --    0.00090   0.00243   0.01038   0.01198   0.02165

 Mulliken charges:
               1
     1  C   -0.118862
     2  C   -0.143407
     3  C   -0.115822
     4  C    0.178398
     5  N   -0.669599
     6  C    0.246698
     7  C   -0.172193
     8  C   -0.141856
     9  C   -0.118915
    10  C   -0.218716
    11  C    0.090656
    12  B    0.024832
    13  C    0.118560
    14  C   -0.342003
    15  C    0.131012
    16  C    0.263430
    17  C   -0.261334
    18  C    0.280586
    19  O   -0.549388
    20  C    0.291570
    21  C   -0.187537
    22  C   -0.142730
    23  C   -0.177908
    24  C    0.267671
    25  C   -0.002933
    26  N   -0.692181
    27  C    0.187147
    28  C   -0.118957
    29  C   -0.141059
    30  C   -0.117432
    31  C   -0.142504
    32  C   -0.114454
    33  C    0.293861
    34  C   -0.275668
    35  C    0.315299
    36  C    0.016020
    37  C    0.164440
    38  C    0.018001
    39  B    0.012680
    40  C    0.087764
    41  C   -0.231352
    42  C   -0.116542
    43  C   -0.145813
    44  C   -0.153526
    45  C    0.207539
    46  N   -0.658382
    47  C    0.211487
    48  C   -0.155369
    49  C   -0.144643
    50  C   -0.113419
    51  C   -0.223552
    52  C    0.088768
    53  B    0.031789
    54  C    0.099952
    55  C   -0.223133
    56  C   -0.116926
    57  C   -0.138709
    58  C   -0.173751
    59  C    0.266110
    60  O   -0.550200
    61  C   -0.118592
    62  C   -0.142692
    63  H    0.137836
    64  H    0.141258
    65  H    0.151173
    66  H    0.146484
    67  H    0.129828
    68  H    0.124303
    69  H    0.133798
    70  H    0.138792
    71  H    0.156503
    72  H    0.133986
    73  H    0.132105
    74  H    0.142785
    75  H    0.152069
    76  H    0.141816
    77  H    0.138073
    78  H    0.141669
    79  H    0.151161
    80  H    0.154586
    81  H    0.140519
    82  H    0.126621
    83  H    0.132164
    84  H    0.154597
    85  H    0.156248
    86  H    0.133366
    87  H    0.127501
    88  H    0.131113
    89  H    0.133437
    90  H    0.127340
    91  H    0.133878
    92  H    0.140637
    93  H    0.151081
    94  H    0.141059
 Sum of Mulliken charges =  -0.00000

 Dipole moment (field-independent basis, Debye):
    X=              2.9758    Y=             -0.9306    Z=              0.1703  Tot=              3.1226
 Quadrupole moment (field-independent basis, Debye-Ang):
   XX=           -284.9025   YY=           -309.3947   ZZ=           -340.9044
   XY=              6.0686   XZ=              3.9490   YZ=              8.6973

 Normal termination of Gaussian 16 at Sat Nov  5 11:41:44 2022.
