 Gaussian 16, Revision B.01,
 Gaussian 16:  ES64L-G16RevB.01 20-Dec-2017

 -------------------------------------------------------------------
 #p b3lyp/6-31g(d) 6D 10F nosymm GFInput td=(50-50,nstate=2) SCF=XQC
 -------------------------------------------------------------------

 ------------------------------
 Gaussian input prepared by ASE
 ------------------------------
 Symbolic Z-matrix:
 Charge =  0 Multiplicity = 1

                          Input orientation:
 ---------------------------------------------------------------------
 Center     Atomic      Atomic             Coordinates (Angstroms)
 Number     Number       Type             X           Y           Z
 ---------------------------------------------------------------------
      1          6           0       -9.397152    5.069594    0.301549
      2          6           0       -8.046299    5.160069    0.642007
      3          6           0       -7.237746    4.025308    0.606992
      4          6           0       -7.767381    2.779459    0.234046
      5          6           0       -6.924931    1.556035    0.182702
      6          6           0       -5.532945    1.611051    0.044868
      7          6           0       -4.828682    0.401990    0.007294
      8          6           0       -3.349977    0.347493   -0.136639
      9          6           0       -2.629442    1.412971   -0.694453
     10          6           0       -1.235022    1.363957   -0.824622
     11          6           0       -0.476074    2.441750   -1.400824
     12          6           0        0.879210    2.372674   -1.513274
     13          6           0        1.609825    1.217973   -1.063424
     14          6           0        3.005403    1.123814   -1.165124
     15          6           0        3.703260   -0.007524   -0.718106
     16          6           0        5.180539   -0.089115   -0.894711
     17          6           0        5.715105    0.091290   -2.162035
     18          6           0        7.093871   -0.002625   -2.417721
     19          6           0        7.953341   -0.285863   -1.377834
     20          6           0        7.480638   -0.461900   -0.052302
     21          6           0        8.402382   -0.728287    1.008767
     22          6           0        7.915148   -0.861389    2.299163
     23          6           0        6.538044   -0.723572    2.560997
     24          6           0        5.638078   -0.474477    1.547971
     25          6           0        6.072048   -0.351570    0.199408
     26          6           0        9.825235   -0.838010    0.649580
     27          6           0       10.852927   -1.114438    1.569059
     28          6           0       12.181799   -1.206870    1.170722
     29          6           0       12.522422   -1.023285   -0.173805
     30          6           0       11.530292   -0.749428   -1.108554
     31          6           0       10.200816   -0.659757   -0.693549
     32          8           0        9.287813   -0.385462   -1.679697
     33          6           0        2.976792   -1.070933   -0.159478
     34          6           0        1.581321   -1.024300   -0.035300
     35          6           0        0.820417   -2.108929    0.527011
     36          6           0       -0.535036   -2.042883    0.634587
     37          6           0       -1.265791   -0.885247    0.190205
     38          6           0       -2.658991   -0.795173    0.291227
     39          6           0       -0.535772    0.204756   -0.373029
     40          6           0        0.881411    0.133778   -0.489547
     41          7           0       -5.474115   -0.770900    0.116508
     42          6           0       -6.810599   -0.738231    0.231724
     43          6           0       -7.519540   -2.041462    0.335378
     44          6           0       -8.899865   -2.083082    0.586636
     45          6           0       -9.562356   -3.304566    0.685131
     46          6           0       -8.857869   -4.500950    0.531508
     47          6           0       -7.484303   -4.467698    0.279616
     48          6           0       -6.818406   -3.247885    0.183346
     49          7           0       -7.559515    0.374772    0.261053
     50          6           0       -9.130505    2.698262   -0.093559
     51          6           0       -9.935788    3.834094   -0.065298
     52          1           0      -10.026682    5.955036    0.326568
     53          1           0       -7.621724    6.114171    0.942382
     54          1           0       -6.195390    4.109217    0.899896
     55          1           0       -5.017040    2.559273   -0.030021
     56          1           0       -3.151094    2.290474   -1.066014
     57          1           0       -1.011612    3.322497   -1.747165
     58          1           0        1.436887    3.197753   -1.949676
     59          1           0        3.562224    1.955949   -1.588612
     60          1           0        5.042516    0.285194   -2.992819
     61          1           0        7.492242    0.127248   -3.418292
     62          1           0        8.589096   -1.060522    3.125521
     63          1           0        6.183477   -0.809855    3.584672
     64          1           0        4.585413   -0.355722    1.777105
     65          1           0       10.605600   -1.261214    2.615341
     66          1           0       12.951722   -1.422022    1.905761
     67          1           0       13.558331   -1.093931   -0.492738
     68          1           0       11.757722   -0.601800   -2.159351
     69          1           0        3.504594   -1.963150    0.167164
     70          1           0        1.356292   -2.991592    0.867609
     71          1           0       -1.094468   -2.871212    1.062055
     72          1           0       -3.226901   -1.618010    0.712367
     73          1           0       -9.437414   -1.149323    0.706690
     74          1           0      -10.630855   -3.323367    0.883309
     75          1           0       -9.376132   -5.453383    0.607449
     76          1           0       -6.930632   -5.394849    0.156481
     77          1           0       -5.753175   -3.211733   -0.014805
     78          1           0       -9.540246    1.734108   -0.373288
     79          1           0      -10.986791    3.755484   -0.330307
 ---------------------------------------------------------------------

 SCF Done:  E(RB3LYP) =  -2030.81329148     A.U. after   16 cycles

 Excitation energies and oscillator strengths:

 Excited state symmetry could not be determined.
 Excited State   1:      Triplet-?Sym    2.1102 eV  587.56 nm  f=0.0000  <S**2>=2.000
     167 ->170         0.10507
     168 ->171         0.62134
     168 ->172        -0.14316
     168 ->173         0.10473
     169 ->173         0.10378
     168 <-171         0.10906
 This state for optimization and/or second-order correction.
 Total Energy, E(TD-HF/TD-DFT) =  -2030.73574415
 Copying the excited state density for this state as the 1-particle RhoCI density.

 Excited state symmetry could not be determined.
 Excited State   2:      Triplet-?Sym    2.2432 eV  552.70 nm  f=0.0000  <S**2>=2.000
     168 ->171        -0.12645
     169 ->170        -0.16525
     169 ->172         0.32493
     169 ->173         0.53950

 Excited state symmetry could not be determined.
 Excited State   3:      Singlet-?Sym    3.0009 eV  413.16 nm  f=0.0350  <S**2>=0.000
     168 ->170         0.17802
     169 ->170         0.20384
     169 ->171         0.63295
     169 ->172        -0.11017

 Excited state symmetry could not be determined.
 Excited State   4:      Singlet-?Sym    3.0676 eV  404.17 nm  f=0.2182  <S**2>=0.000
     169 ->170         0.65883
     169 ->171        -0.22793

 Alpha  occ. eigenvalues --  -19.20672 -14.32891 -14.32875 -10.26018 -10.25913
 Alpha  occ. eigenvalues --  -10.25804 -10.24535 -10.24509 -10.21127 -10.20894
 Alpha  occ. eigenvalues --  -10.20874 -10.20702 -10.20450 -10.20391 -10.20349
 Alpha  occ. eigenvalues --  -10.20308 -10.20234 -10.20229 -10.20192 -10.20148
 Alpha  occ. eigenvalues --  -10.20001 -10.20001 -10.19970 -10.19963 -10.19832
 Alpha  occ. eigenvalues --  -10.19807 -10.19744 -10.19696 -10.19668 -10.19610
 Alpha  occ. eigenvalues --  -10.19592 -10.19559 -10.19551 -10.19494 -10.19479
 Alpha  occ. eigenvalues --  -10.19431 -10.19429 -10.19375 -10.19291 -10.19262
 Alpha  occ. eigenvalues --  -10.19219 -10.19183 -10.19155 -10.19119 -10.18902
 Alpha  occ. eigenvalues --  -10.18846 -10.18822 -10.18512 -10.18506 -10.18300
 Alpha  occ. eigenvalues --  -10.18294  -1.09855  -0.98315  -0.89783  -0.89128
 Alpha  occ. eigenvalues --   -0.88196  -0.86871  -0.86073  -0.85292  -0.84879
 Alpha  occ. eigenvalues --   -0.83137  -0.82834  -0.81454  -0.80102  -0.78831
 Alpha  occ. eigenvalues --   -0.77007  -0.76826  -0.75650  -0.75241  -0.74978
 Alpha  occ. eigenvalues --   -0.74865  -0.74551  -0.73908  -0.73753  -0.72908
 Alpha  occ. eigenvalues --   -0.71223  -0.70323  -0.66701  -0.66102  -0.64901
 Alpha  occ. eigenvalues --   -0.64235  -0.63434  -0.62941  -0.62475  -0.61914
 Alpha  occ. eigenvalues --   -0.61203  -0.60638  -0.60164  -0.59708  -0.58702
 Alpha  occ. eigenvalues --   -0.57661  -0.56170  -0.56052  -0.54199  -0.52939
 Alpha  occ. eigenvalues --   -0.52513  -0.52109  -0.51881  -0.51523  -0.51084
 Alpha  occ. eigenvalues --   -0.50773  -0.49743  -0.49385  -0.48615  -0.48375
 Alpha  occ. eigenvalues --   -0.47858  -0.47235  -0.46781  -0.45764  -0.45575
 Alpha  occ. eigenvalues --   -0.45142  -0.44822  -0.44132  -0.44029  -0.43599
 Alpha  occ. eigenvalues --   -0.43521  -0.43408  -0.43174  -0.43066  -0.42750
 Alpha  occ. eigenvalues --   -0.42603  -0.42374  -0.42129  -0.41421  -0.41215
 Alpha  occ. eigenvalues --   -0.40915  -0.40532  -0.40269  -0.39924  -0.39568
 Alpha  occ. eigenvalues --   -0.39113  -0.38858  -0.38332  -0.37826  -0.37573
 Alpha  occ. eigenvalues --   -0.37236  -0.37109  -0.36922  -0.36641  -0.36112
 Alpha  occ. eigenvalues --   -0.35607  -0.35425  -0.34787  -0.34420  -0.34298
 Alpha  occ. eigenvalues --   -0.34180  -0.33603  -0.33133  -0.32850  -0.32521
 Alpha  occ. eigenvalues --   -0.32203  -0.32020  -0.30644  -0.29613  -0.29570
 Alpha  occ. eigenvalues --   -0.28324  -0.27604  -0.26033  -0.25617  -0.25537
 Alpha  occ. eigenvalues --   -0.25023  -0.24710  -0.24529  -0.24389  -0.24357
 Alpha  occ. eigenvalues --   -0.23286  -0.22440  -0.20084  -0.18688
 Alpha virt. eigenvalues --   -0.06344  -0.06024  -0.05099  -0.04785  -0.02646
 Alpha virt. eigenvalues --   -0.01796  -0.01001  -0.00506  -0.00388   0.00491
 Alpha virt. eigenvalues --    0.00630   0.01550   0.01715   0.04294   0.05184

 Mulliken charges:
               1
     1  C   -0.119835
     2  C   -0.139107
     3  C   -0.173299
     4  C    0.092825
     5  C    0.274533
     6  C   -0.215659
     7  C    0.275393
     8  C    0.116708
     9  C   -0.293602
    10  C    0.165417
    11  C   -0.193791
    12  C   -0.196360
    13  C    0.174220
    14  C   -0.285101
    15  C    0.088453
    16  C    0.012578
    17  C   -0.182491
    18  C   -0.205016
    19  C    0.313741
    20  C    0.000656
    21  C    0.140320
    22  C   -0.219801
    23  C   -0.128859
    24  C   -0.210108
    25  C    0.095043
    26  C    0.076618
    27  C   -0.198708
    28  C   -0.134416
    29  C   -0.131475
    30  C   -0.185609
    31  C    0.298534
    32  O   -0.570020
    33  C   -0.289057
    34  C    0.174568
    35  C   -0.197171
    36  C   -0.190802
    37  C    0.170354
    38  C   -0.279491
    39  C   -0.001565
    40  C   -0.016266
    41  N   -0.556270
    42  C    0.443041
    43  C    0.076098
    44  C   -0.161493
    45  C   -0.138965
    46  C   -0.119144
    47  C   -0.139035
    48  C   -0.161567
    49  N   -0.554388
    50  C   -0.155145
    51  C   -0.136461
    52  H    0.133844
    53  H    0.133593
    54  H    0.134433
    55  H    0.147980
    56  H    0.133463
    57  H    0.130978
    58  H    0.133225
    59  H    0.133859
    60  H    0.138200
    61  H    0.141505
    62  H    0.131739
    63  H    0.132486
    64  H    0.146585
    65  H    0.138922
    66  H    0.133142
    67  H    0.136930
    68  H    0.146742
    69  H    0.140551
    70  H    0.133797
    71  H    0.135721
    72  H    0.159005
    73  H    0.155791
    74  H    0.129393
    75  H    0.129243
    76  H    0.129326
    77  H    0.155577
    78  H    0.159981
    79  H    0.134965
 Sum of Mulliken charges =  -0.00000

 Dipole moment (field-independent basis, Debye):
    X=              1.8000    Y=              1.3722    Z=              0.6120  Tot=              2.3447
 Quadrupole moment (field-independent basis, Debye-Ang):
   XX=           -248.3109   YY=           -265.0298   ZZ=           -282.6351
   XY=            -14.7623   XZ=              6.0370   YZ=             -7.6148

 Normal termination of Gaussian 16 at Sat Nov  5 11:16:12 2022.
