 Gaussian 16, Revision B.01,
 Gaussian 16:  ES64L-G16RevB.01 20-Dec-2017

 -----------------------------
 #p b3lyp/6-31g(d) opt SCF=XQC
 -----------------------------

 ------------------------------
 Gaussian input prepared by ASE
 ------------------------------
 Symbolic Z-matrix:
 Charge =  0 Multiplicity = 1

 SCF Done:  E(RB3LYP) =  -2030.80464275     A.U. after   16 cycles
 SCF Done:  E(RB3LYP) =  -2030.81291101     A.U. after   12 cycles
 SCF Done:  E(RB3LYP) =  -2030.81322044     A.U. after   12 cycles
 SCF Done:  E(RB3LYP) =  -2030.81327123     A.U. after   10 cycles
 SCF Done:  E(RB3LYP) =  -2030.81328687     A.U. after   11 cycles
 SCF Done:  E(RB3LYP) =  -2030.81329096     A.U. after   10 cycles
 SCF Done:  E(RB3LYP) =  -2030.81329146     A.U. after    8 cycles
 SCF Done:  E(RB3LYP) =  -2030.81329157     A.U. after    7 cycles
 SCF Done:  E(RB3LYP) =  -2030.81329158     A.U. after    6 cycles
 Optimization completed.
    -- Stationary point found.

                         Standard orientation:
 ---------------------------------------------------------------------
 Center     Atomic      Atomic             Coordinates (Angstroms)
 Number     Number       Type             X           Y           Z
 ---------------------------------------------------------------------
      1          6           0        9.880472   -4.336678    0.882325
      2          6           0        8.544449   -4.458002    1.268624
      3          6           0        7.659990   -3.398655    1.073217
      4          6           0        8.097555   -2.198099    0.491029
      5          6           0        7.172983   -1.056290    0.266166
      6          6           0        5.785987   -1.222882    0.175950
      7          6           0        5.000459   -0.084041   -0.036687
      8          6           0        3.519397   -0.149401   -0.148213
      9          6           0        2.864464   -1.335567   -0.508275
     10          6           0        1.468070   -1.398640   -0.607576
     11          6           0        0.775368   -2.602398   -0.982783
     12          6           0       -0.583074   -2.640313   -1.068864
     13          6           0       -1.383516   -1.477702   -0.791150
     14          6           0       -2.783693   -1.491784   -0.869585
     15          6           0       -3.549909   -0.350516   -0.591781
     16          6           0       -5.031909   -0.394401   -0.739934
     17          6           0       -5.572811   -0.812040   -1.947171
     18          6           0       -6.958623   -0.850232   -2.177943
     19          6           0       -7.818930   -0.458415   -1.174635
     20          6           0       -7.338527   -0.039647    0.092376
     21          6           0       -8.259475    0.334981    1.120945
     22          6           0       -7.762203    0.706719    2.359801
     23          6           0       -6.374960    0.702572    2.603737
     24          6           0       -5.476160    0.351349    1.620371
     25          6           0       -5.921908   -0.016331    0.321071
     26          6           0       -9.691972    0.292725    0.786683
     27          6           0      -10.721520    0.647434    1.676748
     28          6           0      -12.059703    0.587890    1.304142
     29          6           0      -12.408135    0.167158    0.016097
     30          6           0      -11.414477   -0.189797   -0.888504
     31          6           0      -10.075617   -0.124792   -0.499913
     32          8           0       -9.161671   -0.495629   -1.453057
     33          6           0       -2.888904    0.834128   -0.230741
     34          6           0       -1.491719    0.898643   -0.137761
     35          6           0       -0.797750    2.107007    0.222589
     36          6           0        0.560577    2.147126    0.303371
     37          6           0        1.361445    0.982520    0.031519
     38          6           0        2.758961    1.000361    0.108692
     39          6           0        0.698637   -0.229286   -0.329698
     40          6           0       -0.721745   -0.269993   -0.418455
     41          7           0        5.566096    1.130318   -0.134501
     42          6           0        6.903346    1.203314   -0.051042
     43          6           0        7.523365    2.549222   -0.176969
     44          6           0        8.901426    2.720253    0.027618
     45          6           0        9.480600    3.981828   -0.089033
     46          6           0        8.693886    5.089363   -0.414127
     47          6           0        7.321987    4.926905   -0.620863
     48          6           0        6.739338    3.667117   -0.502195
     49          7           0        7.726742    0.160610    0.136842
     50          6           0        9.446653   -2.083033    0.118577
     51          6           0       10.327816   -3.144741    0.307579
     52          1           0       10.569197   -5.163738    1.032564
     53          1           0        8.190663   -5.376253    1.729547
     54          1           0        6.630515   -3.501257    1.403353
     55          1           0        5.334790   -2.202075    0.268097
     56          1           0        3.438795   -2.226067   -0.747735
     57          1           0        1.364169   -3.491107   -1.197207
     58          1           0       -1.090022   -3.559551   -1.352080
     59          1           0       -3.289103   -2.415822   -1.138948
     60          1           0       -4.901725   -1.094096   -2.753561
     61          1           0       -7.362910   -1.166065   -3.133722
     62          1           0       -8.435070    0.993118    3.161021
     63          1           0       -6.011036    0.976394    3.590476
     64          1           0       -4.414375    0.339675    1.837592
     65          1           0      -10.468340    0.977546    2.678919
     66          1           0      -12.830839    0.869051    2.015235
     67          1           0      -13.451339    0.117990   -0.282438
     68          1           0      -11.647821   -0.520190   -1.895521
     69          1           0       -3.471079    1.731438   -0.037800
     70          1           0       -1.387108    2.996649    0.431050
     71          1           0        1.068913    3.068230    0.577203
     72          1           0        3.276029    1.915580    0.376939
     73          1           0        9.503184    1.855070    0.281827
     74          1           0       10.548318    4.101607    0.075124
     75          1           0        9.147166    6.073026   -0.505976
     76          1           0        6.704548    5.784041   -0.876622
     77          1           0        5.676062    3.530468   -0.663624
     78          1           0        9.785281   -1.152499   -0.323198
     79          1           0       11.366719   -3.042276    0.005587
 ---------------------------------------------------------------------

 The electronic state is 1-A.
 Alpha  occ. eigenvalues --  -19.20672 -14.32891 -14.32875 -10.26018 -10.25913
 Alpha  occ. eigenvalues --  -10.25804 -10.24534 -10.24509 -10.21127 -10.20894
 Alpha  occ. eigenvalues --  -10.20874 -10.20702 -10.20450 -10.20391 -10.20349
 Alpha  occ. eigenvalues --  -10.20308 -10.20234 -10.20229 -10.20193 -10.20148
 Alpha  occ. eigenvalues --  -10.20001 -10.20001 -10.19970 -10.19963 -10.19832
 Alpha  occ. eigenvalues --  -10.19807 -10.19744 -10.19696 -10.19668 -10.19610
 Alpha  occ. eigenvalues --  -10.19592 -10.19559 -10.19551 -10.19494 -10.19479
 Alpha  occ. eigenvalues --  -10.19431 -10.19429 -10.19375 -10.19291 -10.19262
 Alpha  occ. eigenvalues --  -10.19219 -10.19183 -10.19155 -10.19119 -10.18902
 Alpha  occ. eigenvalues --  -10.18846 -10.18822 -10.18512 -10.18506 -10.18300
 Alpha  occ. eigenvalues --  -10.18294  -1.09855  -0.98315  -0.89783  -0.89128
 Alpha  occ. eigenvalues --   -0.88196  -0.86871  -0.86073  -0.85292  -0.84879
 Alpha  occ. eigenvalues --   -0.83137  -0.82834  -0.81454  -0.80102  -0.78831
 Alpha  occ. eigenvalues --   -0.77007  -0.76826  -0.75650  -0.75241  -0.74978
 Alpha  occ. eigenvalues --   -0.74865  -0.74551  -0.73908  -0.73753  -0.72908
 Alpha  occ. eigenvalues --   -0.71223  -0.70323  -0.66701  -0.66102  -0.64901
 Alpha  occ. eigenvalues --   -0.64235  -0.63434  -0.62941  -0.62475  -0.61914
 Alpha  occ. eigenvalues --   -0.61203  -0.60638  -0.60164  -0.59708  -0.58702
 Alpha  occ. eigenvalues --   -0.57661  -0.56170  -0.56052  -0.54199  -0.52939
 Alpha  occ. eigenvalues --   -0.52513  -0.52109  -0.51881  -0.51523  -0.51084
 Alpha  occ. eigenvalues --   -0.50773  -0.49743  -0.49385  -0.48615  -0.48375
 Alpha  occ. eigenvalues --   -0.47858  -0.47235  -0.46781  -0.45764  -0.45575
 Alpha  occ. eigenvalues --   -0.45142  -0.44822  -0.44132  -0.44029  -0.43599
 Alpha  occ. eigenvalues --   -0.43521  -0.43408  -0.43174  -0.43066  -0.42750
 Alpha  occ. eigenvalues --   -0.42603  -0.42374  -0.42129  -0.41421  -0.41215
 Alpha  occ. eigenvalues --   -0.40915  -0.40532  -0.40269  -0.39924  -0.39568
 Alpha  occ. eigenvalues --   -0.39113  -0.38858  -0.38332  -0.37826  -0.37573
 Alpha  occ. eigenvalues --   -0.37236  -0.37109  -0.36922  -0.36641  -0.36112
 Alpha  occ. eigenvalues --   -0.35607  -0.35425  -0.34787  -0.34420  -0.34298
 Alpha  occ. eigenvalues --   -0.34180  -0.33603  -0.33133  -0.32850  -0.32521
 Alpha  occ. eigenvalues --   -0.32203  -0.32020  -0.30644  -0.29613  -0.29570
 Alpha  occ. eigenvalues --   -0.28324  -0.27604  -0.26033  -0.25617  -0.25537
 Alpha  occ. eigenvalues --   -0.25023  -0.24710  -0.24529  -0.24389  -0.24357
 Alpha  occ. eigenvalues --   -0.23286  -0.22440  -0.20084  -0.18688
 Alpha virt. eigenvalues --   -0.06344  -0.06024  -0.05099  -0.04785  -0.02646
 Alpha virt. eigenvalues --   -0.01796  -0.01001  -0.00506  -0.00388   0.00491
 Alpha virt. eigenvalues --    0.00630   0.01550   0.01715   0.04294   0.05184

 Mulliken charges:
               1
     1  C   -0.119831
     2  C   -0.139112
     3  C   -0.173298
     4  C    0.092824
     5  C    0.274549
     6  C   -0.215680
     7  C    0.275425
     8  C    0.116697
     9  C   -0.293602
    10  C    0.165417
    11  C   -0.193790
    12  C   -0.196359
    13  C    0.174225
    14  C   -0.285100
    15  C    0.088447
    16  C    0.012574
    17  C   -0.182489
    18  C   -0.205016
    19  C    0.313755
    20  C    0.000663
    21  C    0.140333
    22  C   -0.219811
    23  C   -0.128867
    24  C   -0.210093
    25  C    0.095026
    26  C    0.076598
    27  C   -0.198710
    28  C   -0.134415
    29  C   -0.131474
    30  C   -0.185612
    31  C    0.298552
    32  O   -0.570028
    33  C   -0.289057
    34  C    0.174569
    35  C   -0.197168
    36  C   -0.190801
    37  C    0.170356
    38  C   -0.279492
    39  C   -0.001570
    40  C   -0.016270
    41  N   -0.556287
    42  C    0.443052
    43  C    0.076095
    44  C   -0.161489
    45  C   -0.138965
    46  C   -0.119147
    47  C   -0.139035
    48  C   -0.161565
    49  N   -0.554402
    50  C   -0.155148
    51  C   -0.136461
    52  H    0.133844
    53  H    0.133594
    54  H    0.134432
    55  H    0.147981
    56  H    0.133463
    57  H    0.130978
    58  H    0.133225
    59  H    0.133858
    60  H    0.138200
    61  H    0.141506
    62  H    0.131742
    63  H    0.132487
    64  H    0.146585
    65  H    0.138922
    66  H    0.133141
    67  H    0.136930
    68  H    0.146742
    69  H    0.140551
    70  H    0.133797
    71  H    0.135721
    72  H    0.159007
    73  H    0.155791
    74  H    0.129393
    75  H    0.129243
    76  H    0.129326
    77  H    0.155576
    78  H    0.159981
    79  H    0.134965
 Sum of Mulliken charges =  -0.00000

 Dipole moment (field-independent basis, Debye):
    X=             -1.6924    Y=             -1.3684    Z=              0.8721  Tot=              2.3446
 Quadrupole moment (field-independent basis, Debye-Ang):
   XX=           -247.1238   YY=           -264.9945   ZZ=           -284.3460
   XY=            -14.5596   XZ=             -4.7445   YZ=              4.5067

 Normal termination of Gaussian 16 at Sat Nov  5 02:16:20 2022.
