 Gaussian 16, Revision B.01,
 Gaussian 16:  ES64L-G16RevB.01 20-Dec-2017

 -------------------------------------------------------------------
 #p b3lyp/6-31g(d) 6D 10F nosymm GFInput td=(50-50,nstate=2) SCF=XQC
 -------------------------------------------------------------------

 ------------------------------
 Gaussian input prepared by ASE
 ------------------------------
 Symbolic Z-matrix:
 Charge =  0 Multiplicity = 1

                          Input orientation:
 ---------------------------------------------------------------------
 Center     Atomic      Atomic             Coordinates (Angstroms)
 Number     Number       Type             X           Y           Z
 ---------------------------------------------------------------------
      1          6           0       -2.681135    7.108592    1.325102
      2          6           0       -1.809321    5.885036    1.470151
      3          6           0       -1.194441    5.583641    2.696946
      4          6           0       -0.405729    4.450660    2.843476
      5          6           0       -0.220787    3.562831    1.769557
      6          6           0        0.678837    2.389207    1.983908
      7          8           0        1.533912    2.412694    2.861894
      8          6           0        0.549849    1.154146    1.129676
      9          6           0       -0.670490    0.713909    0.602126
     10          6           0       -0.738444   -0.481401   -0.122758
     11          7           0       -1.990079   -0.923282   -0.655947
     12          6           0       -2.450765   -0.417857   -1.889921
     13          6           0       -1.681301    0.424187   -2.700128
     14          6           0       -2.177611    0.897013   -3.919430
     15          6           0       -3.449880    0.534199   -4.348553
     16          6           0       -4.227287   -0.310762   -3.550262
     17          6           0       -3.733759   -0.780410   -2.341677
     18          8           0       -4.556112   -1.617927   -1.615117
     19          6           0       -4.112279   -2.075985   -0.389656
     20          6           0       -4.980410   -2.885154    0.328718
     21          6           0       -4.602180   -3.389195    1.576967
     22          6           0       -3.349492   -3.069858    2.090279
     23          6           0       -2.475416   -2.253421    1.365479
     24          6           0       -2.841083   -1.744952    0.114948
     25          6           0        0.416047   -1.240187   -0.326416
     26          6           0        1.638907   -0.812494    0.208294
     27          7           0        2.814571   -1.600129    0.003237
     28          6           0        3.201018   -2.567130    0.956209
     29          6           0        2.531322   -2.747775    2.170643
     30          6           0        2.948564   -3.724857    3.080145
     31          6           0        4.043134   -4.533086    2.791575
     32          6           0        4.723506   -4.359576    1.582314
     33          6           0        4.306109   -3.393140    0.678909
     34          8           0        5.017407   -3.292276   -0.501098
     35          6           0        4.689798   -2.280248   -1.381394
     36          6           0        5.486004   -2.146625   -2.509488
     37          6           0        5.208262   -1.153323   -3.453899
     38          6           0        4.130660   -0.298541   -3.247597
     39          6           0        3.331609   -0.430768   -2.107330
     40          6           0        3.594528   -1.424608   -1.158848
     41          6           0        1.700187    0.372619    0.939948
     42          6           0       -0.823051    3.864331    0.538785
     43          6           0       -1.599681    5.013233    0.394955
     44          1           0       -2.240530    7.975667    1.829689
     45          1           0       -3.669502    6.942670    1.773772
     46          1           0       -2.837049    7.368814    0.273619
     47          1           0       -1.334371    6.253157    3.542626
     48          1           0        0.084061    4.230634    3.786531
     49          1           0       -1.581462    1.279645    0.764519
     50          1           0       -0.684371    0.704798   -2.379278
     51          1           0       -1.555473    1.547130   -4.527676
     52          1           0       -3.842229    0.896247   -5.293852
     53          1           0       -5.223790   -0.619948   -3.849809
     54          1           0       -5.949298   -3.108834   -0.106668
     55          1           0       -5.285915   -4.022791    2.133429
     56          1           0       -3.036930   -3.451110    3.057935
     57          1           0       -1.500984   -2.011534    1.774426
     58          1           0        0.365085   -2.163664   -0.894304
     59          1           0        1.681292   -2.118594    2.409081
     60          1           0        2.408285   -3.842093    4.014927
     61          1           0        4.373374   -5.293008    3.493058
     62          1           0        5.581564   -4.969758    1.318202
     63          1           0        6.317504   -2.833508   -2.632493
     64          1           0        5.833426   -1.056846   -4.336214
     65          1           0        3.900026    0.480865   -3.967970
     66          1           0        2.497893    0.244731   -1.952344
     67          1           0        2.639000    0.698306    1.375168
     68          1           0       -0.665646    3.220815   -0.320868
     69          1           0       -2.047459    5.236877   -0.570225
 ---------------------------------------------------------------------

 SCF Done:  E(RB3LYP) =  -1798.87554893     A.U. after   16 cycles

 Excitation energies and oscillator strengths:

 Excited state symmetry could not be determined.
 Excited State   1:      Triplet-?Sym    2.1186 eV  585.21 nm  f=0.0000  <S**2>=2.000
     146 ->147         0.69940
 This state for optimization and/or second-order correction.
 Total Energy, E(TD-HF/TD-DFT) =  -1798.79769033
 Copying the excited state density for this state as the 1-particle RhoCI density.

 Excited state symmetry could not be determined.
 Excited State   2:      Singlet-?Sym    2.1363 eV  580.37 nm  f=0.0010  <S**2>=0.000
     146 ->147         0.70183

 Excited state symmetry could not be determined.
 Excited State   3:      Triplet-?Sym    2.2319 eV  555.51 nm  f=0.0000  <S**2>=2.000
     145 ->147         0.69715

 Excited state symmetry could not be determined.
 Excited State   4:      Singlet-?Sym    2.2562 eV  549.52 nm  f=0.0001  <S**2>=0.000
     145 ->147         0.70231

 Alpha  occ. eigenvalues --  -19.19526 -19.19207 -19.14366 -14.38197 -14.37901
 Alpha  occ. eigenvalues --  -10.28597 -10.25398 -10.25293 -10.25278 -10.25169
 Alpha  occ. eigenvalues --  -10.25057 -10.24994 -10.24300 -10.24170 -10.23964
 Alpha  occ. eigenvalues --  -10.23892 -10.22303 -10.22145 -10.22043 -10.21675
 Alpha  occ. eigenvalues --  -10.21607 -10.20883 -10.20762 -10.20273 -10.20161
 Alpha  occ. eigenvalues --  -10.20015 -10.19618 -10.19442 -10.19243 -10.19141
 Alpha  occ. eigenvalues --  -10.19107 -10.19093 -10.19019 -10.18962 -10.18916
 Alpha  occ. eigenvalues --  -10.18906 -10.18806 -10.18764 -10.18757 -10.18735
 Alpha  occ. eigenvalues --  -10.18636 -10.18579 -10.18486  -1.08821  -1.08498
 Alpha  occ. eigenvalues --   -1.04340  -0.98139  -0.97557  -0.87936  -0.87033
 Alpha  occ. eigenvalues --   -0.86832  -0.86519  -0.83980  -0.83505  -0.79770
 Alpha  occ. eigenvalues --   -0.78124  -0.77899  -0.76911  -0.76593  -0.76092
 Alpha  occ. eigenvalues --   -0.75785  -0.75765  -0.73520  -0.73217  -0.71386
 Alpha  occ. eigenvalues --   -0.71229  -0.70657  -0.66215  -0.65668  -0.64871
 Alpha  occ. eigenvalues --   -0.64559  -0.64451  -0.62041  -0.60597  -0.60375
 Alpha  occ. eigenvalues --   -0.60068  -0.59769  -0.57394  -0.57151  -0.57057
 Alpha  occ. eigenvalues --   -0.56453  -0.56183  -0.54415  -0.51740  -0.51383
 Alpha  occ. eigenvalues --   -0.51068  -0.50061  -0.49787  -0.49706  -0.47998
 Alpha  occ. eigenvalues --   -0.47695  -0.47103  -0.47042  -0.46783  -0.46749
 Alpha  occ. eigenvalues --   -0.46558  -0.46501  -0.45448  -0.44848  -0.44459
 Alpha  occ. eigenvalues --   -0.43979  -0.43711  -0.43502  -0.43410  -0.43312
 Alpha  occ. eigenvalues --   -0.43257  -0.43206  -0.43146  -0.42790  -0.41033
 Alpha  occ. eigenvalues --   -0.40282  -0.39291  -0.39253  -0.39018  -0.38704
 Alpha  occ. eigenvalues --   -0.38212  -0.38126  -0.37910  -0.37411  -0.37087
 Alpha  occ. eigenvalues --   -0.37048  -0.36617  -0.36286  -0.36112  -0.36027
 Alpha  occ. eigenvalues --   -0.35871  -0.35730  -0.35431  -0.34930  -0.33740
 Alpha  occ. eigenvalues --   -0.33268  -0.32116  -0.31714  -0.28187  -0.27972
 Alpha  occ. eigenvalues --   -0.26504  -0.26203  -0.25891  -0.25866  -0.25578
 Alpha  occ. eigenvalues --   -0.25547  -0.25181  -0.23056  -0.22739  -0.17881
 Alpha  occ. eigenvalues --   -0.17437
 Alpha virt. eigenvalues --   -0.07614  -0.03864  -0.02939  -0.01365  -0.01197
 Alpha virt. eigenvalues --   -0.00906  -0.00043   0.00203   0.00305   0.00556
 Alpha virt. eigenvalues --    0.03527   0.03834   0.04164   0.06656   0.08646

 Mulliken charges:
               1
     1  C   -0.532267
     2  C    0.185942
     3  C   -0.181770
     4  C   -0.149123
     5  C    0.070976
     6  C    0.325119
     7  O   -0.460547
     8  C    0.051353
     9  C   -0.167957
    10  C    0.189852
    11  N   -0.725919
    12  C    0.344898
    13  C   -0.205043
    14  C   -0.136513
    15  C   -0.135914
    16  C   -0.203553
    17  C    0.322504
    18  O   -0.581983
    19  C    0.321783
    20  C   -0.203381
    21  C   -0.135414
    22  C   -0.135679
    23  C   -0.200918
    24  C    0.343993
    25  C   -0.122170
    26  C    0.194652
    27  N   -0.729645
    28  C    0.345310
    29  C   -0.200125
    30  C   -0.135380
    31  C   -0.135381
    32  C   -0.203144
    33  C    0.322071
    34  O   -0.582142
    35  C    0.322871
    36  C   -0.203262
    37  C   -0.135612
    38  C   -0.135388
    39  C   -0.200013
    40  C    0.345569
    41  C   -0.151291
    42  C   -0.177658
    43  C   -0.188671
    44  H    0.166228
    45  H    0.173406
    46  H    0.161622
    47  H    0.133424
    48  H    0.162026
    49  H    0.169242
    50  H    0.139626
    51  H    0.128274
    52  H    0.130174
    53  H    0.144308
    54  H    0.143797
    55  H    0.130513
    56  H    0.130603
    57  H    0.142872
    58  H    0.169156
    59  H    0.143023
    60  H    0.129341
    61  H    0.129636
    62  H    0.143304
    63  H    0.143627
    64  H    0.129547
    65  H    0.127547
    66  H    0.136748
    67  H    0.178839
    68  H    0.148215
    69  H    0.133871
 Sum of Mulliken charges =  -0.00000

 Dipole moment (field-independent basis, Debye):
    X=             -2.4543    Y=              2.7420    Z=             -0.6432  Tot=              3.7357
 Quadrupole moment (field-independent basis, Debye-Ang):
   XX=           -246.6241   YY=           -225.1963   ZZ=           -235.8340
   XY=            -10.6989   XZ=             -8.4780   YZ=             -8.9183

 Normal termination of Gaussian 16 at Sat Nov  5 11:18:41 2022.
