 Gaussian 16, Revision B.01,
 Gaussian 16:  ES64L-G16RevB.01 20-Dec-2017

 -----------------------------
 #p b3lyp/6-31g(d) opt SCF=XQC
 -----------------------------

 ------------------------------
 Gaussian input prepared by ASE
 ------------------------------
 Symbolic Z-matrix:
 Charge =  0 Multiplicity = 1

 SCF Done:  E(RB3LYP) =  -1798.86518971     A.U. after   16 cycles
 SCF Done:  E(RB3LYP) =  -1798.87370559     A.U. after   13 cycles
 SCF Done:  E(RB3LYP) =  -1798.87417601     A.U. after   14 cycles
 SCF Done:  E(RB3LYP) =  -1798.87502138     A.U. after   12 cycles
 SCF Done:  E(RB3LYP) =  -1798.87522733     A.U. after   12 cycles
 SCF Done:  E(RB3LYP) =  -1798.87505876     A.U. after   14 cycles
 SCF Done:  E(RB3LYP) =  -1798.87541257     A.U. after   12 cycles
 SCF Done:  E(RB3LYP) =  -1798.87544205     A.U. after   10 cycles
 SCF Done:  E(RB3LYP) =  -1798.87547020     A.U. after   11 cycles
 SCF Done:  E(RB3LYP) =  -1798.87547570     A.U. after   11 cycles
 SCF Done:  E(RB3LYP) =  -1798.87554110     A.U. after   11 cycles
 SCF Done:  E(RB3LYP) =  -1798.87554768     A.U. after   10 cycles
 SCF Done:  E(RB3LYP) =  -1798.87554716     A.U. after   10 cycles
 SCF Done:  E(RB3LYP) =  -1798.87554857     A.U. after    9 cycles
 SCF Done:  E(RB3LYP) =  -1798.87554956     A.U. after    9 cycles
 SCF Done:  E(RB3LYP) =  -1798.87554985     A.U. after    9 cycles
 SCF Done:  E(RB3LYP) =  -1798.87554987     A.U. after    8 cycles
 SCF Done:  E(RB3LYP) =  -1798.87554989     A.U. after    6 cycles
 SCF Done:  E(RB3LYP) =  -1798.87554992     A.U. after    7 cycles
 SCF Done:  E(RB3LYP) =  -1798.87554995     A.U. after    6 cycles
 Optimization completed on the basis of negligible forces.
    -- Stationary point found.

                         Standard orientation:
 ---------------------------------------------------------------------
 Center     Atomic      Atomic             Coordinates (Angstroms)
 Number     Number       Type             X           Y           Z
 ---------------------------------------------------------------------
      1          6           0        6.704071    4.292395    0.039346
      2          6           0        5.270002    3.921742   -0.250911
      3          6           0        4.618655    4.415452   -1.393688
      4          6           0        3.305667    4.064960   -1.677236
      5          6           0        2.601071    3.186661   -0.835879
      6          6           0        1.176467    2.890406   -1.175580
      7          8           0        0.526780    3.667450   -1.865998
      8          6           0        0.512996    1.630695   -0.680949
      9          6           0        1.204309    0.428168   -0.487658
     10          6           0        0.518726   -0.727696   -0.096770
     11          7           0        1.233768   -1.951454    0.096282
     12          6           0        1.886926   -2.202889    1.321249
     13          6           0        1.776225   -1.354854    2.428556
     14          6           0        2.438027   -1.647454    3.625631
     15          6           0        3.219257   -2.792951    3.735008
     16          6           0        3.334289   -3.651350    2.637051
     17          6           0        2.676455   -3.361136    1.450523
     18          8           0        2.830507   -4.261355    0.415409
     19          6           0        2.219417   -3.986527   -0.792728
     20          6           0        2.426904   -4.894562   -1.820780
     21          6           0        1.840217   -4.686175   -3.072823
     22          6           0        1.049407   -3.560192   -3.276480
     23          6           0        0.841526   -2.645079   -2.239530
     24          6           0        1.420909   -2.843436   -0.982131
     25          6           0       -0.862205   -0.684465    0.106319
     26          6           0       -1.563039    0.512173   -0.096440
     27          7           0       -2.978350    0.545606    0.104513
     28          6           0       -3.858199    0.322266   -0.976492
     29          6           0       -3.417400    0.151136   -2.292693
     30          6           0       -4.328515   -0.074578   -3.329466
     31          6           0       -5.693396   -0.128780   -3.067261
     32          6           0       -6.146924    0.044737   -1.755954
     33          6           0       -5.242069    0.264116   -0.727620
     34          8           0       -5.763880    0.409501    0.543251
     35          6           0       -4.902107    0.722702    1.575578
     36          6           0       -5.470477    0.957839    2.818986
     37          6           0       -4.660692    1.267231    3.916358
     38          6           0       -3.282254    1.342306    3.746910
     39          6           0       -2.710581    1.110141    2.491735
     40          6           0       -3.508872    0.792859    1.387865
     41          6           0       -0.878260    1.658421   -0.497389
     42          6           0        3.242411    2.699249    0.312831
     43          6           0        4.555555    3.069635    0.599686
     44          1           0        6.890691    5.353796   -0.158541
     45          1           0        7.394200    3.720292   -0.594787
     46          1           0        6.969167    4.088025    1.081267
     47          1           0        5.150942    5.088059   -2.062477
     48          1           0        2.798487    4.463318   -2.550012
     49          1           0        2.273894    0.369636   -0.657544
     50          1           0        1.161574   -0.464578    2.356674
     51          1           0        2.330585   -0.971187    4.468716
     52          1           0        3.735588   -3.027647    4.660711
     53          1           0        3.931549   -4.556683    2.681705
     54          1           0        3.052126   -5.759143   -1.620937
     55          1           0        2.005736   -5.401288   -3.872700
     56          1           0        0.585026   -3.380148   -4.241540
     57          1           0        0.222565   -1.771286   -2.408758
     58          1           0       -1.393223   -1.578879    0.416075
     59          1           0       -2.356293    0.198598   -2.509649
     60          1           0       -3.956274   -0.204353   -4.341424
     61          1           0       -6.406654   -0.302702   -3.867033
     62          1           0       -7.203245    0.008767   -1.508507
     63          1           0       -6.550154    0.889934    2.908526
     64          1           0       -5.112047    1.446494    4.887316
     65          1           0       -2.636440    1.583721    4.586103
     66          1           0       -1.635560    1.177567    2.368500
     67          1           0       -1.417525    2.582369   -0.677312
     68          1           0        2.711869    2.052398    1.004208
     69          1           0        5.031260    2.692102    1.501500
 ---------------------------------------------------------------------

 The electronic state is 1-A.
 Alpha  occ. eigenvalues --  -19.19526 -19.19207 -19.14366 -14.38197 -14.37901
 Alpha  occ. eigenvalues --  -10.28597 -10.25398 -10.25293 -10.25278 -10.25169
 Alpha  occ. eigenvalues --  -10.25057 -10.24994 -10.24300 -10.24170 -10.23964
 Alpha  occ. eigenvalues --  -10.23892 -10.22303 -10.22145 -10.22043 -10.21675
 Alpha  occ. eigenvalues --  -10.21607 -10.20883 -10.20762 -10.20273 -10.20161
 Alpha  occ. eigenvalues --  -10.20015 -10.19618 -10.19441 -10.19243 -10.19141
 Alpha  occ. eigenvalues --  -10.19107 -10.19093 -10.19019 -10.18962 -10.18916
 Alpha  occ. eigenvalues --  -10.18906 -10.18806 -10.18764 -10.18757 -10.18735
 Alpha  occ. eigenvalues --  -10.18636 -10.18579 -10.18486  -1.08821  -1.08498
 Alpha  occ. eigenvalues --   -1.04340  -0.98139  -0.97557  -0.87936  -0.87033
 Alpha  occ. eigenvalues --   -0.86832  -0.86519  -0.83980  -0.83505  -0.79770
 Alpha  occ. eigenvalues --   -0.78124  -0.77899  -0.76911  -0.76593  -0.76092
 Alpha  occ. eigenvalues --   -0.75785  -0.75765  -0.73520  -0.73217  -0.71386
 Alpha  occ. eigenvalues --   -0.71229  -0.70657  -0.66215  -0.65668  -0.64871
 Alpha  occ. eigenvalues --   -0.64559  -0.64451  -0.62041  -0.60597  -0.60375
 Alpha  occ. eigenvalues --   -0.60068  -0.59769  -0.57394  -0.57151  -0.57057
 Alpha  occ. eigenvalues --   -0.56453  -0.56183  -0.54415  -0.51740  -0.51383
 Alpha  occ. eigenvalues --   -0.51068  -0.50061  -0.49787  -0.49706  -0.47998
 Alpha  occ. eigenvalues --   -0.47695  -0.47103  -0.47042  -0.46783  -0.46749
 Alpha  occ. eigenvalues --   -0.46558  -0.46501  -0.45448  -0.44848  -0.44459
 Alpha  occ. eigenvalues --   -0.43979  -0.43711  -0.43502  -0.43410  -0.43312
 Alpha  occ. eigenvalues --   -0.43257  -0.43206  -0.43146  -0.42790  -0.41033
 Alpha  occ. eigenvalues --   -0.40282  -0.39291  -0.39253  -0.39018  -0.38704
 Alpha  occ. eigenvalues --   -0.38211  -0.38126  -0.37910  -0.37411  -0.37087
 Alpha  occ. eigenvalues --   -0.37048  -0.36617  -0.36286  -0.36112  -0.36027
 Alpha  occ. eigenvalues --   -0.35871  -0.35730  -0.35431  -0.34930  -0.33740
 Alpha  occ. eigenvalues --   -0.33268  -0.32116  -0.31714  -0.28187  -0.27972
 Alpha  occ. eigenvalues --   -0.26504  -0.26203  -0.25891  -0.25866  -0.25578
 Alpha  occ. eigenvalues --   -0.25547  -0.25181  -0.23056  -0.22739  -0.17881
 Alpha  occ. eigenvalues --   -0.17437
 Alpha virt. eigenvalues --   -0.07614  -0.03864  -0.02939  -0.01365  -0.01197
 Alpha virt. eigenvalues --   -0.00906  -0.00043   0.00203   0.00305   0.00556
 Alpha virt. eigenvalues --    0.03527   0.03834   0.04164   0.06656   0.08646

 Mulliken charges:
               1
     1  C   -0.532267
     2  C    0.185947
     3  C   -0.181768
     4  C   -0.149133
     5  C    0.070984
     6  C    0.325116
     7  O   -0.460547
     8  C    0.051347
     9  C   -0.167945
    10  C    0.189840
    11  N   -0.725913
    12  C    0.344865
    13  C   -0.205050
    14  C   -0.136502
    15  C   -0.135914
    16  C   -0.203559
    17  C    0.322546
    18  O   -0.581997
    19  C    0.321787
    20  C   -0.203380
    21  C   -0.135420
    22  C   -0.135683
    23  C   -0.200897
    24  C    0.343991
    25  C   -0.122180
    26  C    0.194632
    27  N   -0.729653
    28  C    0.345320
    29  C   -0.200129
    30  C   -0.135384
    31  C   -0.135372
    32  C   -0.203145
    33  C    0.322076
    34  O   -0.582143
    35  C    0.322880
    36  C   -0.203260
    37  C   -0.135614
    38  C   -0.135391
    39  C   -0.200021
    40  C    0.345576
    41  C   -0.151275
    42  C   -0.177648
    43  C   -0.188681
    44  H    0.166229
    45  H    0.173406
    46  H    0.161622
    47  H    0.133423
    48  H    0.162026
    49  H    0.169242
    50  H    0.139628
    51  H    0.128273
    52  H    0.130173
    53  H    0.144308
    54  H    0.143797
    55  H    0.130515
    56  H    0.130603
    57  H    0.142873
    58  H    0.169157
    59  H    0.143021
    60  H    0.129341
    61  H    0.129635
    62  H    0.143303
    63  H    0.143626
    64  H    0.129548
    65  H    0.127548
    66  H    0.136749
    67  H    0.178837
    68  H    0.148205
    69  H    0.133876
 Sum of Mulliken charges =  -0.00000

 Dipole moment (field-independent basis, Debye):
    X=              3.6057    Y=              0.4438    Z=              0.8708  Tot=              3.7358
 Quadrupole moment (field-independent basis, Debye-Ang):
   XX=           -226.6586   YY=           -249.7300   ZZ=           -229.4825
   XY=             13.1661   XZ=              2.9754   YZ=              8.2522

 Normal termination of Gaussian 16 at Sat Nov  5 04:10:44 2022.
