 Gaussian 16, Revision B.01,
 Gaussian 16:  ES64L-G16RevB.01 20-Dec-2017

 -------------------------------------------------------------------
 #p b3lyp/6-31g(d) 6D 10F nosymm GFInput td=(50-50,nstate=2) SCF=XQC
 -------------------------------------------------------------------

 ------------------------------
 Gaussian input prepared by ASE
 ------------------------------
 Symbolic Z-matrix:
 Charge =  0 Multiplicity = 1

                          Input orientation:
 ---------------------------------------------------------------------
 Center     Atomic      Atomic             Coordinates (Angstroms)
 Number     Number       Type             X           Y           Z
 ---------------------------------------------------------------------
      1          6           0       -0.077911   -0.338541   -5.897599
      2          6           0       -0.460203    0.757608   -4.876465
      3          6           0        0.032090    2.134634   -5.374106
      4          6           0       -1.960570    0.766093   -4.604694
      5          6           0       -2.992036    1.038268   -5.494896
      6          6           0       -4.314564    1.014099   -5.037614
      7          6           0       -4.590191    0.722215   -3.699152
      8          6           0       -3.559507    0.443538   -2.798369
      9          6           0       -2.236479    0.460816   -3.253887
     10          6           0       -0.956916    0.237763   -2.562631
     11          6           0       -0.628819   -0.070722   -1.230371
     12          7           0       -1.626149   -0.303664   -0.226012
     13          6           0       -1.527954    0.463434    0.969233
     14          6           0       -1.370778    1.855958    0.883973
     15          6           0       -1.223514    2.624464    2.033166
     16          6           0       -1.241535    2.042873    3.312802
     17          6           0       -1.076356    2.865700    4.536976
     18          6           0       -1.634048    4.153173    4.627114
     19          6           0       -1.473898    4.927249    5.775342
     20          6           0       -0.754598    4.431621    6.864563
     21          6           0       -0.195951    3.153949    6.792320
     22          6           0       -0.353113    2.381457    5.641667
     23          6           0       -1.414279    0.650580    3.385662
     24          6           0       -1.546793   -0.129765    2.241073
     25          6           0       -2.412313   -1.479739   -0.279524
     26          6           0       -3.653242   -1.542529    0.381820
     27          6           0       -4.437297   -2.687685    0.312360
     28          6           0       -4.037278   -3.813578   -0.428478
     29          6           0       -4.882522   -5.030359   -0.504328
     30          6           0       -4.306388   -6.312634   -0.527141
     31          6           0       -5.099943   -7.456343   -0.600177
     32          6           0       -6.490904   -7.346543   -0.648082
     33          6           0       -7.078965   -6.080547   -0.624301
     34          6           0       -6.284445   -4.937266   -0.555240
     35          6           0       -2.804057   -3.734197   -1.094337
     36          6           0       -2.001839   -2.599363   -1.020692
     37          6           0        0.719000   -0.159354   -0.862455
     38          6           0        1.752911    0.078242   -1.779698
     39          7           0        3.106413    0.023071   -1.359252
     40          6           0        4.097001   -0.544330   -2.208126
     41          6           0        3.842065   -1.735713   -2.906034
     42          6           0        4.813763   -2.282085   -3.742437
     43          6           0        6.058276   -1.664351   -3.883575
     44          6           0        6.318069   -0.484609   -3.182722
     45          6           0        5.346129    0.079000   -2.358278
     46          6           0        3.474279    0.529558   -0.083018
     47          6           0        4.390906   -0.158445    0.727535
     48          6           0        4.737636    0.338147    1.979962
     49          6           0        4.175905    1.524145    2.482954
     50          6           0        4.524140    2.036427    3.830533
     51          6           0        5.829685    1.918214    4.338275
     52          6           0        6.152738    2.399137    5.606296
     53          6           0        5.178299    3.012868    6.395916
     54          6           0        3.877068    3.138099    5.905455
     55          6           0        3.553524    2.653995    4.638996
     56          6           0        3.261044    2.203821    1.660412
     57          6           0        2.922207    1.726795    0.399712
     58          6           0        1.424462    0.367550   -3.117806
     59          6           0        0.091428    0.430488   -3.490240
     60          1           0       -0.421726   -1.323278   -5.565098
     61          1           0        1.009132   -0.381646   -6.032336
     62          1           0       -0.531464   -0.130891   -6.873644
     63          1           0       -0.225696    2.925851   -4.662836
     64          1           0       -0.424365    2.381600   -6.339477
     65          1           0        1.120023    2.134751   -5.508115
     66          1           0       -2.780136    1.271995   -6.535876
     67          1           0       -5.128876    1.225186   -5.725705
     68          1           0       -5.619929    0.708511   -3.351639
     69          1           0       -3.791080    0.215642   -1.765312
     70          1           0       -1.353999    2.328637   -0.093263
     71          1           0       -1.076530    3.696455    1.934416
     72          1           0       -2.220478    4.539431    3.797982
     73          1           0       -1.921403    5.916678    5.822775
     74          1           0       -0.632508    5.033839    7.760760
     75          1           0        0.369110    2.756799    7.631756
     76          1           0        0.109333    1.399813    5.588655
     77          1           0       -1.451723    0.166281    4.357431
     78          1           0       -1.667332   -1.204230    2.332014
     79          1           0       -3.996429   -0.690542    0.959897
     80          1           0       -5.376822   -2.712187    0.857527
     81          1           0       -3.226482   -6.412909   -0.460947
     82          1           0       -4.630024   -8.436540   -0.609322
     83          1           0       -7.109930   -8.237943   -0.703358
     84          1           0       -8.160492   -5.981109   -0.669992
     85          1           0       -6.753548   -3.957272   -0.567287
     86          1           0       -2.467870   -4.572792   -1.697865
     87          1           0       -1.054070   -2.576882   -1.547181
     88          1           0        0.962578   -0.409592    0.163896
     89          1           0        2.881768   -2.227494   -2.787297
     90          1           0        4.599798   -3.205280   -4.274737
     91          1           0        6.815904   -2.096986   -4.530695
     92          1           0        7.279612    0.011210   -3.287351
     93          1           0        5.547287    1.003159   -1.825796
     94          1           0        4.818541   -1.092544    0.377305
     95          1           0        5.425100   -0.231857    2.598872
     96          1           0        6.603471    1.468761    3.721770
     97          1           0        7.171218    2.303052    5.973971
     98          1           0        5.431103    3.389424    7.383527
     99          1           0        3.104092    3.604529    6.510736
    100          1           0        2.529368    2.730771    4.284920
    101          1           0        2.831120    3.141520    2.000501
    102          1           0        2.224721    2.281927   -0.219013
    103          1           0        2.215946    0.553466   -3.836951
 ---------------------------------------------------------------------

 SCF Done:  E(RB3LYP) =  -2308.11882897     A.U. after   16 cycles

 Excitation energies and oscillator strengths:

 Excited state symmetry could not be determined.
 Excited State   1:      Triplet-?Sym    2.6038 eV  476.17 nm  f=0.0000  <S**2>=2.000
     198 ->201         0.15192
     200 ->201         0.60413
     200 ->202         0.13489
 This state for optimization and/or second-order correction.
 Total Energy, E(TD-HF/TD-DFT) =  -2308.02314162
 Copying the excited state density for this state as the 1-particle RhoCI density.

 Excited state symmetry could not be determined.
 Excited State   2:      Triplet-?Sym    2.8357 eV  437.23 nm  f=0.0000  <S**2>=2.000
     197 ->205        -0.12500
     199 ->201        -0.21006
     199 ->202         0.44173
     199 ->203         0.13221
     200 ->202         0.34840

 Excited state symmetry could not be determined.
 Excited State   3:      Singlet-?Sym    3.3392 eV  371.30 nm  f=0.3991  <S**2>=0.000
     199 ->201         0.21340
     200 ->201         0.66296

 Excited state symmetry could not be determined.
 Excited State   4:      Singlet-?Sym    3.4179 eV  362.75 nm  f=0.2165  <S**2>=0.000
     199 ->201         0.64543
     200 ->201        -0.20917
     200 ->202        -0.14332

 Alpha  occ. eigenvalues --  -14.36716 -14.36430 -10.23275 -10.23080 -10.22950
 Alpha  occ. eigenvalues --  -10.22940 -10.22876 -10.22855 -10.20565 -10.19925
 Alpha  occ. eigenvalues --  -10.19589 -10.19418 -10.19391 -10.19299 -10.19250
 Alpha  occ. eigenvalues --  -10.19241 -10.19225 -10.19180 -10.19082 -10.19076
 Alpha  occ. eigenvalues --  -10.19052 -10.19046 -10.19033 -10.18972 -10.18954
 Alpha  occ. eigenvalues --  -10.18951 -10.18929 -10.18891 -10.18886 -10.18855
 Alpha  occ. eigenvalues --  -10.18836 -10.18822 -10.18821 -10.18759 -10.18753
 Alpha  occ. eigenvalues --  -10.18752 -10.18719 -10.18707 -10.18684 -10.18658
 Alpha  occ. eigenvalues --  -10.18589 -10.18580 -10.18576 -10.18495 -10.18478
 Alpha  occ. eigenvalues --  -10.18463 -10.18445 -10.18432 -10.18417 -10.18402
 Alpha  occ. eigenvalues --  -10.18399 -10.18398 -10.18378 -10.18354 -10.18237
 Alpha  occ. eigenvalues --  -10.18202 -10.18060 -10.17953 -10.17949  -0.96700
 Alpha  occ. eigenvalues --   -0.96193  -0.88401  -0.86491  -0.86163  -0.85935
 Alpha  occ. eigenvalues --   -0.85100  -0.84395  -0.84270  -0.83546  -0.82859
 Alpha  occ. eigenvalues --   -0.80635  -0.77868  -0.77622  -0.76845  -0.76387
 Alpha  occ. eigenvalues --   -0.74940  -0.74772  -0.74660  -0.74574  -0.74147
 Alpha  occ. eigenvalues --   -0.74067  -0.73835  -0.73612  -0.73537  -0.72727
 Alpha  occ. eigenvalues --   -0.72218  -0.71778  -0.69921  -0.69029  -0.68645
 Alpha  occ. eigenvalues --   -0.64733  -0.63562  -0.63059  -0.62607  -0.62410
 Alpha  occ. eigenvalues --   -0.61548  -0.61250  -0.60866  -0.60474  -0.59399
 Alpha  occ. eigenvalues --   -0.59185  -0.58968  -0.58661  -0.58441  -0.57796
 Alpha  occ. eigenvalues --   -0.57585  -0.56986  -0.55959  -0.55084  -0.53539
 Alpha  occ. eigenvalues --   -0.53409  -0.52547  -0.52160  -0.51349  -0.51136
 Alpha  occ. eigenvalues --   -0.50704  -0.49441  -0.48748  -0.47839  -0.47706
 Alpha  occ. eigenvalues --   -0.47358  -0.47282  -0.46413  -0.46153  -0.45952
 Alpha  occ. eigenvalues --   -0.45477  -0.44799  -0.44495  -0.44277  -0.44183
 Alpha  occ. eigenvalues --   -0.43861  -0.43768  -0.43733  -0.43696  -0.43555
 Alpha  occ. eigenvalues --   -0.43041  -0.42861  -0.42779  -0.42583  -0.42359
 Alpha  occ. eigenvalues --   -0.42336  -0.42289  -0.42216  -0.42059  -0.41953
 Alpha  occ. eigenvalues --   -0.41560  -0.41509  -0.41163  -0.41154  -0.39125
 Alpha  occ. eigenvalues --   -0.39017  -0.38743  -0.38273  -0.38108  -0.37720
 Alpha  occ. eigenvalues --   -0.37540  -0.37445  -0.37295  -0.37111  -0.36968
 Alpha  occ. eigenvalues --   -0.36195  -0.35966  -0.35809  -0.35705  -0.35516
 Alpha  occ. eigenvalues --   -0.35258  -0.35088  -0.34856  -0.34732  -0.34491
 Alpha  occ. eigenvalues --   -0.34227  -0.34087  -0.33860  -0.33579  -0.33536
 Alpha  occ. eigenvalues --   -0.33343  -0.33109  -0.32961  -0.32216  -0.31576
 Alpha  occ. eigenvalues --   -0.30956  -0.30272  -0.28036  -0.27584  -0.26735
 Alpha  occ. eigenvalues --   -0.26089  -0.25323  -0.25151  -0.25036  -0.24814
 Alpha  occ. eigenvalues --   -0.24667  -0.24518  -0.24451  -0.24245  -0.23834
 Alpha  occ. eigenvalues --   -0.23455  -0.22329  -0.21968  -0.18460  -0.17632
 Alpha virt. eigenvalues --   -0.03705  -0.03068  -0.02575  -0.02078  -0.01102
 Alpha virt. eigenvalues --   -0.00730  -0.00205   0.00000   0.00281   0.00382
 Alpha virt. eigenvalues --    0.00474   0.00673   0.00785   0.01201   0.02656

 Mulliken charges:
               1
     1  C   -0.437068
     2  C   -0.065161
     3  C   -0.438316
     4  C    0.107003
     5  C   -0.208133
     6  C   -0.130006
     7  C   -0.144610
     8  C   -0.183276
     9  C    0.081416
    10  C    0.071632
    11  C    0.175251
    12  N   -0.666168
    13  C    0.279020
    14  C   -0.165025
    15  C   -0.188035
    16  C    0.097109
    17  C    0.085392
    18  C   -0.174524
    19  C   -0.133124
    20  C   -0.128835
    21  C   -0.137493
    22  C   -0.178364
    23  C   -0.188864
    24  C   -0.174139
    25  C    0.318591
    26  C   -0.180326
    27  C   -0.185974
    28  C    0.094942
    29  C    0.090683
    30  C   -0.175161
    31  C   -0.133731
    32  C   -0.128072
    33  C   -0.133698
    34  C   -0.174929
    35  C   -0.186234
    36  C   -0.185336
    37  C   -0.222982
    38  C    0.304228
    39  N   -0.664043
    40  C    0.276393
    41  C   -0.161252
    42  C   -0.140451
    43  C   -0.128129
    44  C   -0.140355
    45  C   -0.161922
    46  C    0.283256
    47  C   -0.170397
    48  C   -0.188379
    49  C    0.094868
    50  C    0.088779
    51  C   -0.175048
    52  C   -0.134138
    53  C   -0.127874
    54  C   -0.139897
    55  C   -0.184055
    56  C   -0.184852
    57  C   -0.165823
    58  C   -0.254596
    59  C    0.084764
    60  H    0.155657
    61  H    0.146405
    62  H    0.145408
    63  H    0.155593
    64  H    0.145172
    65  H    0.145381
    66  H    0.121644
    67  H    0.124888
    68  H    0.126273
    69  H    0.149683
    70  H    0.144098
    71  H    0.132973
    72  H    0.132320
    73  H    0.130828
    74  H    0.129644
    75  H    0.132865
    76  H    0.138271
    77  H    0.135616
    78  H    0.148608
    79  H    0.144937
    80  H    0.133121
    81  H    0.129495
    82  H    0.128139
    83  H    0.127313
    84  H    0.128262
    85  H    0.129885
    86  H    0.132597
    87  H    0.142795
    88  H    0.155993
    89  H    0.141769
    90  H    0.132030
    91  H    0.128651
    92  H    0.132570
    93  H    0.145473
    94  H    0.144234
    95  H    0.133946
    96  H    0.128751
    97  H    0.127710
    98  H    0.126380
    99  H    0.133253
   100  H    0.144386
   101  H    0.137698
   102  H    0.143067
   103  H    0.141684
 Sum of Mulliken charges =  -0.00000

 Dipole moment (field-independent basis, Debye):
    X=              0.9033    Y=              0.2936    Z=             -0.6017  Tot=              1.1244
 Quadrupole moment (field-independent basis, Debye-Ang):
   XX=           -322.5134   YY=           -325.7591   ZZ=           -317.9703
   XY=             -5.8485   XZ=             -2.9420   YZ=              5.9575

 Normal termination of Gaussian 16 at Sat Nov  5 12:07:52 2022.
