 Gaussian 16, Revision B.01,
 Gaussian 16:  ES64L-G16RevB.01 20-Dec-2017

 -----------------------------
 #p b3lyp/6-31g(d) opt SCF=XQC
 -----------------------------

 ------------------------------
 Gaussian input prepared by ASE
 ------------------------------
 Symbolic Z-matrix:
 Charge =  0 Multiplicity = 1

 SCF Done:  E(RB3LYP) =  -2308.09882448     A.U. after   16 cycles
 SCF Done:  E(RB3LYP) =  -2308.10792685     A.U. after   13 cycles
 SCF Done:  E(RB3LYP) =  -2308.11354477     A.U. after   14 cycles
 SCF Done:  E(RB3LYP) =  -2308.11730754     A.U. after   13 cycles
 SCF Done:  E(RB3LYP) =  -2308.11784966     A.U. after   12 cycles
 SCF Done:  E(RB3LYP) =  -2308.11823438     A.U. after   11 cycles
 SCF Done:  E(RB3LYP) =  -2308.11848598     A.U. after   12 cycles
 SCF Done:  E(RB3LYP) =  -2308.11855056     A.U. after   12 cycles
 SCF Done:  E(RB3LYP) =  -2308.11865610     A.U. after   12 cycles
 SCF Done:  E(RB3LYP) =  -2308.11868801     A.U. after   10 cycles
 SCF Done:  E(RB3LYP) =  -2308.11880462     A.U. after   11 cycles
 SCF Done:  E(RB3LYP) =  -2308.11882284     A.U. after   10 cycles
 SCF Done:  E(RB3LYP) =  -2308.11882294     A.U. after   10 cycles
 SCF Done:  E(RB3LYP) =  -2308.11882739     A.U. after    9 cycles
 SCF Done:  E(RB3LYP) =  -2308.11882753     A.U. after    7 cycles
 SCF Done:  E(RB3LYP) =  -2308.11882794     A.U. after    7 cycles
 SCF Done:  E(RB3LYP) =  -2308.11882803     A.U. after    6 cycles
 Optimization completed.
    -- Stationary point found.

                         Standard orientation:
 ---------------------------------------------------------------------
 Center     Atomic      Atomic             Coordinates (Angstroms)
 Number     Number       Type             X           Y           Z
 ---------------------------------------------------------------------
      1          6           0       -3.559376    4.445183    1.793398
      2          6           0       -2.688009    3.402553    2.530995
      3          6           0       -1.954791    4.072494    3.714114
      4          6           0       -3.518330    2.209731    2.992272
      5          6           0       -4.561693    2.194259    3.909667
      6          6           0       -5.186965    0.979719    4.214130
      7          6           0       -4.761559   -0.202489    3.602525
      8          6           0       -3.716012   -0.195355    2.676154
      9          6           0       -3.092868    1.018331    2.364939
     10          6           0       -1.973547    1.345832    1.467870
     11          6           0       -1.162609    0.566284    0.623827
     12          7           0       -1.370611   -0.841209    0.441167
     13          6           0       -0.249762   -1.691481    0.658943
     14          6           0        0.502625   -1.552765    1.836129
     15          6           0        1.630569   -2.336108    2.053038
     16          6           0        2.047438   -3.298374    1.116926
     17          6           0        3.256534   -4.127443    1.348574
     18          6           0        3.584531   -4.589326    2.635359
     19          6           0        4.723200   -5.363571    2.852719
     20          6           0        5.561236   -5.698759    1.787455
     21          6           0        5.248837   -5.249911    0.502661
     22          6           0        4.111564   -4.471907    0.286414
     23          6           0        1.277945   -3.438022   -0.050125
     24          6           0        0.156374   -2.648182   -0.284240
     25          6           0       -2.506689   -1.294335   -0.271627
     26          6           0       -2.982803   -2.607812   -0.100409
     27          6           0       -4.110990   -3.048196   -0.781735
     28          6           0       -4.827909   -2.204099   -1.647770
     29          6           0       -6.035806   -2.678490   -2.366577
     30          6           0       -6.311195   -2.255208   -3.678702
     31          6           0       -7.446921   -2.699188   -4.354084
     32          6           0       -8.334351   -3.581609   -3.735274
     33          6           0       -8.074415   -4.013137   -2.433221
     34          6           0       -6.940503   -3.565522   -1.757197
     35          6           0       -4.351105   -0.892646   -1.800267
     36          6           0       -3.213775   -0.443233   -1.135935
     37          6           0       -0.112973    1.179151   -0.070789
     38          6           0        0.170437    2.545117    0.072648
     39          7           0        1.270107    3.121522   -0.613114
     40          6           0        1.160593    4.424256   -1.174079
     41          6           0        0.004000    4.806033   -1.872650
     42          6           0       -0.100408    6.086510   -2.412806
     43          6           0        0.948407    6.999540   -2.283613
     44          6           0        2.104026    6.618991   -1.597899
     45          6           0        2.210174    5.346992   -1.038631
     46          6           0        2.483566    2.393371   -0.747061
     47          6           0        3.198442    2.401753   -1.955130
     48          6           0        4.379648    1.677794   -2.081759
     49          6           0        4.886432    0.904830   -1.023066
     50          6           0        6.130002    0.109967   -1.169332
     51          6           0        7.215664    0.590433   -1.922135
     52          6           0        8.382217   -0.160525   -2.059044
     53          6           0        8.492216   -1.409019   -1.443527
     54          6           0        7.422626   -1.899788   -0.692155
     55          6           0        6.255036   -1.150262   -0.558357
     56          6           0        4.161807    0.906801    0.181268
     57          6           0        2.990935    1.641776    0.324793
     58          6           0       -0.653620    3.329231    0.902230
     59          6           0       -1.708926    2.730034    1.570766
     60          1           0       -4.091442    3.989098    0.952348
     61          1           0       -2.941321    5.263413    1.405865
     62          1           0       -4.302975    4.876266    2.473632
     63          1           0       -1.328388    3.351274    4.248757
     64          1           0       -2.674620    4.492820    4.425772
     65          1           0       -1.314110    4.889865    3.363416
     66          1           0       -4.890812    3.111949    4.392052
     67          1           0       -6.004298    0.956527    4.930064
     68          1           0       -5.250645   -1.141836    3.846939
     69          1           0       -3.401379   -1.120164    2.208712
     70          1           0        0.200532   -0.816504    2.574613
     71          1           0        2.208246   -2.187298    2.961149
     72          1           0        2.925505   -4.359976    3.468209
     73          1           0        4.950534   -5.714563    3.856015
     74          1           0        6.447081   -6.304936    1.956477
     75          1           0        5.894145   -5.500860   -0.335360
     76          1           0        3.894821   -4.107039   -0.713678
     77          1           0        1.557547   -4.183541   -0.789252
     78          1           0       -0.409530   -2.773648   -1.201457
     79          1           0       -2.457111   -3.286364    0.563707
     80          1           0       -4.434927   -4.076564   -0.647426
     81          1           0       -5.613425   -1.591621   -4.182095
     82          1           0       -7.633347   -2.362423   -5.370710
     83          1           0       -9.218954   -3.929237   -4.262034
     84          1           0       -8.762138   -4.693196   -1.937001
     85          1           0       -6.765563   -3.885805   -0.733769
     86          1           0       -4.889017   -0.199841   -2.441500
     87          1           0       -2.874918    0.576558   -1.281412
     88          1           0        0.499419    0.572813   -0.728570
     89          1           0       -0.807329    4.094435   -1.988803
     90          1           0       -1.002664    6.365136   -2.951057
     91          1           0        0.866505    7.994284   -2.712232
     92          1           0        2.926132    7.320714   -1.483550
     93          1           0        3.104587    5.059773   -0.494937
     94          1           0        2.815399    2.966258   -2.799337
     95          1           0        4.894959    1.676929   -3.038323
     96          1           0        7.153201    1.573142   -2.381715
     97          1           0        9.211239    0.235755   -2.639907
     98          1           0        9.402574   -1.993167   -1.548877
     99          1           0        7.487805   -2.873874   -0.214325
    100          1           0        5.420264   -1.560108    0.003195
    101          1           0        4.539441    0.348342    1.032907
    102          1           0        2.461688    1.636210    1.272076
    103          1           0       -0.444194    4.387595    1.021351
 ---------------------------------------------------------------------

 The electronic state is 1-A.
 Alpha  occ. eigenvalues --  -14.36716 -14.36430 -10.23275 -10.23080 -10.22950
 Alpha  occ. eigenvalues --  -10.22940 -10.22876 -10.22855 -10.20565 -10.19925
 Alpha  occ. eigenvalues --  -10.19589 -10.19418 -10.19391 -10.19300 -10.19250
 Alpha  occ. eigenvalues --  -10.19241 -10.19225 -10.19180 -10.19082 -10.19076
 Alpha  occ. eigenvalues --  -10.19052 -10.19046 -10.19033 -10.18972 -10.18954
 Alpha  occ. eigenvalues --  -10.18951 -10.18929 -10.18891 -10.18886 -10.18855
 Alpha  occ. eigenvalues --  -10.18836 -10.18822 -10.18821 -10.18759 -10.18753
 Alpha  occ. eigenvalues --  -10.18752 -10.18719 -10.18707 -10.18684 -10.18658
 Alpha  occ. eigenvalues --  -10.18589 -10.18580 -10.18576 -10.18495 -10.18478
 Alpha  occ. eigenvalues --  -10.18463 -10.18444 -10.18432 -10.18417 -10.18402
 Alpha  occ. eigenvalues --  -10.18398 -10.18398 -10.18378 -10.18354 -10.18237
 Alpha  occ. eigenvalues --  -10.18202 -10.18060 -10.17953 -10.17949  -0.96700
 Alpha  occ. eigenvalues --   -0.96193  -0.88401  -0.86491  -0.86163  -0.85935
 Alpha  occ. eigenvalues --   -0.85101  -0.84395  -0.84270  -0.83546  -0.82859
 Alpha  occ. eigenvalues --   -0.80635  -0.77868  -0.77622  -0.76845  -0.76387
 Alpha  occ. eigenvalues --   -0.74940  -0.74772  -0.74660  -0.74574  -0.74147
 Alpha  occ. eigenvalues --   -0.74067  -0.73836  -0.73612  -0.73537  -0.72727
 Alpha  occ. eigenvalues --   -0.72218  -0.71777  -0.69921  -0.69029  -0.68645
 Alpha  occ. eigenvalues --   -0.64733  -0.63562  -0.63059  -0.62607  -0.62410
 Alpha  occ. eigenvalues --   -0.61548  -0.61250  -0.60866  -0.60474  -0.59399
 Alpha  occ. eigenvalues --   -0.59185  -0.58968  -0.58661  -0.58441  -0.57796
 Alpha  occ. eigenvalues --   -0.57585  -0.56986  -0.55959  -0.55084  -0.53539
 Alpha  occ. eigenvalues --   -0.53409  -0.52547  -0.52160  -0.51349  -0.51136
 Alpha  occ. eigenvalues --   -0.50704  -0.49441  -0.48748  -0.47839  -0.47706
 Alpha  occ. eigenvalues --   -0.47358  -0.47282  -0.46413  -0.46153  -0.45952
 Alpha  occ. eigenvalues --   -0.45477  -0.44799  -0.44495  -0.44277  -0.44183
 Alpha  occ. eigenvalues --   -0.43861  -0.43768  -0.43733  -0.43696  -0.43555
 Alpha  occ. eigenvalues --   -0.43041  -0.42861  -0.42779  -0.42583  -0.42359
 Alpha  occ. eigenvalues --   -0.42336  -0.42289  -0.42216  -0.42058  -0.41953
 Alpha  occ. eigenvalues --   -0.41560  -0.41509  -0.41163  -0.41154  -0.39125
 Alpha  occ. eigenvalues --   -0.39017  -0.38743  -0.38273  -0.38108  -0.37720
 Alpha  occ. eigenvalues --   -0.37540  -0.37445  -0.37295  -0.37111  -0.36968
 Alpha  occ. eigenvalues --   -0.36195  -0.35966  -0.35809  -0.35705  -0.35516
 Alpha  occ. eigenvalues --   -0.35258  -0.35088  -0.34856  -0.34732  -0.34491
 Alpha  occ. eigenvalues --   -0.34227  -0.34087  -0.33860  -0.33579  -0.33536
 Alpha  occ. eigenvalues --   -0.33343  -0.33109  -0.32961  -0.32216  -0.31576
 Alpha  occ. eigenvalues --   -0.30956  -0.30272  -0.28036  -0.27584  -0.26735
 Alpha  occ. eigenvalues --   -0.26089  -0.25323  -0.25151  -0.25036  -0.24814
 Alpha  occ. eigenvalues --   -0.24667  -0.24518  -0.24451  -0.24245  -0.23834
 Alpha  occ. eigenvalues --   -0.23455  -0.22329  -0.21968  -0.18460  -0.17632
 Alpha virt. eigenvalues --   -0.03705  -0.03068  -0.02575  -0.02078  -0.01102
 Alpha virt. eigenvalues --   -0.00730  -0.00205   0.00000   0.00281   0.00382
 Alpha virt. eigenvalues --    0.00475   0.00673   0.00786   0.01201   0.02656

 Mulliken charges:
               1
     1  C   -0.437076
     2  C   -0.065162
     3  C   -0.438324
     4  C    0.107004
     5  C   -0.208128
     6  C   -0.130006
     7  C   -0.144611
     8  C   -0.183301
     9  C    0.081458
    10  C    0.071643
    11  C    0.175247
    12  N   -0.666142
    13  C    0.279006
    14  C   -0.165024
    15  C   -0.188035
    16  C    0.097106
    17  C    0.085401
    18  C   -0.174502
    19  C   -0.133141
    20  C   -0.128834
    21  C   -0.137484
    22  C   -0.178375
    23  C   -0.188885
    24  C   -0.174136
    25  C    0.318545
    26  C   -0.180319
    27  C   -0.185969
    28  C    0.094936
    29  C    0.090695
    30  C   -0.175165
    31  C   -0.133733
    32  C   -0.128070
    33  C   -0.133699
    34  C   -0.174934
    35  C   -0.186232
    36  C   -0.185326
    37  C   -0.222985
    38  C    0.304217
    39  N   -0.664028
    40  C    0.276360
    41  C   -0.161233
    42  C   -0.140466
    43  C   -0.128125
    44  C   -0.140359
    45  C   -0.161904
    46  C    0.283247
    47  C   -0.170396
    48  C   -0.188384
    49  C    0.094858
    50  C    0.088784
    51  C   -0.175029
    52  C   -0.134158
    53  C   -0.127869
    54  C   -0.139885
    55  C   -0.184080
    56  C   -0.184844
    57  C   -0.165809
    58  C   -0.254611
    59  C    0.084781
    60  H    0.155654
    61  H    0.146412
    62  H    0.145408
    63  H    0.155592
    64  H    0.145173
    65  H    0.145382
    66  H    0.121642
    67  H    0.124888
    68  H    0.126272
    69  H    0.149680
    70  H    0.144101
    71  H    0.132973
    72  H    0.132318
    73  H    0.130828
    74  H    0.129644
    75  H    0.132864
    76  H    0.138272
    77  H    0.135619
    78  H    0.148613
    79  H    0.144938
    80  H    0.133122
    81  H    0.129495
    82  H    0.128140
    83  H    0.127313
    84  H    0.128262
    85  H    0.129887
    86  H    0.132597
    87  H    0.142795
    88  H    0.155996
    89  H    0.141772
    90  H    0.132030
    91  H    0.128652
    92  H    0.132570
    93  H    0.145471
    94  H    0.144236
    95  H    0.133946
    96  H    0.128750
    97  H    0.127712
    98  H    0.126379
    99  H    0.133252
   100  H    0.144393
   101  H    0.137697
   102  H    0.143059
   103  H    0.141686
 Sum of Mulliken charges =  -0.00000

 Dipole moment (field-independent basis, Debye):
    X=              0.4029    Y=              1.0414    Z=              0.1311  Tot=              1.1243
 Quadrupole moment (field-independent basis, Debye-Ang):
   XX=           -324.5827   YY=           -316.5716   ZZ=           -324.9854
   XY=             -5.6826   XZ=             -1.3908   YZ=             -6.0828

 1\1\GINC-NODE72\FOpt\RB3LYP\6-31G(d)\C57H44N2\WYKGROUP\05-Nov-2022\0\\
 #p b3lyp/6-31g(d) opt SCF=XQC\\Gaussian input prepared by ASE\\0,1\C,-
 0.0779113431,-0.3385412911,-5.8975991581\C,-0.4602027536,0.757608149,-
 4.8764645825\C,0.032089885,2.1346337083,-5.3741064108\C,-1.9605704942,
 0.7660931219,-4.6046936275\C,-2.9920356042,1.03826784,-5.4948961823\C,
 -4.3145636737,1.0140985148,-5.037614293\C,-4.5901906288,0.7222152347,-
 3.6991523212\C,-3.5595065555,0.4435377245,-2.7983689233\C,-2.236478993
 1,0.4608159096,-3.2538867139\C,-0.9569163157,0.2377633704,-2.562630668

 Normal termination of Gaussian 16 at Sat Nov  5 03:18:36 2022.
