 Gaussian 16, Revision B.01,
 Gaussian 16:  ES64L-G16RevB.01 20-Dec-2017

 -------------------------------------------------------------------
 #p b3lyp/6-31g(d) 6D 10F nosymm GFInput td=(50-50,nstate=2) SCF=XQC
 -------------------------------------------------------------------

 ------------------------------
 Gaussian input prepared by ASE
 ------------------------------
 Symbolic Z-matrix:
 Charge =  0 Multiplicity = 1

                          Input orientation:
 ---------------------------------------------------------------------
 Center     Atomic      Atomic             Coordinates (Angstroms)
 Number     Number       Type             X           Y           Z
 ---------------------------------------------------------------------
      1          6           0       -0.832996   -4.205897    0.527752
      2          6           0        0.551705   -4.261925    0.440001
      3          6           0        1.278657   -3.093290    0.196003
      4          6           0        0.636735   -1.861271    0.038125
      5          6           0       -0.774540   -1.804169    0.127561
      6          6           0       -1.488487   -2.981327    0.371363
      7          7           0       -1.427376   -0.561408   -0.018069
      8          6           0       -2.859921   -0.513561    0.041275
      9          6           0       -3.618654   -0.725532   -1.140771
     10          6           0       -4.992658   -0.683637   -1.097445
     11          6           0       -5.679391   -0.428542    0.120831
     12          6           0       -7.096974   -0.379009    0.198578
     13          6           0       -7.728573   -0.128971    1.396058
     14          6           0       -6.970676    0.083650    2.574044
     15          6           0       -5.595323    0.042114    2.532692
     16          6           0       -4.912903   -0.213573    1.312884
     17          6           0       -3.495195   -0.262755    1.237434
     18          6           0       -0.720521    0.605810   -0.364819
     19          6           0       -1.363113    1.802619   -0.604324
     20          6           0       -0.654095    2.988862   -0.940083
     21          6           0       -1.308738    4.220621   -1.186490
     22          6           0       -0.587283    5.353098   -1.510544
     23          6           0        0.821057    5.296113   -1.599797
     24          6           0        1.484113    4.107616   -1.363486
     25          6           0        0.768767    2.931290   -1.030256
     26          6           0        1.416674    1.690143   -0.780490
     27          6           0        0.715186    0.547720   -0.455805
     28          7           0        1.363876   -0.674342   -0.194958
     29          6           0        2.791645   -0.742214   -0.316881
     30          6           0        3.375817   -1.008517   -1.584029
     31          6           0        4.743206   -1.077528   -1.714434
     32          6           0        5.596286   -0.884720   -0.593741
     33          6           0        7.011716   -0.949799   -0.695530
     34          6           0        7.807255   -0.757489    0.411506
     35          6           0        7.223450   -0.490581    1.674518
     36          6           0        5.855006   -0.421115    1.807049
     37          6           0        5.005949   -0.614852    0.684296
     38          6           0        3.590713   -0.549426    0.788378
     39          1           0       -1.416070   -5.102314    0.717542
     40          1           0        1.080010   -5.203310    0.559361
     41          1           0        2.359052   -3.138340    0.130376
     42          1           0       -2.568632   -2.938956    0.442653
     43          1           0       -3.093792   -0.919770   -2.071181
     44          1           0       -5.573123   -0.846649   -2.002307
     45          1           0       -7.676510   -0.542310   -0.706951
     46          1           0       -8.813579   -0.093470    1.442261
     47          1           0       -7.481299    0.280377    3.512712
     48          1           0       -5.010898    0.205167    3.434961
     49          1           0       -2.903179   -0.100858    2.134093
     50          1           0       -2.443437    1.852801   -0.532954
     51          1           0       -2.393621    4.261091   -1.116403
     52          1           0       -1.102955    6.291372   -1.697533
     53          1           0        1.382866    6.190790   -1.855071
     54          1           0        2.568888    4.060297   -1.430900
     55          1           0        2.497886    1.652863   -0.846105
     56          1           0        2.723965   -1.155156   -2.439866
     57          1           0        5.189987   -1.282102   -2.684394
     58          1           0        7.457471   -1.154583   -1.666034
     59          1           0        8.888742   -0.809635    0.320412
     60          1           0        7.862465   -0.340357    2.540329
     61          1           0        5.403985   -0.216166    2.774936
     62          1           0        3.131387   -0.344990    1.751662
 ---------------------------------------------------------------------

 SCF Done:  E(RB3LYP) =  -1495.83104482     A.U. after   15 cycles

 Excitation energies and oscillator strengths:

 Excited state symmetry could not be determined.
 Excited State   1:      Triplet-?Sym    2.3881 eV  519.16 nm  f=0.0000  <S**2>=2.000
     127 ->128         0.66970
     127 ->133         0.17060
 This state for optimization and/or second-order correction.
 Total Energy, E(TD-HF/TD-DFT) =  -1495.74328195
 Copying the excited state density for this state as the 1-particle RhoCI density.

 Excited state symmetry could not be determined.
 Excited State   2:      Triplet-?Sym    2.4032 eV  515.92 nm  f=0.0000  <S**2>=2.000
     127 ->129         0.68429
     127 ->132        -0.11812

 Excited state symmetry could not be determined.
 Excited State   3:      Singlet-?Sym    2.4303 eV  510.16 nm  f=0.0000  <S**2>=0.000
     127 ->128         0.70129

 Excited state symmetry could not be determined.
 Excited State   4:      Singlet-?Sym    2.4368 eV  508.80 nm  f=0.0017  <S**2>=0.000
     127 ->129         0.70108

 Alpha  occ. eigenvalues --  -14.36936 -14.36936 -10.23205 -10.23204 -10.23156
 Alpha  occ. eigenvalues --  -10.23117 -10.22862 -10.22815 -10.20633 -10.20633
 Alpha  occ. eigenvalues --  -10.20574 -10.20574 -10.19991 -10.19991 -10.19935
 Alpha  occ. eigenvalues --  -10.19935 -10.19867 -10.19867 -10.19801 -10.19801
 Alpha  occ. eigenvalues --  -10.19762 -10.19762 -10.19712 -10.19712 -10.19699
 Alpha  occ. eigenvalues --  -10.19698 -10.18099 -10.18055 -10.17784 -10.17784
 Alpha  occ. eigenvalues --  -10.17548 -10.17491 -10.17351 -10.17330 -10.17308
 Alpha  occ. eigenvalues --  -10.17307 -10.17288 -10.17261  -0.98758  -0.95059
 Alpha  occ. eigenvalues --   -0.87957  -0.87599  -0.85971  -0.83982  -0.82724
 Alpha  occ. eigenvalues --   -0.82103  -0.79735  -0.78005  -0.77900  -0.76160
 Alpha  occ. eigenvalues --   -0.75604  -0.74417  -0.73922  -0.73645  -0.73031
 Alpha  occ. eigenvalues --   -0.72432  -0.69916  -0.69212  -0.65209  -0.63396
 Alpha  occ. eigenvalues --   -0.62824  -0.62603  -0.61969  -0.60358  -0.60336
 Alpha  occ. eigenvalues --   -0.60213  -0.58844  -0.58410  -0.56527  -0.54701
 Alpha  occ. eigenvalues --   -0.53242  -0.52618  -0.52021  -0.52004  -0.51011
 Alpha  occ. eigenvalues --   -0.50763  -0.50312  -0.49001  -0.47053  -0.45878
 Alpha  occ. eigenvalues --   -0.45659  -0.45468  -0.45201  -0.44669  -0.44149
 Alpha  occ. eigenvalues --   -0.44000  -0.43373  -0.43051  -0.42983  -0.42548
 Alpha  occ. eigenvalues --   -0.42517  -0.42234  -0.41700  -0.41114  -0.40893
 Alpha  occ. eigenvalues --   -0.40243  -0.40028  -0.39564  -0.39069  -0.38507
 Alpha  occ. eigenvalues --   -0.38257  -0.37177  -0.36654  -0.35880  -0.35422
 Alpha  occ. eigenvalues --   -0.35395  -0.34305  -0.34172  -0.33883  -0.33533
 Alpha  occ. eigenvalues --   -0.33319  -0.32990  -0.32895  -0.32670  -0.31748
 Alpha  occ. eigenvalues --   -0.29171  -0.29147  -0.28505  -0.26655  -0.24994
 Alpha  occ. eigenvalues --   -0.24962  -0.23785  -0.23252  -0.22296  -0.22161
 Alpha  occ. eigenvalues --   -0.18804  -0.15739
 Alpha virt. eigenvalues --   -0.04659  -0.04651  -0.02009  -0.01879  -0.01568
 Alpha virt. eigenvalues --   -0.00255   0.01497   0.02610   0.02634   0.03913
 Alpha virt. eigenvalues --    0.04954   0.08735   0.08862   0.08983   0.09182

 Mulliken charges:
               1
     1  C   -0.138482
     2  C   -0.138483
     3  C   -0.204369
     4  C    0.328127
     5  C    0.328139
     6  C   -0.204373
     7  N   -0.742223
     8  C    0.189799
     9  C   -0.123557
    10  C   -0.208069
    11  C    0.147162
    12  C   -0.193727
    13  C   -0.132560
    14  C   -0.136322
    15  C   -0.186945
    16  C    0.127824
    17  C   -0.200029
    18  C    0.353057
    19  C   -0.312570
    20  C    0.157325
    21  C   -0.204192
    22  C   -0.140077
    23  C   -0.140083
    24  C   -0.204195
    25  C    0.157328
    26  C   -0.312563
    27  C    0.353032
    28  N   -0.742198
    29  C    0.189809
    30  C   -0.123566
    31  C   -0.208065
    32  C    0.147157
    33  C   -0.193726
    34  C   -0.132561
    35  C   -0.136324
    36  C   -0.186942
    37  C    0.127831
    38  C   -0.200032
    39  H    0.122116
    40  H    0.122116
    41  H    0.142940
    42  H    0.142944
    43  H    0.147325
    44  H    0.138101
    45  H    0.133906
    46  H    0.134391
    47  H    0.134886
    48  H    0.136695
    49  H    0.146499
    50  H    0.141823
    51  H    0.121101
    52  H    0.120038
    53  H    0.120038
    54  H    0.121101
    55  H    0.141822
    56  H    0.147326
    57  H    0.138101
    58  H    0.133905
    59  H    0.134391
    60  H    0.134886
    61  H    0.136696
    62  H    0.146498
 Sum of Mulliken charges =  -0.00000

 Dipole moment (field-independent basis, Debye):
    X=             -0.0151    Y=             -1.1544    Z=              0.4998  Tot=              1.2580
 Quadrupole moment (field-independent basis, Debye-Ang):
   XX=           -171.1679   YY=           -221.9876   ZZ=           -206.0942
   XY=             -1.8391   XZ=             -2.0827   YZ=              3.5548

 Normal termination of Gaussian 16 at Sat Nov  5 11:04:28 2022.
