 Gaussian 16, Revision B.01,
 Gaussian 16:  ES64L-G16RevB.01 20-Dec-2017

 -----------------------------
 #p b3lyp/6-31g(d) opt SCF=XQC
 -----------------------------

 ------------------------------
 Gaussian input prepared by ASE
 ------------------------------
 Symbolic Z-matrix:
 Charge =  0 Multiplicity = 1

 SCF Done:  E(RB3LYP) =  -1495.82428753     A.U. after   15 cycles
 SCF Done:  E(RB3LYP) =  -1495.83088638     A.U. after   12 cycles
 SCF Done:  E(RB3LYP) =  -1495.83099401     A.U. after   10 cycles
 SCF Done:  E(RB3LYP) =  -1495.83100598     A.U. after   10 cycles
 SCF Done:  E(RB3LYP) =  -1495.83101941     A.U. after   10 cycles
 SCF Done:  E(RB3LYP) =  -1495.83102294     A.U. after   10 cycles
 SCF Done:  E(RB3LYP) =  -1495.83102681     A.U. after    9 cycles
 SCF Done:  E(RB3LYP) =  -1495.83103015     A.U. after    9 cycles
 SCF Done:  E(RB3LYP) =  -1495.83103238     A.U. after    9 cycles
 SCF Done:  E(RB3LYP) =  -1495.83103408     A.U. after    9 cycles
 SCF Done:  E(RB3LYP) =  -1495.83103442     A.U. after    9 cycles
 SCF Done:  E(RB3LYP) =  -1495.83103457     A.U. after    7 cycles
 SCF Done:  E(RB3LYP) =  -1495.83103470     A.U. after    7 cycles
 Optimization completed.
    -- Stationary point found.

                         Standard orientation:
 ---------------------------------------------------------------------
 Center     Atomic      Atomic             Coordinates (Angstroms)
 Number     Number       Type             X           Y           Z
 ---------------------------------------------------------------------
      1          6           0       -0.694334   -4.204901   -0.609040
      2          6           0        0.694275   -4.204911   -0.609041
      3          6           0        1.387457   -2.996710   -0.493062
      4          6           0        0.707618   -1.780613   -0.375641
      5          6           0       -0.707640   -1.780604   -0.375640
      6          6           0       -1.387497   -2.996689   -0.493061
      7          7           0       -1.399569   -0.557542   -0.244440
      8          6           0       -2.833763   -0.559183   -0.277339
      9          6           0       -3.507110   -0.475893   -1.525339
     10          6           0       -4.881675   -0.477818   -1.571021
     11          6           0       -5.653755   -0.561635   -0.380331
     12          6           0       -7.074260   -0.566060   -0.393988
     13          6           0       -7.789843   -0.648139    0.779298
     14          6           0       -7.117099   -0.729772    2.023491
     15          6           0       -5.741328   -0.727981    2.071264
     16          6           0       -4.973428   -0.644437    0.878638
     17          6           0       -3.552958   -0.640264    0.894608
     18          6           0       -0.719877    0.675368   -0.229315
     19          6           0       -1.393805    1.878522   -0.199647
     20          6           0       -0.713418    3.127017   -0.168901
     21          6           0       -1.400337    4.365436   -0.137798
     22          6           0       -0.706118    5.559263   -0.108646
     23          6           0        0.706197    5.559252   -0.108651
     24          6           0        1.400398    4.365416   -0.137807
     25          6           0        0.713461    3.127007   -0.168905
     26          6           0        1.393829    1.878502   -0.199654
     27          6           0        0.719883    0.675359   -0.229318
     28          7           0        1.399561   -0.557557   -0.244443
     29          6           0        2.833755   -0.559205   -0.277340
     30          6           0        3.507103   -0.475922   -1.525341
     31          6           0        4.881668   -0.477850   -1.571021
     32          6           0        5.653747   -0.561663   -0.380331
     33          6           0        7.074252   -0.566092   -0.393987
     34          6           0        7.789834   -0.648165    0.779300
     35          6           0        7.117089   -0.729788    2.023494
     36          6           0        5.741318   -0.727993    2.071265
     37          6           0        4.973419   -0.644455    0.878639
     38          6           0        3.552950   -0.640278    0.894607
     39          1           0       -1.251600   -5.132924   -0.697288
     40          1           0        1.251526   -5.132942   -0.697289
     41          1           0        2.470776   -2.998742   -0.490667
     42          1           0       -2.470817   -2.998703   -0.490665
     43          1           0       -2.917092   -0.411312   -2.434503
     44          1           0       -5.396747   -0.414772   -2.526537
     45          1           0       -7.588351   -0.503100   -1.350156
     46          1           0       -8.876146   -0.650420    0.755402
     47          1           0       -7.693540   -0.793759    2.942271
     48          1           0       -5.222144   -0.790226    3.024574
     49          1           0       -3.025804   -0.702005    1.842757
     50          1           0       -2.477623    1.884028   -0.195187
     51          1           0       -2.488228    4.361790   -0.137388
     52          1           0       -1.246373    6.502040   -0.085487
     53          1           0        1.246466    6.502022   -0.085495
     54          1           0        2.488289    4.361753   -0.137402
     55          1           0        2.477648    1.883990   -0.195200
     56          1           0        2.917086   -0.411344   -2.434506
     57          1           0        5.396741   -0.414810   -2.526538
     58          1           0        7.588344   -0.503139   -1.350154
     59          1           0        8.876138   -0.650449    0.755405
     60          1           0        7.693530   -0.793771    2.942274
     61          1           0        5.222134   -0.790231    3.024576
     62          1           0        3.025795   -0.702011    1.842756
 ---------------------------------------------------------------------

 The electronic state is 1-A.
 Alpha  occ. eigenvalues --  -14.36936 -14.36936 -10.23205 -10.23204 -10.23156
 Alpha  occ. eigenvalues --  -10.23117 -10.22862 -10.22815 -10.20633 -10.20633
 Alpha  occ. eigenvalues --  -10.20574 -10.20574 -10.19991 -10.19991 -10.19935
 Alpha  occ. eigenvalues --  -10.19935 -10.19867 -10.19867 -10.19801 -10.19801
 Alpha  occ. eigenvalues --  -10.19762 -10.19762 -10.19712 -10.19712 -10.19698
 Alpha  occ. eigenvalues --  -10.19698 -10.18099 -10.18055 -10.17784 -10.17784
 Alpha  occ. eigenvalues --  -10.17548 -10.17491 -10.17351 -10.17330 -10.17308
 Alpha  occ. eigenvalues --  -10.17307 -10.17288 -10.17261  -0.98758  -0.95059
 Alpha  occ. eigenvalues --   -0.87957  -0.87599  -0.85971  -0.83983  -0.82724
 Alpha  occ. eigenvalues --   -0.82103  -0.79735  -0.78005  -0.77900  -0.76160
 Alpha  occ. eigenvalues --   -0.75604  -0.74417  -0.73922  -0.73645  -0.73031
 Alpha  occ. eigenvalues --   -0.72432  -0.69916  -0.69212  -0.65209  -0.63396
 Alpha  occ. eigenvalues --   -0.62824  -0.62603  -0.61969  -0.60358  -0.60336
 Alpha  occ. eigenvalues --   -0.60213  -0.58844  -0.58410  -0.56527  -0.54701
 Alpha  occ. eigenvalues --   -0.53242  -0.52618  -0.52021  -0.52004  -0.51011
 Alpha  occ. eigenvalues --   -0.50763  -0.50312  -0.49001  -0.47053  -0.45878
 Alpha  occ. eigenvalues --   -0.45659  -0.45468  -0.45201  -0.44669  -0.44149
 Alpha  occ. eigenvalues --   -0.44000  -0.43373  -0.43051  -0.42982  -0.42548
 Alpha  occ. eigenvalues --   -0.42517  -0.42234  -0.41700  -0.41114  -0.40893
 Alpha  occ. eigenvalues --   -0.40243  -0.40027  -0.39564  -0.39069  -0.38507
 Alpha  occ. eigenvalues --   -0.38257  -0.37177  -0.36654  -0.35880  -0.35422
 Alpha  occ. eigenvalues --   -0.35395  -0.34305  -0.34172  -0.33883  -0.33533
 Alpha  occ. eigenvalues --   -0.33319  -0.32990  -0.32895  -0.32670  -0.31748
 Alpha  occ. eigenvalues --   -0.29171  -0.29147  -0.28505  -0.26655  -0.24994
 Alpha  occ. eigenvalues --   -0.24962  -0.23785  -0.23252  -0.22296  -0.22161
 Alpha  occ. eigenvalues --   -0.18804  -0.15739
 Alpha virt. eigenvalues --   -0.04659  -0.04651  -0.02009  -0.01879  -0.01568
 Alpha virt. eigenvalues --   -0.00255   0.01497   0.02610   0.02634   0.03913
 Alpha virt. eigenvalues --    0.04954   0.08735   0.08862   0.08983   0.09182

 Mulliken charges:
               1
     1  C   -0.138486
     2  C   -0.138486
     3  C   -0.204374
     4  C    0.328143
     5  C    0.328142
     6  C   -0.204374
     7  N   -0.742215
     8  C    0.189791
     9  C   -0.123556
    10  C   -0.208071
    11  C    0.147169
    12  C   -0.193725
    13  C   -0.132564
    14  C   -0.136323
    15  C   -0.186943
    16  C    0.127822
    17  C   -0.200025
    18  C    0.353055
    19  C   -0.312567
    20  C    0.157319
    21  C   -0.204190
    22  C   -0.140083
    23  C   -0.140083
    24  C   -0.204189
    25  C    0.157319
    26  C   -0.312567
    27  C    0.353053
    28  N   -0.742215
    29  C    0.189791
    30  C   -0.123556
    31  C   -0.208071
    32  C    0.147169
    33  C   -0.193725
    34  C   -0.132564
    35  C   -0.136323
    36  C   -0.186943
    37  C    0.127822
    38  C   -0.200024
    39  H    0.122117
    40  H    0.122117
    41  H    0.142939
    42  H    0.142940
    43  H    0.147326
    44  H    0.138100
    45  H    0.133906
    46  H    0.134391
    47  H    0.134886
    48  H    0.136695
    49  H    0.146500
    50  H    0.141823
    51  H    0.121101
    52  H    0.120039
    53  H    0.120039
    54  H    0.121101
    55  H    0.141823
    56  H    0.147326
    57  H    0.138100
    58  H    0.133906
    59  H    0.134391
    60  H    0.134886
    61  H    0.136695
    62  H    0.146500
 Sum of Mulliken charges =  -0.00000

 Dipole moment (field-independent basis, Debye):
    X=             -0.0000    Y=             -1.2444    Z=              0.1851  Tot=              1.2581
 Quadrupole moment (field-independent basis, Debye-Ang):
   XX=           -170.9614   YY=           -222.7620   ZZ=           -205.5503
   XY=             -0.0001   XZ=             -0.0000   YZ=             -0.9651

 1\1\GINC-NODE75\FOpt\RB3LYP\6-31G(d)\C36H24N2\WYKGROUP\05-Nov-2022\0\\
 #p b3lyp/6-31g(d) opt SCF=XQC\\Gaussian input prepared by ASE\\0,1\C,-
 0.8329957507,-4.205897499,0.5277521323\C,0.5517053008,-4.2619247431,0.
 4400009568\C,1.2786570141,-3.093289859,0.1960032079\C,0.636735007,-1.8
 612706842,0.0381250811\C,-0.7745401661,-1.8041692634,0.127561132\C,-1.
 4884869855,-2.981326556,0.3713626239\N,-1.4273755053,-0.5614075283,-0.
 0180688094\C,-2.8599212514,-0.5135611616,0.0412747625\C,-3.6186543781,
 -0.7255317754,-1.1407706288\C,-4.9926584323,-0.6836374195,-1.097445184

 Normal termination of Gaussian 16 at Sat Nov  5 01:50:53 2022.
