 Gaussian 16, Revision B.01,
 Gaussian 16:  ES64L-G16RevB.01 20-Dec-2017

 -----------------------------
 #p b3lyp/6-31g(d) opt SCF=XQC
 -----------------------------

 ------------------------------
 Gaussian input prepared by ASE
 ------------------------------
 Symbolic Z-matrix:
 Charge =  0 Multiplicity = 1

 SCF Done:  E(RB3LYP) =  -2342.63583585     A.U. after   16 cycles
 SCF Done:  E(RB3LYP) =  -2342.65023215     A.U. after   13 cycles
 SCF Done:  E(RB3LYP) =  -2342.65138873     A.U. after   12 cycles
 SCF Done:  E(RB3LYP) =  -2342.65162371     A.U. after   12 cycles
 SCF Done:  E(RB3LYP) =  -2342.65169118     A.U. after   11 cycles
 SCF Done:  E(RB3LYP) =  -2342.65171020     A.U. after   10 cycles
 SCF Done:  E(RB3LYP) =  -2342.65171263     A.U. after    8 cycles
 SCF Done:  E(RB3LYP) =  -2342.65171317     A.U. after    9 cycles
 SCF Done:  E(RB3LYP) =  -2342.65171335     A.U. after    7 cycles
 SCF Done:  E(RB3LYP) =  -2342.65171344     A.U. after    7 cycles
 SCF Done:  E(RB3LYP) =  -2342.65171349     A.U. after    7 cycles
 Optimization completed.
    -- Stationary point found.

                         Standard orientation:
 ---------------------------------------------------------------------
 Center     Atomic      Atomic             Coordinates (Angstroms)
 Number     Number       Type             X           Y           Z
 ---------------------------------------------------------------------
      1          6           0       -8.367825   -3.682717   -2.422946
      2          6           0       -9.059676   -3.047201   -1.387624
      3          6           0       -8.446760   -2.054399   -0.628635
      4          6           0       -7.124333   -1.663185   -0.905636
      5          7           0       -6.490100   -0.669309   -0.109767
      6          6           0       -7.173051    0.527556    0.240455
      7          6           0       -6.862215    1.147977    1.486587
      8          6           0       -7.497895    2.301058    1.872372
      9          6           0       -8.491993    2.906682    1.055345
     10          6           0       -9.171323    4.094129    1.430573
     11          6           0      -10.126612    4.651238    0.608523
     12          6           0      -10.442437    4.039265   -0.628811
     13          6           0       -9.802500    2.883862   -1.019576
     14          6           0       -8.813548    2.282988   -0.193634
     15          6           0       -8.128083    1.101745   -0.579696
     16          6           0       -5.067129   -0.694400    0.030349
     17          6           0       -4.307778    0.317067   -0.488345
     18          6           0       -2.882918    0.343229   -0.358545
     19          6           0       -2.109973    1.385736   -0.891672
     20          6           0       -0.725085    1.360893   -0.796188
     21          6           0       -0.040674    0.308197   -0.167748
     22          6           0        1.445518    0.344609   -0.150975
     23          6           0        2.126941    1.497187    0.279522
     24          6           0        3.514809    1.569957    0.268456
     25          6           0        4.283726    0.489842   -0.197078
     26          7           0        5.699348    0.582977   -0.210468
     27          6           0        6.507511   -0.572620   -0.049660
     28          6           0        6.165973   -1.530444    0.952582
     29          6           0        6.950448   -2.637338    1.158483
     30          6           0        8.131856   -2.860465    0.398996
     31          6           0        8.964517   -3.991996    0.594343
     32          6           0       10.102564   -4.169803   -0.161971
     33          6           0       10.454570   -3.217157   -1.148632
     34          6           0        9.667359   -2.106705   -1.359764
     35          6           0        8.487326   -1.893935   -0.596363
     36          6           0        7.650588   -0.766724   -0.804367
     37          6           0        6.296195    1.792273   -0.693776
     38          6           0        5.960692    2.270924   -1.946554
     39          6           0        6.528786    3.464388   -2.445420
     40          6           0        7.443711    4.164453   -1.693698
     41          6           0        7.812222    3.712140   -0.398394
     42          6           0        8.738989    4.432072    0.403276
     43          6           0        9.063860    4.003587    1.669631
     44          6           0        8.466957    2.833047    2.195311
     45          6           0        7.570534    2.106042    1.443959
     46          6           0        7.224092    2.513629    0.127828
     47          6           0        3.614733   -0.658573   -0.651076
     48          6           0        2.224613   -0.727588   -0.617752
     49          6           0       -0.794800   -0.744174    0.419110
     50          6           0       -0.190374   -1.815111    1.166277
     51          6           0       -0.938018   -2.807412    1.722546
     52          6           0       -2.366458   -2.836512    1.596550
     53          6           0       -3.143819   -3.849680    2.179548
     54          6           0       -4.530546   -3.826231    2.073265
     55          6           0       -5.172047   -2.803986    1.375555
     56          6           0       -4.436130   -1.779086    0.760111
     57          6           0       -3.008741   -1.781841    0.877792
     58          6           0       -2.222713   -0.731063    0.309187
     59          6           0       -6.435021   -2.297522   -1.949777
     60          6           0       -7.053266   -3.303728   -2.692912
     61          1           0       -8.847634   -4.462435   -3.007485
     62          1           0      -10.082420   -3.335235   -1.158235
     63          1           0       -8.986054   -1.575322    0.182331
     64          1           0       -6.118614    0.687720    2.129341
     65          1           0       -7.253042    2.760037    2.827476
     66          1           0       -8.923393    4.559767    2.381884
     67          1           0      -10.640235    5.561312    0.906230
     68          1           0      -11.196575    4.485908   -1.271485
     69          1           0      -10.046477    2.413786   -1.969475
     70          1           0       -8.368808    0.644823   -1.534710
     71          1           0       -4.795558    1.128746   -1.021018
     72          1           0       -2.605526    2.209198   -1.399904
     73          1           0       -0.145044    2.161545   -1.246538
     74          1           0        1.555642    2.340307    0.658710
     75          1           0        4.014512    2.463409    0.629408
     76          1           0        5.279296   -1.367589    1.556557
     77          1           0        6.678441   -3.356118    1.928130
     78          1           0        8.688220   -4.719864    1.354058
     79          1           0       10.733205   -5.040424   -0.004108
     80          1           0       11.353768   -3.365237   -1.740841
     81          1           0        9.939542   -1.374835   -2.116661
     82          1           0        7.923228   -0.045688   -1.568762
     83          1           0        5.250319    1.713940   -2.549986
     84          1           0        6.246984    3.814848   -3.434442
     85          1           0        7.892319    5.077641   -2.076879
     86          1           0        9.185001    5.336175   -0.004559
     87          1           0        9.773482    4.564822    2.271453
     88          1           0        8.717290    2.506996    3.201160
     89          1           0        7.115488    1.211962    1.854651
     90          1           0        4.186073   -1.492920   -1.044616
     91          1           0        1.732799   -1.618071   -0.999002
     92          1           0        0.884933   -1.812553    1.302052
     93          1           0       -0.456381   -3.598149    2.293037
     94          1           0       -2.648125   -4.648900    2.725261
     95          1           0       -5.122882   -4.608777    2.539628
     96          1           0       -6.253291   -2.796525    1.305888
     97          1           0       -5.416500   -2.000516   -2.176628
     98          1           0       -6.500794   -3.784508   -3.496089
 ---------------------------------------------------------------------

 The electronic state is 1-A.
 Alpha  occ. eigenvalues --  -14.36604 -14.36239 -10.23151 -10.23098 -10.23062
 Alpha  occ. eigenvalues --  -10.22902 -10.22830 -10.22705 -10.20172 -10.20126
 Alpha  occ. eigenvalues --  -10.20032 -10.19990 -10.19980 -10.19909 -10.19816
 Alpha  occ. eigenvalues --  -10.19772 -10.19684 -10.19587 -10.19580 -10.19514
 Alpha  occ. eigenvalues --  -10.19446 -10.19366 -10.19335 -10.19304 -10.19292
 Alpha  occ. eigenvalues --  -10.19228 -10.19206 -10.19173 -10.19146 -10.19146
 Alpha  occ. eigenvalues --  -10.19086 -10.19046 -10.19039 -10.18976 -10.18968
 Alpha  occ. eigenvalues --  -10.18965 -10.18954 -10.18918 -10.18910 -10.18893
 Alpha  occ. eigenvalues --  -10.18893 -10.18842 -10.18800 -10.18790 -10.18790
 Alpha  occ. eigenvalues --  -10.18775 -10.18743 -10.18727 -10.18692 -10.18670
 Alpha  occ. eigenvalues --  -10.18643 -10.18642 -10.18609 -10.18514 -10.18500
 Alpha  occ. eigenvalues --  -10.18452 -10.18388 -10.18334 -10.18273 -10.18255
 Alpha  occ. eigenvalues --   -0.96582  -0.96239  -0.88870  -0.87311  -0.86796
 Alpha  occ. eigenvalues --   -0.86616  -0.85770  -0.84504  -0.84254  -0.82560
 Alpha  occ. eigenvalues --   -0.82314  -0.81213  -0.80862  -0.79660  -0.77690
 Alpha  occ. eigenvalues --   -0.77076  -0.76806  -0.76443  -0.75304  -0.74809
 Alpha  occ. eigenvalues --   -0.74526  -0.74456  -0.74143  -0.73850  -0.73371
 Alpha  occ. eigenvalues --   -0.72715  -0.72030  -0.71867  -0.71221  -0.70547
 Alpha  occ. eigenvalues --   -0.68939  -0.64119  -0.63752  -0.63215  -0.62737
 Alpha  occ. eigenvalues --   -0.62387  -0.62143  -0.61816  -0.61399  -0.61224
 Alpha  occ. eigenvalues --   -0.60901  -0.60410  -0.59944  -0.59695  -0.59260
 Alpha  occ. eigenvalues --   -0.59033  -0.57690  -0.56894  -0.54335  -0.53699
 Alpha  occ. eigenvalues --   -0.53242  -0.52913  -0.52760  -0.52036  -0.51571
 Alpha  occ. eigenvalues --   -0.51031  -0.50868  -0.50520  -0.49887  -0.49743
 Alpha  occ. eigenvalues --   -0.49589  -0.49401  -0.48649  -0.47943  -0.47323
 Alpha  occ. eigenvalues --   -0.46221  -0.45986  -0.45084  -0.44971  -0.44940
 Alpha  occ. eigenvalues --   -0.44530  -0.44371  -0.44208  -0.43913  -0.43683
 Alpha  occ. eigenvalues --   -0.43272  -0.43089  -0.42916  -0.42837  -0.42373
 Alpha  occ. eigenvalues --   -0.42082  -0.41919  -0.41761  -0.41678  -0.41456
 Alpha  occ. eigenvalues --   -0.41303  -0.41018  -0.40813  -0.40528  -0.40516
 Alpha  occ. eigenvalues --   -0.40341  -0.39712  -0.39658  -0.38932  -0.38683
 Alpha  occ. eigenvalues --   -0.38542  -0.38220  -0.37996  -0.37265  -0.37226
 Alpha  occ. eigenvalues --   -0.37142  -0.36659  -0.36390  -0.35997  -0.35668
 Alpha  occ. eigenvalues --   -0.35452  -0.34888  -0.34567  -0.34476  -0.34137
 Alpha  occ. eigenvalues --   -0.34073  -0.33893  -0.33855  -0.33268  -0.33238
 Alpha  occ. eigenvalues --   -0.32948  -0.32675  -0.32562  -0.32514  -0.31887
 Alpha  occ. eigenvalues --   -0.30118  -0.29670  -0.28993  -0.28660  -0.27869
 Alpha  occ. eigenvalues --   -0.27679  -0.26939  -0.25566  -0.25303  -0.24913
 Alpha  occ. eigenvalues --   -0.24700  -0.24453  -0.24330  -0.22908  -0.22446
 Alpha  occ. eigenvalues --   -0.21779  -0.21520  -0.19956  -0.18641  -0.17759
 Alpha virt. eigenvalues --   -0.05912  -0.04354  -0.03568  -0.03463  -0.02342
 Alpha virt. eigenvalues --   -0.01674  -0.01099  -0.00861  -0.00725  -0.00034
 Alpha virt. eigenvalues --    0.00399   0.00560   0.01625   0.02726   0.03424

 Mulliken charges:
               1
     1  C   -0.129028
     2  C   -0.140220
     3  C   -0.160589
     4  C    0.292765
     5  N   -0.659231
     6  C    0.288239
     7  C   -0.157430
     8  C   -0.206213
     9  C    0.142606
    10  C   -0.194623
    11  C   -0.137565
    12  C   -0.136660
    13  C   -0.193116
    14  C    0.135995
    15  C   -0.268088
    16  C    0.195581
    17  C   -0.262031
    18  C    0.171129
    19  C   -0.230346
    20  C   -0.171456
    21  C   -0.001050
    22  C    0.067507
    23  C   -0.179689
    24  C   -0.169595
    25  C    0.292795
    26  N   -0.657555
    27  C    0.300044
    28  C   -0.163107
    29  C   -0.205682
    30  C    0.142902
    31  C   -0.194622
    32  C   -0.137389
    33  C   -0.136147
    34  C   -0.192336
    35  C    0.138879
    36  C   -0.268285
    37  C    0.174670
    38  C   -0.160741
    39  C   -0.148113
    40  C   -0.181507
    41  C    0.120029
    42  C   -0.196206
    43  C   -0.130177
    44  C   -0.137689
    45  C   -0.181446
    46  C    0.123493
    47  C   -0.184039
    48  C   -0.185303
    49  C    0.104501
    50  C   -0.203003
    51  C   -0.199806
    52  C    0.159429
    53  C   -0.219960
    54  C   -0.126342
    55  C   -0.217616
    56  C    0.146621
    57  C   -0.032667
    58  C    0.007872
    59  C   -0.175204
    60  C   -0.138801
    61  H    0.126136
    62  H    0.130334
    63  H    0.143577
    64  H    0.144442
    65  H    0.132016
    66  H    0.127697
    67  H    0.127274
    68  H    0.128018
    69  H    0.128954
    70  H    0.143733
    71  H    0.144480
    72  H    0.133492
    73  H    0.133937
    74  H    0.136778
    75  H    0.145436
    76  H    0.144814
    77  H    0.131689
    78  H    0.127535
    79  H    0.127776
    80  H    0.128678
    81  H    0.129730
    82  H    0.142353
    83  H    0.144050
    84  H    0.134691
    85  H    0.130600
    86  H    0.130991
    87  H    0.131707
    88  H    0.132979
    89  H    0.149620
    90  H    0.149042
    91  H    0.143500
    92  H    0.144408
    93  H    0.129060
    94  H    0.129138
    95  H    0.131747
    96  H    0.150315
    97  H    0.143935
    98  H    0.130957
 Sum of Mulliken charges =  -0.00000

 Dipole moment (field-independent basis, Debye):
    X=              1.3492    Y=              0.4639    Z=             -0.0623  Tot=              1.4281
 Quadrupole moment (field-independent basis, Debye-Ang):
   XX=           -319.1610   YY=           -316.5593   ZZ=           -327.0821
   XY=              5.8932   XZ=              1.5251   YZ=             -5.7943

 1\1\GINC-NODE91\FOpt\RB3LYP\6-31G(d)\C58H38N2\WYKGROUP\05-Nov-2022\0\\
 #p b3lyp/6-31g(d) opt SCF=XQC\\Gaussian input prepared by ASE\\0,1\C,8
 .3605009113,-1.1968654716,-4.3598160961\C,9.0611790249,-0.407726606,-3
 .4428981871\C,8.4574312705,0.0138751096,-2.261743377\C,7.1355155635,-0
 .3646004876,-1.9652902215\N,6.5106578563,0.0918660675,-0.7717074388\C,
 7.2015521943,0.0571977273,0.470478606\C,6.9006402639,1.0553193527,1.44
 39227391\C,7.5442372384,1.068061289,2.6555889381\C,8.5369311072,0.1014
 671177,2.9762117021\C,9.2242924234,0.0935005879,4.2170926241\C,10.1779

 Normal termination of Gaussian 16 at Sat Nov  5 02:09:31 2022.
