 Gaussian 16, Revision B.01,
 Gaussian 16:  ES64L-G16RevB.01 20-Dec-2017

 -------------------------------------------------------------------
 #p b3lyp/6-31g(d) 6D 10F nosymm GFInput td=(50-50,nstate=2) SCF=XQC
 -------------------------------------------------------------------

 ------------------------------
 Gaussian input prepared by ASE
 ------------------------------
 Symbolic Z-matrix:
 Charge =  0 Multiplicity = 1

                          Input orientation:
 ---------------------------------------------------------------------
 Center     Atomic      Atomic             Coordinates (Angstroms)
 Number     Number       Type             X           Y           Z
 ---------------------------------------------------------------------
      1          6           0        8.360501   -1.196865   -4.359816
      2          6           0        9.061179   -0.407727   -3.442898
      3          6           0        8.457431    0.013875   -2.261743
      4          6           0        7.135516   -0.364600   -1.965290
      5          7           0        6.510658    0.091866   -0.771707
      6          6           0        7.201552    0.057198    0.470479
      7          6           0        6.900640    1.055319    1.443923
      8          6           0        7.544237    1.068061    2.655589
      9          6           0        8.536931    0.101467    2.976212
     10          6           0        9.224292    0.093501    4.217093
     11          6           0       10.177906   -0.862914    4.490237
     12          6           0       10.483897   -1.855257    3.527493
     13          6           0        9.836005   -1.872016    2.312121
     14          6           0        8.848529   -0.898403    1.998712
     15          6           0        8.155005   -0.902625    0.760468
     16          6           0        5.088361    0.238114   -0.743572
     17          6           0        4.331330   -0.562039    0.065984
     18          6           0        2.907348   -0.441266    0.139782
     19          6           0        2.136802   -1.264596    0.974573
     20          6           0        0.752346   -1.161061    0.989063
     21          6           0        0.066042   -0.238571    0.183132
     22          6           0       -1.419833   -0.228328    0.232558
     23          6           0       -2.093063   -0.168077    1.465941
     24          6           0       -3.480584   -0.195807    1.540845
     25          6           0       -4.257479   -0.306294    0.375155
     26          7           0       -5.672663   -0.342357    0.468919
     27          6           0       -6.485778    0.166749   -0.577047
     28          6           0       -6.143649    1.412456   -1.185099
     29          6           0       -6.932585    1.949533   -2.171069
     30          6           0       -8.119220    1.298824   -2.607884
     31          6           0       -8.956524    1.833554   -3.620224
     32          6           0      -10.099550    1.171862   -4.013198
     33          6           0      -10.452089   -0.057388   -3.405248
     34          6           0       -9.660428   -0.600543   -2.417507
     35          6           0       -8.475199    0.057062   -1.989348
     36          6           0       -7.633910   -0.488415   -0.985014
     37          6           0       -6.266000   -1.169847    1.476601
     38          6           0       -5.934895   -2.510171    1.547474
     39          6           0       -6.499645   -3.347742    2.535142
     40          6           0       -7.406913   -2.842528    3.437297
     41          6           0       -7.770662   -1.469638    3.404708
     42          6           0       -8.689400   -0.922892    4.341117
     43          6           0       -9.009545    0.414995    4.322089
     44          6           0       -8.415726    1.270989    3.364254
     45          6           0       -7.527093    0.774426    2.436679
     46          6           0       -7.185753   -0.604550    2.420462
     47          6           0       -3.596785   -0.390150   -0.861362
     48          6           0       -2.206872   -0.342381   -0.925906
     49          6           0        0.818012    0.639003   -0.644515
     50          6           0        0.212244    1.679824   -1.432063
     51          6           0        0.957869    2.509942   -2.211816
     52          6           0        2.385437    2.393675   -2.287273
     53          6           0        3.160818    3.255512   -3.078922
     54          6           0        4.547047    3.142113   -3.098049
     55          6           0        5.189912    2.163126   -2.341996
     56          6           0        4.455856    1.266660   -1.549356
     57          6           0        3.029133    1.384737   -1.506779
     58          6           0        2.245354    0.525146   -0.674866
     59          6           0        6.437335   -1.162507   -2.883796
     60          6           0        7.046429   -1.564936   -4.072906
     61          1           0        8.833172   -1.516977   -5.283923
     62          1           0       10.083684   -0.105021   -3.653708
     63          1           0        9.003544    0.637737   -1.561332
     64          1           0        6.158225    1.810653    1.206852
     65          1           0        7.306907    1.838156    3.385978
     66          1           0        8.983899    0.857959    4.952684
     67          1           0       10.697740   -0.859351    5.444403
     68          1           0       11.236781   -2.606393    3.751556
     69          1           0       10.072431   -2.633760    1.572762
     70          1           0        8.388218   -1.673246    0.032092
     71          1           0        4.820309   -1.318993    0.672956
     72          1           0        2.633747   -2.001905    1.600180
     73          1           0        0.173925   -1.832381    1.617604
     74          1           0       -1.515450   -0.066683    2.380873
     75          1           0       -3.973788   -0.123266    2.505071
     76          1           0       -5.252888    1.934573   -0.851270
     77          1           0       -6.660039    2.900987   -2.622115
     78          1           0       -8.679787    2.778313   -4.082986
     79          1           0      -10.733723    1.590456   -4.789867
     80          1           0      -11.355233   -0.572771   -3.721333
     81          1           0       -9.933014   -1.543856   -1.950100
     82          1           0       -7.907048   -1.435555   -0.530211
     83          1           0       -5.230642   -2.917158    0.828182
     84          1           0       -6.221453   -4.397563    2.564876
     85          1           0       -7.852970   -3.484750    4.192659
     86          1           0       -9.133041   -1.585823    5.080280
     87          1           0       -9.713035    0.819147    5.044932
     88          1           0       -8.662233    2.329262    3.362696
     89          1           0       -7.074352    1.436982    1.707874
     90          1           0       -4.174472   -0.507888   -1.772325
     91          1           0       -1.721652   -0.435127   -1.893455
     92          1           0       -0.862283    1.812228   -1.381181
     93          1           0        0.475344    3.296485   -2.787333
     94          1           0        2.664060    4.021105   -3.669994
     95          1           0        5.137941    3.823105   -3.704539
     96          1           0        6.270785    2.090585   -2.363182
     97          1           0        5.419111   -1.465553   -2.663695
     98          1           0        6.487171   -2.180813   -4.772474
 ---------------------------------------------------------------------

 SCF Done:  E(RB3LYP) =  -2342.65171976     A.U. after   16 cycles

 Excitation energies and oscillator strengths:

 Excited state symmetry could not be determined.
 Excited State   1:      Triplet-?Sym    1.9704 eV  629.23 nm  f=0.0000  <S**2>=2.000
     198 ->201        -0.39844
     200 ->201         0.54532
 This state for optimization and/or second-order correction.
 Total Energy, E(TD-HF/TD-DFT) =  -2342.57930837
 Copying the excited state density for this state as the 1-particle RhoCI density.

 Excited state symmetry could not be determined.
 Excited State   2:      Triplet-?Sym    2.5055 eV  494.85 nm  f=0.0000  <S**2>=2.000
     195 ->202        -0.28504
     197 ->202        -0.25349
     197 ->203         0.10789
     197 ->204         0.10607
     198 ->202        -0.14621
     199 ->202         0.36811
     200 ->202        -0.34798

 Excited state symmetry could not be determined.
 Excited State   3:      Singlet-?Sym    2.8069 eV  441.71 nm  f=0.5129  <S**2>=0.000
     198 ->201         0.13787
     199 ->201         0.17634
     200 ->201         0.66096

 Excited state symmetry could not be determined.
 Excited State   4:      Singlet-?Sym    3.0360 eV  408.38 nm  f=0.1877  <S**2>=0.000
     199 ->201         0.65872
     200 ->201        -0.18197
     200 ->202         0.12023

 Alpha  occ. eigenvalues --  -14.36604 -14.36239 -10.23151 -10.23098 -10.23062
 Alpha  occ. eigenvalues --  -10.22902 -10.22830 -10.22705 -10.20172 -10.20126
 Alpha  occ. eigenvalues --  -10.20032 -10.19990 -10.19980 -10.19909 -10.19815
 Alpha  occ. eigenvalues --  -10.19772 -10.19683 -10.19587 -10.19580 -10.19514
 Alpha  occ. eigenvalues --  -10.19446 -10.19366 -10.19335 -10.19304 -10.19292
 Alpha  occ. eigenvalues --  -10.19228 -10.19206 -10.19173 -10.19146 -10.19146
 Alpha  occ. eigenvalues --  -10.19086 -10.19046 -10.19039 -10.18976 -10.18968
 Alpha  occ. eigenvalues --  -10.18965 -10.18954 -10.18918 -10.18909 -10.18893
 Alpha  occ. eigenvalues --  -10.18893 -10.18842 -10.18800 -10.18790 -10.18790
 Alpha  occ. eigenvalues --  -10.18775 -10.18743 -10.18727 -10.18692 -10.18670
 Alpha  occ. eigenvalues --  -10.18643 -10.18642 -10.18609 -10.18514 -10.18500
 Alpha  occ. eigenvalues --  -10.18452 -10.18389 -10.18334 -10.18273 -10.18255
 Alpha  occ. eigenvalues --   -0.96582  -0.96239  -0.88870  -0.87311  -0.86796
 Alpha  occ. eigenvalues --   -0.86615  -0.85770  -0.84505  -0.84254  -0.82560
 Alpha  occ. eigenvalues --   -0.82314  -0.81213  -0.80862  -0.79660  -0.77690
 Alpha  occ. eigenvalues --   -0.77076  -0.76806  -0.76443  -0.75304  -0.74809
 Alpha  occ. eigenvalues --   -0.74526  -0.74456  -0.74143  -0.73850  -0.73371
 Alpha  occ. eigenvalues --   -0.72715  -0.72030  -0.71867  -0.71221  -0.70547
 Alpha  occ. eigenvalues --   -0.68939  -0.64119  -0.63752  -0.63215  -0.62737
 Alpha  occ. eigenvalues --   -0.62387  -0.62143  -0.61816  -0.61399  -0.61224
 Alpha  occ. eigenvalues --   -0.60901  -0.60410  -0.59944  -0.59695  -0.59260
 Alpha  occ. eigenvalues --   -0.59033  -0.57690  -0.56894  -0.54335  -0.53699
 Alpha  occ. eigenvalues --   -0.53242  -0.52913  -0.52760  -0.52036  -0.51571
 Alpha  occ. eigenvalues --   -0.51031  -0.50868  -0.50519  -0.49887  -0.49743
 Alpha  occ. eigenvalues --   -0.49589  -0.49401  -0.48649  -0.47943  -0.47323
 Alpha  occ. eigenvalues --   -0.46221  -0.45986  -0.45084  -0.44971  -0.44940
 Alpha  occ. eigenvalues --   -0.44530  -0.44371  -0.44208  -0.43913  -0.43683
 Alpha  occ. eigenvalues --   -0.43272  -0.43089  -0.42916  -0.42837  -0.42373
 Alpha  occ. eigenvalues --   -0.42082  -0.41919  -0.41761  -0.41678  -0.41456
 Alpha  occ. eigenvalues --   -0.41304  -0.41018  -0.40813  -0.40528  -0.40516
 Alpha  occ. eigenvalues --   -0.40341  -0.39712  -0.39658  -0.38932  -0.38683
 Alpha  occ. eigenvalues --   -0.38542  -0.38220  -0.37996  -0.37265  -0.37227
 Alpha  occ. eigenvalues --   -0.37142  -0.36659  -0.36390  -0.35997  -0.35668
 Alpha  occ. eigenvalues --   -0.35452  -0.34888  -0.34567  -0.34476  -0.34137
 Alpha  occ. eigenvalues --   -0.34073  -0.33893  -0.33855  -0.33268  -0.33238
 Alpha  occ. eigenvalues --   -0.32948  -0.32675  -0.32562  -0.32514  -0.31887
 Alpha  occ. eigenvalues --   -0.30118  -0.29670  -0.28993  -0.28660  -0.27869
 Alpha  occ. eigenvalues --   -0.27679  -0.26939  -0.25566  -0.25303  -0.24913
 Alpha  occ. eigenvalues --   -0.24700  -0.24453  -0.24330  -0.22908  -0.22446
 Alpha  occ. eigenvalues --   -0.21779  -0.21520  -0.19956  -0.18641  -0.17759
 Alpha virt. eigenvalues --   -0.05912  -0.04354  -0.03567  -0.03463  -0.02342
 Alpha virt. eigenvalues --   -0.01674  -0.01099  -0.00861  -0.00725  -0.00034
 Alpha virt. eigenvalues --    0.00399   0.00560   0.01625   0.02726   0.03424

 Mulliken charges:
               1
     1  C   -0.129017
     2  C   -0.140231
     3  C   -0.160586
     4  C    0.292766
     5  N   -0.659223
     6  C    0.288245
     7  C   -0.157432
     8  C   -0.206201
     9  C    0.142598
    10  C   -0.194624
    11  C   -0.137567
    12  C   -0.136656
    13  C   -0.193112
    14  C    0.135997
    15  C   -0.268100
    16  C    0.195572
    17  C   -0.262040
    18  C    0.171139
    19  C   -0.230350
    20  C   -0.171453
    21  C   -0.001054
    22  C    0.067502
    23  C   -0.179688
    24  C   -0.169590
    25  C    0.292783
    26  N   -0.657554
    27  C    0.300048
    28  C   -0.163110
    29  C   -0.205673
    30  C    0.142903
    31  C   -0.194625
    32  C   -0.137393
    33  C   -0.136139
    34  C   -0.192331
    35  C    0.138874
    36  C   -0.268287
    37  C    0.174667
    38  C   -0.160744
    39  C   -0.148119
    40  C   -0.181499
    41  C    0.120025
    42  C   -0.196200
    43  C   -0.130184
    44  C   -0.137688
    45  C   -0.181447
    46  C    0.123498
    47  C   -0.184036
    48  C   -0.185298
    49  C    0.104501
    50  C   -0.203003
    51  C   -0.199805
    52  C    0.159436
    53  C   -0.219959
    54  C   -0.126343
    55  C   -0.217616
    56  C    0.146633
    57  C   -0.032688
    58  C    0.007879
    59  C   -0.175207
    60  C   -0.138805
    61  H    0.126136
    62  H    0.130335
    63  H    0.143576
    64  H    0.144442
    65  H    0.132016
    66  H    0.127696
    67  H    0.127273
    68  H    0.128016
    69  H    0.128955
    70  H    0.143733
    71  H    0.144480
    72  H    0.133493
    73  H    0.133937
    74  H    0.136779
    75  H    0.145433
    76  H    0.144814
    77  H    0.131687
    78  H    0.127536
    79  H    0.127776
    80  H    0.128676
    81  H    0.129729
    82  H    0.142357
    83  H    0.144051
    84  H    0.134691
    85  H    0.130599
    86  H    0.130990
    87  H    0.131707
    88  H    0.132979
    89  H    0.149619
    90  H    0.149039
    91  H    0.143499
    92  H    0.144408
    93  H    0.129060
    94  H    0.129137
    95  H    0.131747
    96  H    0.150316
    97  H    0.143936
    98  H    0.130957
 Sum of Mulliken charges =  -0.00000

 Dipole moment (field-independent basis, Debye):
    X=             -1.3472    Y=             -0.1961    Z=              0.4313  Tot=              1.4281
 Quadrupole moment (field-independent basis, Debye-Ang):
   XX=           -319.3046   YY=           -322.7372   ZZ=           -320.8844
   XY=              0.2597   XZ=             -6.0268   YZ=             -7.7355

 Normal termination of Gaussian 16 at Sat Nov  5 11:42:11 2022.
