 Gaussian 16, Revision B.01,
 Gaussian 16:  ES64L-G16RevB.01 20-Dec-2017

 -----------------------------
 #p b3lyp/6-31g(d) opt SCF=XQC
 -----------------------------

 ------------------------------
 Gaussian input prepared by ASE
 ------------------------------
 Symbolic Z-matrix:
 Charge =  0 Multiplicity = 1

 SCF Done:  E(RB3LYP) =  -1760.12123076     A.U. after   16 cycles
 SCF Done:  E(RB3LYP) =  -1760.13520034     A.U. after   15 cycles
 SCF Done:  E(RB3LYP) =  -1760.13818931     A.U. after   13 cycles
 SCF Done:  E(RB3LYP) =  -1760.13897909     A.U. after   12 cycles
 SCF Done:  E(RB3LYP) =  -1760.13924615     A.U. after   12 cycles
 SCF Done:  E(RB3LYP) =  -1760.13932144     A.U. after   11 cycles
 SCF Done:  E(RB3LYP) =  -1760.13933464     A.U. after   10 cycles
 SCF Done:  E(RB3LYP) =  -1760.13933873     A.U. after   10 cycles
 SCF Done:  E(RB3LYP) =  -1760.13934060     A.U. after   10 cycles
 SCF Done:  E(RB3LYP) =  -1760.13934190     A.U. after    9 cycles
 SCF Done:  E(RB3LYP) =  -1760.13934225     A.U. after    8 cycles
 SCF Done:  E(RB3LYP) =  -1760.13934238     A.U. after    8 cycles
 SCF Done:  E(RB3LYP) =  -1760.13934241     A.U. after    7 cycles
 SCF Done:  E(RB3LYP) =  -1760.13934243     A.U. after    7 cycles
 SCF Done:  E(RB3LYP) =  -1760.13934245     A.U. after    7 cycles
 Optimization completed.
    -- Stationary point found.

                         Standard orientation:
 ---------------------------------------------------------------------
 Center     Atomic      Atomic             Coordinates (Angstroms)
 Number     Number       Type             X           Y           Z
 ---------------------------------------------------------------------
      1          6           0       -6.336591   -1.298627   -1.306999
      2          6           0       -6.445340   -0.318042   -0.316841
      3          6           0       -5.365699    0.506852   -0.013669
      4          6           0       -4.156875    0.373835   -0.714294
      5          7           0       -3.055383    1.222384   -0.413303
      6          6           0       -3.256655    2.619261   -0.234302
      7          6           0       -2.517221    3.316570    0.735112
      8          6           0       -2.701456    4.685949    0.910074
      9          6           0       -3.635255    5.381657    0.138129
     10          6           0       -4.378529    4.689397   -0.819513
     11          6           0       -4.188468    3.322040   -1.014664
     12          6           0       -1.735589    0.719585   -0.490328
     13          6           0       -0.771393    1.342813   -1.256148
     14          6           0        0.553156    0.852436   -1.342119
     15          6           0        0.962344   -0.277386   -0.665779
     16          7           0        2.292953   -0.754449   -0.769711
     17          6           0        2.534337   -2.090487   -1.186405
     18          6           0        1.711123   -2.693212   -2.149186
     19          6           0        1.946155   -4.006555   -2.552681
     20          6           0        3.014527   -4.731889   -2.023053
     21          6           0        3.841678   -4.129084   -1.071892
     22          6           0        3.602189   -2.824825   -0.646677
     23          6           0        3.373348    0.136391   -0.537082
     24          6           0        4.505931    0.122008   -1.403398
     25          6           0        5.550137    0.990819   -1.202264
     26          6           0        5.532746    1.937339   -0.142123
     27          6           0        6.593937    2.851490    0.084946
     28          6           0        6.539452    3.752474    1.125643
     29          6           0        5.415023    3.775476    1.986944
     30          6           0        4.367801    2.903182    1.791177
     31          6           0        4.391811    1.962238    0.724972
     32          6           0        3.335209    1.042496    0.508838
     33          6           0        0.009163   -0.945086    0.190406
     34          7           0        0.406602   -1.990803    0.923550
     35          6           0       -0.492766   -2.564936    1.735825
     36          6           0       -0.111257   -3.686506    2.532765
     37          6           0       -1.024425   -4.273836    3.368979
     38          6           0       -2.361271   -3.778647    3.458160
     39          6           0       -2.764157   -2.703693    2.709650
     40          6           0       -1.842525   -2.065182    1.825770
     41          7           0       -2.241441   -1.011016    1.099051
     42          6           0       -1.350595   -0.442822    0.279810
     43          6           0       -4.053020   -0.601026   -1.716331
     44          6           0       -5.133108   -1.436544   -1.999262
     45          1           0       -7.179261   -1.945273   -1.534800
     46          1           0       -7.374267   -0.203127    0.235973
     47          1           0       -5.447085    1.252326    0.770724
     48          1           0       -1.804197    2.775878    1.349532
     49          1           0       -2.121358    5.208731    1.666135
     50          1           0       -3.782066    6.448213    0.282507
     51          1           0       -5.104050    5.217564   -1.432850
     52          1           0       -4.760375    2.792426   -1.769593
     53          1           0       -1.042148    2.224987   -1.827497
     54          1           0        1.264889    1.371476   -1.976558
     55          1           0        0.890968   -2.127461   -2.580507
     56          1           0        1.296461   -4.458324   -3.297989
     57          1           0        3.200337   -5.752401   -2.345699
     58          1           0        4.672705   -4.683441   -0.643142
     59          1           0        4.231561   -2.371303    0.112059
     60          1           0        4.528583   -0.581969   -2.228548
     61          1           0        6.405202    0.972164   -1.874204
     62          1           0        7.455038    2.828029   -0.579305
     63          1           0        7.358118    4.447767    1.289946
     64          1           0        5.381391    4.488763    2.806283
     65          1           0        3.504745    2.921751    2.452657
     66          1           0        2.481259    1.053510    1.179805
     67          1           0        0.909578   -4.044668    2.444173
     68          1           0       -0.735942   -5.128699    3.974461
     69          1           0       -3.062212   -4.267078    4.129520
     70          1           0       -3.774453   -2.309471    2.756028
     71          1           0       -3.125494   -0.699380   -2.272148
     72          1           0       -5.034288   -2.189330   -2.777197
 ---------------------------------------------------------------------

 The electronic state is 1-A.
 Alpha  occ. eigenvalues --  -14.36342 -14.36338 -14.34131 -14.34114 -10.23715
 Alpha  occ. eigenvalues --  -10.23674 -10.23451 -10.23295 -10.23233 -10.23194
 Alpha  occ. eigenvalues --  -10.22871 -10.22802 -10.22382 -10.22375 -10.20310
 Alpha  occ. eigenvalues --  -10.20267 -10.20016 -10.19919 -10.19626 -10.19618
 Alpha  occ. eigenvalues --  -10.19494 -10.19214 -10.18993 -10.18908 -10.18901
 Alpha  occ. eigenvalues --  -10.18812 -10.18734 -10.18706 -10.18613 -10.18578
 Alpha  occ. eigenvalues --  -10.18569 -10.18568 -10.18525 -10.18495 -10.18482
 Alpha  occ. eigenvalues --  -10.18464 -10.18450 -10.18356 -10.18192 -10.18133
 Alpha  occ. eigenvalues --  -10.18106 -10.18067 -10.18049 -10.17989  -0.98472
 Alpha  occ. eigenvalues --   -0.96372  -0.95808  -0.90807  -0.86738  -0.86031
 Alpha  occ. eigenvalues --   -0.84963  -0.84225  -0.83890  -0.82635  -0.81006
 Alpha  occ. eigenvalues --   -0.76893  -0.76695  -0.75853  -0.75006  -0.74666
 Alpha  occ. eigenvalues --   -0.74303  -0.74203  -0.73806  -0.73592  -0.72502
 Alpha  occ. eigenvalues --   -0.71167  -0.69382  -0.67960  -0.65036  -0.63682
 Alpha  occ. eigenvalues --   -0.61969  -0.61726  -0.61555  -0.60494  -0.60322
 Alpha  occ. eigenvalues --   -0.59765  -0.59525  -0.59155  -0.58072  -0.56677
 Alpha  occ. eigenvalues --   -0.56353  -0.54968  -0.53389  -0.52859  -0.52204
 Alpha  occ. eigenvalues --   -0.51224  -0.50948  -0.49796  -0.49305  -0.48748
 Alpha  occ. eigenvalues --   -0.47996  -0.47573  -0.47271  -0.47034  -0.45550
 Alpha  occ. eigenvalues --   -0.45259  -0.44632  -0.44376  -0.44021  -0.43736
 Alpha  occ. eigenvalues --   -0.43586  -0.43505  -0.43353  -0.42999  -0.42705
 Alpha  occ. eigenvalues --   -0.41889  -0.41791  -0.41544  -0.41505  -0.41374
 Alpha  occ. eigenvalues --   -0.40895  -0.40113  -0.39509  -0.38593  -0.37245
 Alpha  occ. eigenvalues --   -0.37214  -0.37022  -0.36618  -0.36485  -0.36200
 Alpha  occ. eigenvalues --   -0.36076  -0.35992  -0.35453  -0.35257  -0.34719
 Alpha  occ. eigenvalues --   -0.34301  -0.34141  -0.33938  -0.33847  -0.33188
 Alpha  occ. eigenvalues --   -0.32684  -0.32572  -0.30798  -0.29604  -0.29087
 Alpha  occ. eigenvalues --   -0.27865  -0.26442  -0.25744  -0.25402  -0.24916
 Alpha  occ. eigenvalues --   -0.24690  -0.24310  -0.24241  -0.23659  -0.22862
 Alpha  occ. eigenvalues --   -0.21618  -0.19464  -0.17267
 Alpha virt. eigenvalues --   -0.08879  -0.03527  -0.02703  -0.01337  -0.00753
 Alpha virt. eigenvalues --   -0.00576  -0.00196   0.00751   0.01102   0.01402
 Alpha virt. eigenvalues --    0.02003   0.03596   0.04413   0.05270   0.09458

 Mulliken charges:
               1
     1  C   -0.128792
     2  C   -0.143184
     3  C   -0.153555
     4  C    0.321555
     5  N   -0.644315
     6  C    0.275284
     7  C   -0.155469
     8  C   -0.139695
     9  C   -0.128543
    10  C   -0.140306
    11  C   -0.168635
    12  C    0.258219
    13  C   -0.199036
    14  C   -0.189696
    15  C    0.249798
    16  N   -0.649541
    17  C    0.326823
    18  C   -0.173952
    19  C   -0.138067
    20  C   -0.129273
    21  C   -0.142729
    22  C   -0.160002
    23  C    0.287266
    24  C   -0.165967
    25  C   -0.207283
    26  C    0.142937
    27  C   -0.194067
    28  C   -0.137613
    29  C   -0.136581
    30  C   -0.192002
    31  C    0.136988
    32  C   -0.251167
    33  C    0.258487
    34  N   -0.565443
    35  C    0.285506
    36  C   -0.152822
    37  C   -0.135890
    38  C   -0.136119
    39  C   -0.152707
    40  C    0.284798
    41  N   -0.564803
    42  C    0.256476
    43  C   -0.172230
    44  C   -0.138578
    45  H    0.124292
    46  H    0.127890
    47  H    0.142528
    48  H    0.138631
    49  H    0.130742
    50  H    0.127173
    51  H    0.130992
    52  H    0.145475
    53  H    0.153541
    54  H    0.151822
    55  H    0.132519
    56  H    0.127347
    57  H    0.123945
    58  H    0.127913
    59  H    0.144227
    60  H    0.147205
    61  H    0.131698
    62  H    0.127770
    63  H    0.127554
    64  H    0.128148
    65  H    0.128082
    66  H    0.136867
    67  H    0.153768
    68  H    0.139929
    69  H    0.139809
    70  H    0.153670
    71  H    0.132643
    72  H    0.127748
 Sum of Mulliken charges =  -0.00000

 Dipole moment (field-independent basis, Debye):
    X=             -0.3889    Y=             -0.2962    Z=              0.2940  Tot=              0.5704
 Quadrupole moment (field-independent basis, Debye-Ang):
   XX=           -237.5300   YY=           -230.5858   ZZ=           -237.8568
   XY=              3.3857   XZ=             -2.3736   YZ=             -1.3497

 1\1\GINC-NODE26\FOpt\RB3LYP\6-31G(d)\C40H28N4\WYKGROUP\05-Nov-2022\0\\
 #p b3lyp/6-31g(d) opt SCF=XQC\\Gaussian input prepared by ASE\\0,1\C,-
 6.3717886134,0.8894693976,1.3852762443\C,-6.4392459028,0.4903473135,0.
 0473912523\C,-5.3604990359,-0.1486278705,-0.5575914727\C,-4.1952371096
 ,-0.415848362,0.1776511278\N,-3.0953237779,-1.0777817326,-0.4354968725
 \C,-3.3145723414,-2.2184835696,-1.2568036065\C,-2.5309868559,-2.417729
 4601,-2.405307751\C,-2.7329059881,-3.5368438716,-3.2093999435\C,-3.727
 6137063,-4.4666093949,-2.8963782142\C,-4.5144029305,-4.2661484709,-1.7

 Normal termination of Gaussian 16 at Sat Nov  5 02:09:32 2022.
