 Gaussian 16, Revision B.01,
 Gaussian 16:  ES64L-G16RevB.01 20-Dec-2017

 -------------------------------------------------------------------
 #p b3lyp/6-31g(d) 6D 10F nosymm GFInput td=(50-50,nstate=2) SCF=XQC
 -------------------------------------------------------------------

 ------------------------------
 Gaussian input prepared by ASE
 ------------------------------
 Symbolic Z-matrix:
 Charge =  0 Multiplicity = 1

                          Input orientation:
 ---------------------------------------------------------------------
 Center     Atomic      Atomic             Coordinates (Angstroms)
 Number     Number       Type             X           Y           Z
 ---------------------------------------------------------------------
      1          6           0       -6.371789    0.889469    1.385276
      2          6           0       -6.439246    0.490347    0.047391
      3          6           0       -5.360499   -0.148628   -0.557591
      4          6           0       -4.195237   -0.415848    0.177651
      5          7           0       -3.095324   -1.077782   -0.435497
      6          6           0       -3.314572   -2.218484   -1.256804
      7          6           0       -2.530987   -2.417729   -2.405308
      8          6           0       -2.732906   -3.536844   -3.209400
      9          6           0       -3.727614   -4.466609   -2.896378
     10          6           0       -4.514403   -4.266148   -1.760800
     11          6           0       -4.307974   -3.158516   -0.939576
     12          6           0       -1.772560   -0.732861   -0.072286
     13          6           0       -0.871486   -1.686737    0.355209
     14          6           0        0.455201   -1.357190    0.720712
     15          6           0        0.929667   -0.063420    0.671621
     16          7           0        2.260996    0.245700    1.047010
     17          6           0        2.504139    1.219885    2.051373
     18          6           0        1.635366    1.342696    3.145931
     19          6           0        1.872514    2.303295    4.127730
     20          6           0        2.986998    3.139764    4.048490
     21          6           0        3.858972    3.011273    2.964326
     22          6           0        3.618926    2.069042    1.967415
     23          6           0        3.334693   -0.484460    0.473420
     24          6           0        4.411021   -0.930089    1.295849
     25          6           0        5.447109   -1.653746    0.758729
     26          6           0        5.475902   -1.994519   -0.620817
     27          6           0        6.529596   -2.746942   -1.201288
     28          6           0        6.521127   -3.054785   -2.544028
     29          6           0        5.452440   -2.619499   -3.365700
     30          6           0        4.413752   -1.890118   -2.831820
     31          6           0        4.391066   -1.557415   -1.449236
     32          6           0        3.342752   -0.795174   -0.875587
     33          6           0        0.046168    0.971354    0.185718
     34          7           0        0.510674    2.217892    0.046582
     35          6           0       -0.323853    3.146962   -0.441962
     36          6           0        0.130350    4.491016   -0.602586
     37          6           0       -0.716173    5.443569   -1.106697
     38          6           0       -2.055031    5.111858   -1.477842
     39          6           0       -2.526552    3.832590   -1.339088
     40          6           0       -1.675645    2.812194   -0.816505
     41          7           0       -2.141403    1.561261   -0.687062
     42          6           0       -1.315689    0.634596   -0.189975
     43          6           0       -4.133526   -0.027087    1.523116
     44          6           0       -5.211230    0.630733    2.115193
     45          1           0       -7.213150    1.394793    1.850997
     46          1           0       -7.334067    0.691202   -0.536277
     47          1           0       -5.408520   -0.437359   -1.602558
     48          1           0       -1.769695   -1.687772   -2.661933
     49          1           0       -2.117935   -3.673801   -4.095118
     50          1           0       -3.887685   -5.334304   -3.529957
     51          1           0       -5.287833   -4.983940   -1.499830
     52          1           0       -4.914557   -3.015390   -0.051287
     53          1           0       -1.196017   -2.719435    0.433915
     54          1           0        1.114773   -2.145662    1.069647
     55          1           0        0.778078    0.681134    3.224407
     56          1           0        1.187265    2.385878    4.967548
     57          1           0        3.173877    3.881778    4.819569
     58          1           0        4.726707    3.661051    2.883274
     59          1           0        4.284698    1.992147    1.114007
     60          1           0        4.397013   -0.694204    2.354684
     61          1           0        6.258750   -1.991642    1.399081
     62          1           0        7.347843   -3.077297   -0.565196
     63          1           0        7.333541   -3.631542   -2.977592
     64          1           0        5.454933   -2.865791   -4.424265
     65          1           0        3.593485   -1.556641   -3.463265
     66          1           0        2.532325   -0.451035   -1.511451
     67          1           0        1.151019    4.717118   -0.310446
     68          1           0       -0.372399    6.467213   -1.227511
     69          1           0       -2.702178    5.889996   -1.873204
     70          1           0       -3.540105    3.554444   -1.610391
     71          1           0       -3.240642   -0.243903    2.101613
     72          1           0       -5.145255    0.928098    3.158676
 ---------------------------------------------------------------------

 SCF Done:  E(RB3LYP) =  -1760.13933686     A.U. after   16 cycles

 Excitation energies and oscillator strengths:

 Excited state symmetry could not be determined.
 Excited State   1:      Triplet-?Sym    1.3052 eV  949.95 nm  f=0.0000  <S**2>=2.000
     145 ->149         0.19847
     148 ->149         0.66970
 This state for optimization and/or second-order correction.
 Total Energy, E(TD-HF/TD-DFT) =  -1760.09137308
 Copying the excited state density for this state as the 1-particle RhoCI density.

 Excited state symmetry could not be determined.
 Excited State   2:      Singlet-?Sym    1.7427 eV  711.43 nm  f=0.0920  <S**2>=0.000
     148 ->149         0.70548

 Excited state symmetry could not be determined.
 Excited State   3:      Triplet-?Sym    2.1317 eV  581.62 nm  f=0.0000  <S**2>=2.000
     144 ->149        -0.13505
     147 ->149         0.67157

 Excited state symmetry could not be determined.
 Excited State   4:      Singlet-?Sym    2.3061 eV  537.64 nm  f=0.0108  <S**2>=0.000
     147 ->149         0.70050

 Alpha  occ. eigenvalues --  -14.36342 -14.36338 -14.34131 -14.34114 -10.23715
 Alpha  occ. eigenvalues --  -10.23674 -10.23451 -10.23295 -10.23233 -10.23194
 Alpha  occ. eigenvalues --  -10.22870 -10.22802 -10.22382 -10.22375 -10.20310
 Alpha  occ. eigenvalues --  -10.20267 -10.20016 -10.19919 -10.19626 -10.19618
 Alpha  occ. eigenvalues --  -10.19494 -10.19214 -10.18992 -10.18908 -10.18901
 Alpha  occ. eigenvalues --  -10.18812 -10.18733 -10.18705 -10.18613 -10.18578
 Alpha  occ. eigenvalues --  -10.18569 -10.18568 -10.18525 -10.18495 -10.18482
 Alpha  occ. eigenvalues --  -10.18464 -10.18450 -10.18356 -10.18192 -10.18133
 Alpha  occ. eigenvalues --  -10.18106 -10.18067 -10.18049 -10.17989  -0.98472
 Alpha  occ. eigenvalues --   -0.96372  -0.95808  -0.90807  -0.86738  -0.86031
 Alpha  occ. eigenvalues --   -0.84963  -0.84225  -0.83890  -0.82635  -0.81006
 Alpha  occ. eigenvalues --   -0.76894  -0.76695  -0.75853  -0.75006  -0.74666
 Alpha  occ. eigenvalues --   -0.74303  -0.74203  -0.73806  -0.73593  -0.72502
 Alpha  occ. eigenvalues --   -0.71167  -0.69382  -0.67960  -0.65036  -0.63682
 Alpha  occ. eigenvalues --   -0.61969  -0.61726  -0.61555  -0.60494  -0.60322
 Alpha  occ. eigenvalues --   -0.59765  -0.59525  -0.59155  -0.58072  -0.56677
 Alpha  occ. eigenvalues --   -0.56353  -0.54968  -0.53388  -0.52859  -0.52204
 Alpha  occ. eigenvalues --   -0.51224  -0.50948  -0.49795  -0.49305  -0.48748
 Alpha  occ. eigenvalues --   -0.47996  -0.47573  -0.47271  -0.47034  -0.45550
 Alpha  occ. eigenvalues --   -0.45259  -0.44632  -0.44376  -0.44021  -0.43736
 Alpha  occ. eigenvalues --   -0.43586  -0.43505  -0.43353  -0.42999  -0.42705
 Alpha  occ. eigenvalues --   -0.41889  -0.41791  -0.41544  -0.41505  -0.41374
 Alpha  occ. eigenvalues --   -0.40895  -0.40113  -0.39509  -0.38593  -0.37245
 Alpha  occ. eigenvalues --   -0.37214  -0.37022  -0.36618  -0.36485  -0.36200
 Alpha  occ. eigenvalues --   -0.36076  -0.35992  -0.35453  -0.35257  -0.34719
 Alpha  occ. eigenvalues --   -0.34301  -0.34141  -0.33938  -0.33847  -0.33188
 Alpha  occ. eigenvalues --   -0.32684  -0.32572  -0.30798  -0.29604  -0.29087
 Alpha  occ. eigenvalues --   -0.27865  -0.26442  -0.25744  -0.25402  -0.24916
 Alpha  occ. eigenvalues --   -0.24690  -0.24310  -0.24241  -0.23659  -0.22862
 Alpha  occ. eigenvalues --   -0.21618  -0.19464  -0.17267
 Alpha virt. eigenvalues --   -0.08879  -0.03527  -0.02702  -0.01337  -0.00753
 Alpha virt. eigenvalues --   -0.00576  -0.00196   0.00751   0.01102   0.01402
 Alpha virt. eigenvalues --    0.02003   0.03596   0.04413   0.05270   0.09458

 Mulliken charges:
               1
     1  C   -0.128797
     2  C   -0.143175
     3  C   -0.153548
     4  C    0.321527
     5  N   -0.644293
     6  C    0.275289
     7  C   -0.155481
     8  C   -0.139708
     9  C   -0.128516
    10  C   -0.140323
    11  C   -0.168644
    12  C    0.258217
    13  C   -0.199038
    14  C   -0.189702
    15  C    0.249809
    16  N   -0.649572
    17  C    0.326841
    18  C   -0.173968
    19  C   -0.138070
    20  C   -0.129266
    21  C   -0.142716
    22  C   -0.160023
    23  C    0.287340
    24  C   -0.165996
    25  C   -0.207274
    26  C    0.142929
    27  C   -0.194065
    28  C   -0.137607
    29  C   -0.136579
    30  C   -0.192010
    31  C    0.137001
    32  C   -0.251198
    33  C    0.258485
    34  N   -0.565437
    35  C    0.285512
    36  C   -0.152830
    37  C   -0.135894
    38  C   -0.136115
    39  C   -0.152702
    40  C    0.284798
    41  N   -0.564803
    42  C    0.256481
    43  C   -0.172223
    44  C   -0.138577
    45  H    0.124291
    46  H    0.127889
    47  H    0.142528
    48  H    0.138632
    49  H    0.130744
    50  H    0.127172
    51  H    0.130994
    52  H    0.145472
    53  H    0.153541
    54  H    0.151831
    55  H    0.132518
    56  H    0.127346
    57  H    0.123944
    58  H    0.127912
    59  H    0.144228
    60  H    0.147202
    61  H    0.131698
    62  H    0.127770
    63  H    0.127551
    64  H    0.128146
    65  H    0.128083
    66  H    0.136868
    67  H    0.153770
    68  H    0.139930
    69  H    0.139809
    70  H    0.153664
    71  H    0.132641
    72  H    0.127748
 Sum of Mulliken charges =  -0.00000

 Dipole moment (field-independent basis, Debye):
    X=             -0.3632    Y=              0.4173    Z=             -0.1383  Tot=              0.5703
 Quadrupole moment (field-independent basis, Debye-Ang):
   XX=           -237.9676   YY=           -230.6382   ZZ=           -237.3060
   XY=             -3.8848   XZ=              0.6307   YZ=              1.9963

 Normal termination of Gaussian 16 at Sat Nov  5 11:29:53 2022.
