 Gaussian 16, Revision B.01,
 Gaussian 16:  ES64L-G16RevB.01 20-Dec-2017

 -----------------------------
 #p b3lyp/6-31g(d) opt SCF=XQC
 -----------------------------

 ------------------------------
 Gaussian input prepared by ASE
 ------------------------------
 Symbolic Z-matrix:
 Charge =  0 Multiplicity = 1

 SCF Done:  E(RB3LYP) =  -1748.95055276     A.U. after   16 cycles
 SCF Done:  E(RB3LYP) =  -1748.95952970     A.U. after   13 cycles
 SCF Done:  E(RB3LYP) =  -1748.95990984     A.U. after   12 cycles
 SCF Done:  E(RB3LYP) =  -1748.96008424     A.U. after   12 cycles
 SCF Done:  E(RB3LYP) =  -1748.96015733     A.U. after   12 cycles
 SCF Done:  E(RB3LYP) =  -1748.96019953     A.U. after   12 cycles
 SCF Done:  E(RB3LYP) =  -1748.96022123     A.U. after   12 cycles
 SCF Done:  E(RB3LYP) =  -1748.96023020     A.U. after   12 cycles
 SCF Done:  E(RB3LYP) =  -1748.96023457     A.U. after   12 cycles
 SCF Done:  E(RB3LYP) =  -1748.96023552     A.U. after   10 cycles
 SCF Done:  E(RB3LYP) =  -1748.96023562     A.U. after    9 cycles
 SCF Done:  E(RB3LYP) =  -1748.96023548     A.U. after    9 cycles
 Optimization completed.
    -- Stationary point found.

                         Standard orientation:
 ---------------------------------------------------------------------
 Center     Atomic      Atomic             Coordinates (Angstroms)
 Number     Number       Type             X           Y           Z
 ---------------------------------------------------------------------
      1          6           0       -9.800328    0.664675    1.407211
      2          6           0       -9.761068    0.933320    0.037831
      3          6           0       -8.617811    0.637971   -0.703242
      4          6           0       -7.488377    0.066565   -0.092879
      5          6           0       -6.270865   -0.248935   -0.884207
      6          6           0       -6.367963   -0.749043   -2.193289
      7          6           0       -5.221251   -1.041306   -2.929133
      8          6           0       -3.956357   -0.843079   -2.374594
      9          6           0       -3.829386   -0.346042   -1.069419
     10          6           0       -2.476840   -0.121474   -0.464197
     11          6           0       -1.804036    1.101801   -0.674051
     12          6           0       -2.382404    2.156820   -1.452353
     13          6           0       -1.723537    3.340432   -1.651968
     14          6           0       -0.436655    3.550161   -1.083424
     15          6           0        0.153986    2.571043   -0.330198
     16          6           0       -0.496229    1.316185   -0.093811
     17          6           0        0.102597    0.302383    0.684424
     18          6           0        1.459020    0.519342    1.283409
     19          6           0        1.598780    1.043011    2.577021
     20          6           0        2.866552    1.237788    3.126962
     21          6           0        4.010829    0.904561    2.403897
     22          6           0        3.884609    0.391330    1.106919
     23          7           0        5.042462    0.054616    0.356390
     24          6           0        5.304703   -1.188464   -0.233840
     25          6           0        4.543296   -2.360558   -0.214518
     26          6           0        5.054294   -3.476722   -0.873569
     27          6           0        6.294620   -3.435112   -1.533250
     28          6           0        7.053772   -2.268739   -1.538735
     29          6           0        6.564077   -1.132742   -0.883688
     30          6           0        7.083434    0.203453   -0.680423
     31          6           0        8.253201    0.856374   -1.086145
     32          6           0        8.445083    2.188402   -0.731207
     33          6           0        7.474616    2.874438    0.019002
     34          6           0        6.302003    2.248147    0.436340
     35          6           0        6.121137    0.906467    0.088460
     36          6           0        2.612310    0.208052    0.551429
     37          6           0       -0.570843   -0.919650    0.898167
     38          6           0        0.003511   -1.972342    1.682927
     39          6           0       -0.654089   -3.157421    1.879127
     40          6           0       -1.935825   -3.371145    1.300568
     41          6           0       -2.524252   -2.392317    0.545085
     42          6           0       -1.876622   -1.134998    0.314220
     43          6           0       -4.989851   -0.054087   -0.341774
     44          6           0       -7.543227   -0.198346    1.286052
     45          6           0       -8.685782    0.097705    2.027923
     46          1           0      -10.691078    0.895235    1.985290
     47          1           0      -10.619651    1.382613   -0.454466
     48          1           0       -8.588639    0.876145   -1.762949
     49          1           0       -7.347574   -0.933505   -2.625000
     50          1           0       -5.313332   -1.435375   -3.937866
     51          1           0       -3.063303   -1.072892   -2.949095
     52          1           0       -3.364088    2.001939   -1.885960
     53          1           0       -2.183961    4.125219   -2.246081
     54          1           0        0.077632    4.493147   -1.248299
     55          1           0        1.134529    2.737090    0.102167
     56          1           0        0.710261    1.294619    3.148919
     57          1           0        2.964545    1.638008    4.132400
     58          1           0        4.997964    1.026705    2.838145
     59          1           0        3.587343   -2.405115    0.296544
     60          1           0        4.478585   -4.398339   -0.874295
     61          1           0        6.663294   -4.322585   -2.039700
     62          1           0        8.017035   -2.239845   -2.041512
     63          1           0        8.999532    0.329676   -1.675266
     64          1           0        9.349527    2.705142   -1.039391
     65          1           0        7.637695    3.916971    0.278742
     66          1           0        5.553755    2.788249    1.006884
     67          1           0        2.522250   -0.173108   -0.460912
     68          1           0        0.979170   -1.813972    2.129388
     69          1           0       -0.196755   -3.939752    2.478968
     70          1           0       -2.447701   -4.316388    1.459906
     71          1           0       -3.500903   -2.559867    0.104723
     72          1           0       -4.891114    0.356688    0.659078
     73          1           0       -6.691418   -0.663260    1.774630
     74          1           0       -8.707821   -0.123168    3.091908
 ---------------------------------------------------------------------

 The electronic state is 1-A.
 Alpha  occ. eigenvalues --  -14.38092 -10.24042 -10.22244 -10.22215 -10.20833
 Alpha  occ. eigenvalues --  -10.20223 -10.20206 -10.20199 -10.20129 -10.20121
 Alpha  occ. eigenvalues --  -10.20090 -10.20083 -10.20067 -10.20041 -10.20034
 Alpha  occ. eigenvalues --  -10.20008 -10.19940 -10.19804 -10.19377 -10.19214
 Alpha  occ. eigenvalues --  -10.19196 -10.19157 -10.19152 -10.19133 -10.19064
 Alpha  occ. eigenvalues --  -10.19060 -10.19046 -10.19020 -10.18978 -10.18955
 Alpha  occ. eigenvalues --  -10.18893 -10.18835 -10.18758 -10.18723 -10.18668
 Alpha  occ. eigenvalues --  -10.18667 -10.18642 -10.18604 -10.18588 -10.18572
 Alpha  occ. eigenvalues --  -10.18564 -10.18522 -10.18495 -10.17978 -10.17926
 Alpha  occ. eigenvalues --   -0.98788  -0.88818  -0.87247  -0.86592  -0.84789
 Alpha  occ. eigenvalues --   -0.84633  -0.84057  -0.83987  -0.80448  -0.80276
 Alpha  occ. eigenvalues --   -0.78176  -0.77374  -0.75603  -0.75258  -0.74859
 Alpha  occ. eigenvalues --   -0.74686  -0.74448  -0.73926  -0.73668  -0.72068
 Alpha  occ. eigenvalues --   -0.71315  -0.71253  -0.69598  -0.64827  -0.64490
 Alpha  occ. eigenvalues --   -0.62936  -0.62454  -0.61722  -0.61606  -0.61383
 Alpha  occ. eigenvalues --   -0.60061  -0.59417  -0.58786  -0.58531  -0.57495
 Alpha  occ. eigenvalues --   -0.57133  -0.55749  -0.54048  -0.52827  -0.52478
 Alpha  occ. eigenvalues --   -0.52364  -0.51264  -0.51062  -0.49903  -0.49079
 Alpha  occ. eigenvalues --   -0.48607  -0.47441  -0.46733  -0.46480  -0.46350
 Alpha  occ. eigenvalues --   -0.45996  -0.45421  -0.45055  -0.44662  -0.44503
 Alpha  occ. eigenvalues --   -0.43878  -0.43707  -0.43372  -0.42980  -0.42883
 Alpha  occ. eigenvalues --   -0.42679  -0.42145  -0.41901  -0.41758  -0.41736
 Alpha  occ. eigenvalues --   -0.41474  -0.41144  -0.40582  -0.40011  -0.39254
 Alpha  occ. eigenvalues --   -0.37697  -0.37458  -0.37404  -0.37219  -0.36722
 Alpha  occ. eigenvalues --   -0.36545  -0.36077  -0.35882  -0.35856  -0.35722
 Alpha  occ. eigenvalues --   -0.35388  -0.34861  -0.34302  -0.34126  -0.33716
 Alpha  occ. eigenvalues --   -0.33677  -0.33422  -0.33216  -0.32250  -0.31351
 Alpha  occ. eigenvalues --   -0.29942  -0.29017  -0.27612  -0.27509  -0.26287
 Alpha  occ. eigenvalues --   -0.25755  -0.25345  -0.25104  -0.24945  -0.24807
 Alpha  occ. eigenvalues --   -0.23932  -0.22553  -0.20989  -0.19627  -0.19166
 Alpha virt. eigenvalues --   -0.06333  -0.03040  -0.02403  -0.02123  -0.01558
 Alpha virt. eigenvalues --   -0.01068  -0.00515  -0.00102   0.00951   0.01012
 Alpha virt. eigenvalues --    0.02813   0.03565   0.04185   0.04660   0.06508

 Mulliken charges:
               1
     1  C   -0.126251
     2  C   -0.133699
     3  C   -0.173748
     4  C    0.088036
     5  C    0.092106
     6  C   -0.174161
     7  C   -0.135710
     8  C   -0.149640
     9  C    0.005211
    10  C   -0.079411
    11  C    0.105570
    12  C   -0.196981
    13  C   -0.134265
    14  C   -0.133510
    15  C   -0.197719
    16  C    0.109399
    17  C   -0.083531
    18  C   -0.003587
    19  C   -0.143302
    20  C   -0.144814
    21  C   -0.151914
    22  C    0.276924
    23  N   -0.738469
    24  C    0.311755
    25  C   -0.177252
    26  C   -0.142336
    27  C   -0.144448
    28  C   -0.197184
    29  C    0.059921
    30  C    0.059224
    31  C   -0.197062
    32  C   -0.144763
    33  C   -0.142022
    34  C   -0.176424
    35  C    0.312652
    36  C   -0.180526
    37  C    0.108951
    38  C   -0.202294
    39  C   -0.133774
    40  C   -0.134853
    41  C   -0.198099
    42  C    0.105599
    43  C   -0.203416
    44  C   -0.172920
    45  C   -0.133988
    46  H    0.130394
    47  H    0.131007
    48  H    0.132009
    49  H    0.134095
    50  H    0.133883
    51  H    0.139002
    52  H    0.147683
    53  H    0.130545
    54  H    0.130680
    55  H    0.143595
    56  H    0.142195
    57  H    0.139943
    58  H    0.153159
    59  H    0.142346
    60  H    0.127353
    61  H    0.123686
    62  H    0.129320
    63  H    0.129651
    64  H    0.123733
    65  H    0.126071
    66  H    0.137576
    67  H    0.159322
    68  H    0.144607
    69  H    0.130212
    70  H    0.130381
    71  H    0.147145
    72  H    0.140509
    73  H    0.135013
    74  H    0.131611
 Sum of Mulliken charges =  -0.00000

 Dipole moment (field-independent basis, Debye):
    X=             -1.8185    Y=              0.3805    Z=              0.7396  Tot=              1.9997
 Quadrupole moment (field-independent basis, Debye-Ang):
   XX=           -240.7741   YY=           -244.3353   ZZ=           -243.4921
   XY=              2.6536   XZ=              3.3153   YZ=              1.7760

 1\1\GINC-NODE49\FOpt\RB3LYP\6-31G(d)\C44H29N1\WYKGROUP\05-Nov-2022\0\\
 #p b3lyp/6-31g(d) opt SCF=XQC\\Gaussian input prepared by ASE\\0,1\C,9
 .6728695801,-0.0523341423,1.4973717135\C,9.6753338696,-0.3184282533,0.
 1269338204\C,8.5291231825,-0.0937583873,-0.634105755\C,7.3549191517,0.
 4028480504,-0.0430934882\C,6.1342378328,0.6430832384,-0.8556824302\C,6
 .2228801334,1.1526410054,-2.1617168813\C,5.0733233198,1.3739957183,-2.
 9175979076\C,3.8138129308,1.0941140422,-2.3865018941\C,3.6952384577,0.
 5857385993,-1.0849087237\C,2.3490286207,0.2738425377,-0.5047842004\C,1

 Normal termination of Gaussian 16 at Sat Nov  5 02:00:08 2022.
