 Gaussian 16, Revision B.01,
 Gaussian 16:  ES64L-G16RevB.01 20-Dec-2017

 -------------------------------------------------------------------
 #p b3lyp/6-31g(d) 6D 10F nosymm GFInput td=(50-50,nstate=2) SCF=XQC
 -------------------------------------------------------------------

 ------------------------------
 Gaussian input prepared by ASE
 ------------------------------
 Symbolic Z-matrix:
 Charge =  0 Multiplicity = 1

                          Input orientation:
 ---------------------------------------------------------------------
 Center     Atomic      Atomic             Coordinates (Angstroms)
 Number     Number       Type             X           Y           Z
 ---------------------------------------------------------------------
      1          6           0        9.672870   -0.052334    1.497372
      2          6           0        9.675334   -0.318428    0.126934
      3          6           0        8.529123   -0.093758   -0.634106
      4          6           0        7.354919    0.402848   -0.043093
      5          6           0        6.134238    0.643083   -0.855682
      6          6           0        6.222880    1.152641   -2.161717
      7          6           0        5.073323    1.373996   -2.917598
      8          6           0        3.813813    1.094114   -2.386502
      9          6           0        3.695238    0.585739   -1.084909
     10          6           0        2.349029    0.273843   -0.504784
     11          6           0        1.759111   -0.988950   -0.729415
     12          6           0        2.417164   -2.002595   -1.499362
     13          6           0        1.838451   -3.224953   -1.713418
     14          6           0        0.557479   -3.517755   -1.168742
     15          6           0       -0.107553   -2.580553   -0.424253
     16          6           0        0.457345   -1.287762   -0.173435
     17          6           0       -0.218504   -0.316548    0.595986
     18          6           0       -1.568954   -0.621075    1.169821
     19          6           0       -1.698392   -1.156803    2.459564
     20          6           0       -2.960911   -1.433408    2.986017
     21          6           0       -4.110867   -1.171061    2.243046
     22          6           0       -3.994217   -0.646599    0.949670
     23          7           0       -5.157448   -0.381542    0.178999
     24          6           0       -5.487431    0.844333   -0.413226
     25          6           0       -4.802434    2.062293   -0.377599
     26          6           0       -5.371340    3.145956   -1.043413
     27          6           0       -6.594480    3.027923   -1.725555
     28          6           0       -7.277839    1.815769   -1.747295
     29          6           0       -6.728858    0.710976   -1.085912
     30          6           0       -7.165912   -0.656133   -0.894953
     31          6           0       -8.284399   -1.380601   -1.323207
     32          6           0       -8.397679   -2.723277   -0.974656
     33          6           0       -7.399246   -3.348836   -0.208450
     34          6           0       -6.276435   -2.650801    0.231412
     35          6           0       -6.174888   -1.299214   -0.110260
     36          6           0       -2.726351   -0.381163    0.417725
     37          6           0        0.372056    0.945032    0.824514
     38          6           0       -0.281959    1.956588    1.600985
     39          6           0        0.295457    3.180341    1.811608
     40          6           0        1.571221    3.476837    1.256834
     41          6           0        2.234066    2.539791    0.510048
     42          6           0        1.671805    1.244690    0.264793
     43          6           0        4.858645    0.365591   -0.336976
     44          6           0        7.368076    0.666173    1.337169
     45          6           0        8.513617    0.440755    2.098992
     46          1           0       10.565938   -0.227827    2.091006
     47          1           0       10.569405   -0.710737   -0.350680
     48          1           0        8.534158   -0.329820   -1.694675
     49          1           0        7.196398    1.400286   -2.575205
     50          1           0        5.158299    1.776424   -3.923651
     51          1           0        2.918430    1.268703   -2.976603
     52          1           0        3.394662   -1.784333   -1.914772
     53          1           0        2.358356   -3.976999   -2.300765
     54          1           0        0.107133   -4.490917   -1.344929
     55          1           0       -1.083181   -2.809882   -0.010088
     56          1           0       -0.806103   -1.353422    3.046933
     57          1           0       -3.051335   -1.842340    3.988656
     58          1           0       -5.095894   -1.357000    2.659068
     59          1           0       -3.860567    2.165718    0.150801
     60          1           0       -4.855376    4.102232   -1.031733
     61          1           0       -7.009595    3.891882   -2.236704
     62          1           0       -8.228143    1.727485   -2.267509
     63          1           0       -9.051963   -0.900372   -1.924631
     64          1           0       -9.261817   -3.295330   -1.300287
     65          1           0       -7.500453   -4.400461    0.046060
     66          1           0       -5.505776   -3.144225    0.814268
     67          1           0       -2.642509    0.008266   -0.591999
     68          1           0       -1.253455    1.735185    2.029349
     69          1           0       -0.221311    3.930113    2.404733
     70          1           0        2.019118    4.452116    1.427446
     71          1           0        3.205858    2.770400    0.087820
     72          1           0        4.768231   -0.053905    0.661041
     73          1           0        6.479840    1.074512    1.811220
     74          1           0        8.502486    0.659084    3.163671
 ---------------------------------------------------------------------

 SCF Done:  E(RB3LYP) =  -1748.96023263     A.U. after   16 cycles

 Excitation energies and oscillator strengths:

 Excited state symmetry could not be determined.
 Excited State   1:      Triplet-?Sym    1.7355 eV  714.38 nm  f=0.0000  <S**2>=2.000
     149 ->151         0.13970
     150 ->151         0.68578
     150 <-151         0.13610
 This state for optimization and/or second-order correction.
 Total Energy, E(TD-HF/TD-DFT) =  -1748.89645249
 Copying the excited state density for this state as the 1-particle RhoCI density.

 Excited state symmetry could not be determined.
 Excited State   2:      Singlet-?Sym    3.1466 eV  394.03 nm  f=0.1817  <S**2>=0.000
     149 ->151        -0.13447
     150 ->151         0.68810

 Excited state symmetry could not be determined.
 Excited State   3:      Triplet-?Sym    3.1857 eV  389.19 nm  f=0.0000  <S**2>=2.000
     142 ->151         0.16458
     144 ->151        -0.12959
     149 ->151         0.62848
     150 ->151        -0.12962
     150 ->160         0.15317

 Excited state symmetry could not be determined.
 Excited State   4:      Singlet-?Sym    3.2159 eV  385.53 nm  f=0.0220  <S**2>=0.000
     149 ->151         0.69272
     150 ->151         0.13048

 Alpha  occ. eigenvalues --  -14.38092 -10.24042 -10.22244 -10.22215 -10.20833
 Alpha  occ. eigenvalues --  -10.20223 -10.20206 -10.20199 -10.20129 -10.20121
 Alpha  occ. eigenvalues --  -10.20090 -10.20083 -10.20067 -10.20041 -10.20033
 Alpha  occ. eigenvalues --  -10.20008 -10.19940 -10.19804 -10.19377 -10.19214
 Alpha  occ. eigenvalues --  -10.19196 -10.19157 -10.19152 -10.19133 -10.19064
 Alpha  occ. eigenvalues --  -10.19060 -10.19046 -10.19020 -10.18978 -10.18955
 Alpha  occ. eigenvalues --  -10.18893 -10.18836 -10.18758 -10.18723 -10.18668
 Alpha  occ. eigenvalues --  -10.18667 -10.18642 -10.18604 -10.18588 -10.18572
 Alpha  occ. eigenvalues --  -10.18564 -10.18522 -10.18495 -10.17978 -10.17926
 Alpha  occ. eigenvalues --   -0.98788  -0.88818  -0.87247  -0.86592  -0.84789
 Alpha  occ. eigenvalues --   -0.84633  -0.84057  -0.83987  -0.80448  -0.80276
 Alpha  occ. eigenvalues --   -0.78176  -0.77374  -0.75603  -0.75258  -0.74859
 Alpha  occ. eigenvalues --   -0.74686  -0.74448  -0.73926  -0.73668  -0.72068
 Alpha  occ. eigenvalues --   -0.71315  -0.71253  -0.69598  -0.64827  -0.64490
 Alpha  occ. eigenvalues --   -0.62936  -0.62454  -0.61722  -0.61606  -0.61383
 Alpha  occ. eigenvalues --   -0.60061  -0.59417  -0.58786  -0.58531  -0.57495
 Alpha  occ. eigenvalues --   -0.57133  -0.55749  -0.54048  -0.52827  -0.52478
 Alpha  occ. eigenvalues --   -0.52364  -0.51264  -0.51062  -0.49903  -0.49079
 Alpha  occ. eigenvalues --   -0.48607  -0.47441  -0.46733  -0.46479  -0.46350
 Alpha  occ. eigenvalues --   -0.45996  -0.45421  -0.45055  -0.44662  -0.44503
 Alpha  occ. eigenvalues --   -0.43878  -0.43707  -0.43372  -0.42980  -0.42883
 Alpha  occ. eigenvalues --   -0.42679  -0.42145  -0.41901  -0.41758  -0.41736
 Alpha  occ. eigenvalues --   -0.41474  -0.41144  -0.40582  -0.40011  -0.39254
 Alpha  occ. eigenvalues --   -0.37697  -0.37458  -0.37404  -0.37219  -0.36722
 Alpha  occ. eigenvalues --   -0.36545  -0.36076  -0.35882  -0.35856  -0.35722
 Alpha  occ. eigenvalues --   -0.35388  -0.34861  -0.34302  -0.34126  -0.33716
 Alpha  occ. eigenvalues --   -0.33677  -0.33422  -0.33216  -0.32250  -0.31351
 Alpha  occ. eigenvalues --   -0.29942  -0.29017  -0.27612  -0.27509  -0.26287
 Alpha  occ. eigenvalues --   -0.25755  -0.25345  -0.25104  -0.24945  -0.24807
 Alpha  occ. eigenvalues --   -0.23932  -0.22553  -0.20988  -0.19627  -0.19166
 Alpha virt. eigenvalues --   -0.06333  -0.03040  -0.02403  -0.02123  -0.01558
 Alpha virt. eigenvalues --   -0.01068  -0.00515  -0.00102   0.00951   0.01012
 Alpha virt. eigenvalues --    0.02813   0.03565   0.04185   0.04660   0.06508

 Mulliken charges:
               1
     1  C   -0.126251
     2  C   -0.133696
     3  C   -0.173753
     4  C    0.088048
     5  C    0.092122
     6  C   -0.174171
     7  C   -0.135713
     8  C   -0.149634
     9  C    0.005223
    10  C   -0.079401
    11  C    0.105571
    12  C   -0.196980
    13  C   -0.134283
    14  C   -0.133503
    15  C   -0.197705
    16  C    0.109379
    17  C   -0.083525
    18  C   -0.003587
    19  C   -0.143292
    20  C   -0.144814
    21  C   -0.151927
    22  C    0.276932
    23  N   -0.738472
    24  C    0.311744
    25  C   -0.177244
    26  C   -0.142337
    27  C   -0.144459
    28  C   -0.197181
    29  C    0.059930
    30  C    0.059228
    31  C   -0.197062
    32  C   -0.144762
    33  C   -0.142023
    34  C   -0.176434
    35  C    0.312668
    36  C   -0.180532
    37  C    0.108954
    38  C   -0.202295
    39  C   -0.133792
    40  C   -0.134848
    41  C   -0.198083
    42  C    0.105577
    43  C   -0.203433
    44  C   -0.172928
    45  C   -0.133989
    46  H    0.130394
    47  H    0.131007
    48  H    0.132008
    49  H    0.134095
    50  H    0.133883
    51  H    0.139002
    52  H    0.147681
    53  H    0.130548
    54  H    0.130679
    55  H    0.143595
    56  H    0.142196
    57  H    0.139943
    58  H    0.153160
    59  H    0.142347
    60  H    0.127353
    61  H    0.123688
    62  H    0.129319
    63  H    0.129651
    64  H    0.123733
    65  H    0.126072
    66  H    0.137577
    67  H    0.159320
    68  H    0.144605
    69  H    0.130215
    70  H    0.130380
    71  H    0.147145
    72  H    0.140510
    73  H    0.135017
    74  H    0.131611
 Sum of Mulliken charges =  -0.00000

 Dipole moment (field-independent basis, Debye):
    X=              1.8255    Y=             -0.2668    Z=              0.7716  Tot=              1.9998
 Quadrupole moment (field-independent basis, Debye-Ang):
   XX=           -241.4608   YY=           -243.9686   ZZ=           -243.7513
   XY=              2.9251   XZ=             -3.3936   YZ=             -1.9141

 Normal termination of Gaussian 16 at Sat Nov  5 11:46:07 2022.
