 Gaussian 16, Revision B.01,
 Gaussian 16:  ES64L-G16RevB.01 20-Dec-2017

 -------------------------------------------------------------------
 #p b3lyp/6-31g(d) 6D 10F nosymm GFInput td=(50-50,nstate=2) SCF=XQC
 -------------------------------------------------------------------

 ------------------------------
 Gaussian input prepared by ASE
 ------------------------------
 Symbolic Z-matrix:
 Charge =  0 Multiplicity = 1

                          Input orientation:
 ---------------------------------------------------------------------
 Center     Atomic      Atomic             Coordinates (Angstroms)
 Number     Number       Type             X           Y           Z
 ---------------------------------------------------------------------
      1          6           0       -6.857108    2.471659   -4.516546
      2          6           0       -5.516683    2.098673   -4.559199
      3          6           0       -4.872716    1.642375   -3.405408
      4          6           0       -5.553197    1.574771   -2.183394
      5          6           0       -6.910496    1.942863   -2.161704
      6          6           0       -7.556383    2.381726   -3.309217
      7          8           0       -7.647431    1.900175   -0.997455
      8          6           0       -7.116343    1.207040    0.076454
      9          6           0       -7.978653    0.941474    1.130802
     10          6           0       -7.507226    0.290341    2.273311
     11          6           0       -6.171532   -0.094416    2.332810
     12          6           0       -5.306042    0.161521    1.265124
     13          6           0       -5.763269    0.819843    0.117713
     14          7           0       -4.939083    1.131256   -0.993219
     15          6           0       -3.514388    1.099859   -0.914682
     16          6           0       -2.795553    2.331213   -0.999727
     17          6           0       -1.430176    2.340115   -0.948842
     18          6           0       -0.673474    1.131180   -0.797895
     19          6           0        0.737282    1.127378   -0.768450
     20          6           0        1.493828    2.409488   -0.939259
     21          6           0        1.480662    3.086803   -2.184903
     22          6           0        2.188680    4.261722   -2.311784
     23          6           0        2.902374    4.771381   -1.205214
     24          6           0        3.645602    5.995557   -1.271062
     25          6           0        4.311367    6.465905   -0.181190
     26          6           0        4.288723    5.749981    1.061614
     27          6           0        4.957712    6.224540    2.211617
     28          6           0        4.892893    5.498447    3.381724
     29          6           0        4.158275    4.294783    3.379802
     30          7           0        3.524102    3.813118    2.322816
     31          6           0        3.573787    4.521922    1.171600
     32          6           0        2.859317    4.018655    0.003300
     33          7           0        2.171749    2.859971    0.111562
     34          6           0        1.438814   -0.081711   -0.569366
     35          6           0        2.869197   -0.129232   -0.579519
     36          6           0        3.551635   -1.293343   -0.333744
     37          7           0        4.978145   -1.334161   -0.316389
     38          6           0        5.739227   -0.693648    0.694038
     39          6           0        5.222044    0.276937    1.559765
     40          6           0        6.026308    0.851958    2.548214
     41          6           0        7.359713    0.479400    2.685638
     42          6           0        7.890843   -0.482753    1.823264
     43          6           0        7.088899   -1.062847    0.850569
     44          8           0        7.675380   -2.043600    0.069570
     45          6           0        7.006588   -2.444255   -1.067315
     46          6           0        7.713826   -3.204782   -1.988188
     47          6           0        7.084868   -3.663043   -3.149692
     48          6           0        5.752582   -3.332628   -3.381047
     49          6           0        5.047042   -2.553618   -2.459381
     50          6           0        5.656187   -2.112358   -1.278195
     51          6           0        2.827897   -2.499036   -0.083265
     52          6           0        1.461849   -2.504406   -0.111182
     53          6           0        0.708511   -1.313405   -0.377540
     54          6           0       -0.701487   -1.313534   -0.432237
     55          6           0       -1.458362   -2.593889   -0.250241
     56          6           0       -1.378928   -3.616611   -1.229158
     57          6           0       -2.088989   -4.781077   -1.035086
     58          6           0       -2.870378   -4.937962    0.130421
     59          6           0       -3.619603   -6.131179    0.395415
     60          6           0       -4.351795   -6.255243    1.535939
     61          6           0       -4.394849   -5.196340    2.502629
     62          6           0       -5.133719   -5.306267    3.701479
     63          6           0       -5.130313   -4.259339    4.598416
     64          6           0       -4.385919   -3.106279    4.274683
     65          7           0       -3.687157   -2.961709    3.160129
     66          6           0       -3.676396   -3.986303    2.276805
     67          6           0       -2.890796   -3.854147    1.054490
     68          7           0       -2.200273   -2.710961    0.846409
     69          6           0       -1.402488   -0.107254   -0.649581
     70          6           0       -2.829387   -0.077860   -0.756386
     71          1           0       -7.363811    2.825576   -5.409338
     72          1           0       -4.960626    2.150957   -5.490910
     73          1           0       -3.832799    1.338980   -3.448768
     74          1           0       -8.603882    2.656730   -3.234442
     75          1           0       -9.010646    1.266363    1.041273
     76          1           0       -8.182795    0.089536    3.099540
     77          1           0       -5.781307   -0.608084    3.205520
     78          1           0       -4.273686   -0.158301    1.338192
     79          1           0       -3.353021    3.257550   -1.097810
     80          1           0       -0.902764    3.285776   -1.001291
     81          1           0        0.922061    2.673396   -3.018688
     82          1           0        2.205941    4.802895   -3.255010
     83          1           0        3.662834    6.542597   -2.210562
     84          1           0        4.870910    7.396760   -0.233003
     85          1           0        5.512859    7.158254    2.159156
     86          1           0        5.390699    5.834542    4.286321
     87          1           0        4.088314    3.701923    4.291448
     88          1           0        3.426089    0.778320   -0.772772
     89          1           0        4.190080    0.594470    1.472536
     90          1           0        5.590640    1.602140    3.200264
     91          1           0        7.987932    0.927039    3.450053
     92          1           0        8.923349   -0.810117    1.896348
     93          1           0        8.752723   -3.434682   -1.772985
     94          1           0        7.639212   -4.266562   -3.862117
     95          1           0        5.250961   -3.670090   -4.283551
     96          1           0        4.014171   -2.287009   -2.652902
     97          1           0        3.381772   -3.406509    0.136296
     98          1           0        0.929919   -3.426244    0.094861
     99          1           0       -0.769083   -3.470226   -2.115047
    100          1           0       -2.056297   -5.582684   -1.769388
    101          1           0       -3.587200   -6.937233   -0.333582
    102          1           0       -4.915827   -7.163027    1.736089
    103          1           0       -5.693340   -6.216937    3.902139
    104          1           0       -5.682796   -4.310109    5.531823
    105          1           0       -4.363573   -2.264564    4.966412
    106          1           0       -3.382327   -1.006252   -0.697563
 ---------------------------------------------------------------------

 SCF Done:  E(RB3LYP) =  -2863.28256739     A.U. after   16 cycles

 Excitation energies and oscillator strengths:

 Excited state symmetry could not be determined.
 Excited State   1:      Triplet-?Sym    1.6736 eV  740.80 nm  f=0.0000  <S**2>=2.000
     231 -> 234       -0.50716
     231 -> 238       -0.19094
     233 -> 234        0.42049
     233 -> 238        0.12040
     231 <- 234       -0.10064
 This state for optimization and/or second-order correction.
 Total Energy, E(TD-HF/TD-DFT) =  -2863.22106208
 Copying the excited state density for this state as the 1-particle RhoCI density.

 Excited state symmetry could not be determined.
 Excited State   2:      Triplet-?Sym    2.0526 eV  604.03 nm  f=0.0000  <S**2>=2.000
     232 -> 234        0.68897
     232 -> 238        0.11852

 Excited state symmetry could not be determined.
 Excited State   3:      Singlet-?Sym    2.0597 eV  601.94 nm  f=0.0877  <S**2>=0.000
     233 -> 234        0.70066

 Excited state symmetry could not be determined.
 Excited State   4:      Singlet-?Sym    2.1400 eV  579.37 nm  f=0.0008  <S**2>=0.000
     232 -> 234        0.70076

 Alpha  occ. eigenvalues --  -19.18382 -19.18381 -14.36829 -14.36828 -14.33108
 Alpha  occ. eigenvalues --  -14.33108 -14.33042 -14.33042 -10.24302 -10.24301
 Alpha  occ. eigenvalues --  -10.24003 -10.24002 -10.23818 -10.23818 -10.23359
 Alpha  occ. eigenvalues --  -10.23359 -10.23227 -10.23227 -10.22969 -10.22969
 Alpha  occ. eigenvalues --  -10.22951 -10.22951 -10.22769 -10.22768 -10.22752
 Alpha  occ. eigenvalues --  -10.22752 -10.21529 -10.21529 -10.21388 -10.21388
 Alpha  occ. eigenvalues --  -10.21387 -10.21387 -10.21309 -10.21309 -10.20730
 Alpha  occ. eigenvalues --  -10.20730 -10.20660 -10.20659 -10.20659 -10.20655
 Alpha  occ. eigenvalues --  -10.20617 -10.20610 -10.20602 -10.20602 -10.20461
 Alpha  occ. eigenvalues --  -10.20461 -10.20452 -10.20451 -10.19411 -10.19411
 Alpha  occ. eigenvalues --  -10.19322 -10.19322 -10.19097 -10.19097 -10.18347
 Alpha  occ. eigenvalues --  -10.18346 -10.18212 -10.18212 -10.18150 -10.18150
 Alpha  occ. eigenvalues --  -10.18065 -10.18064 -10.17834 -10.17834 -10.17581
 Alpha  occ. eigenvalues --  -10.17580 -10.17519 -10.17518 -10.17413 -10.17412
 Alpha  occ. eigenvalues --   -1.07691  -1.07690  -0.96328  -0.96314  -0.95927
 Alpha  occ. eigenvalues --   -0.95905  -0.93749  -0.93696  -0.88476  -0.85619
 Alpha  occ. eigenvalues --   -0.85609  -0.85536  -0.85348  -0.85213  -0.83059
 Alpha  occ. eigenvalues --   -0.82559  -0.81726  -0.81377  -0.81270  -0.80926
 Alpha  occ. eigenvalues --   -0.79917  -0.79251  -0.75965  -0.75685  -0.75544
 Alpha  occ. eigenvalues --   -0.75519  -0.75206  -0.75166  -0.74988  -0.74938
 Alpha  occ. eigenvalues --   -0.74802  -0.74482  -0.72353  -0.72298  -0.71642
 Alpha  occ. eigenvalues --   -0.70688  -0.68813  -0.67120  -0.66161  -0.66016
 Alpha  occ. eigenvalues --   -0.65015  -0.64429  -0.63952  -0.63726  -0.63642
 Alpha  occ. eigenvalues --   -0.63321  -0.63214  -0.62439  -0.60814  -0.60787
 Alpha  occ. eigenvalues --   -0.59787  -0.59644  -0.59138  -0.59124  -0.58610
 Alpha  occ. eigenvalues --   -0.56195  -0.56010  -0.55968  -0.55763  -0.55630
 Alpha  occ. eigenvalues --   -0.55546  -0.54584  -0.53424  -0.53364  -0.53316
 Alpha  occ. eigenvalues --   -0.52245  -0.51765  -0.51418  -0.50291  -0.49318
 Alpha  occ. eigenvalues --   -0.49249  -0.48998  -0.48859  -0.48791  -0.48462
 Alpha  occ. eigenvalues --   -0.47587  -0.47342  -0.47165  -0.46918  -0.46352
 Alpha  occ. eigenvalues --   -0.46005  -0.45925  -0.45844  -0.45718  -0.45655
 Alpha  occ. eigenvalues --   -0.44691  -0.44664  -0.44579  -0.44468  -0.44027
 Alpha  occ. eigenvalues --   -0.43489  -0.43080  -0.42771  -0.42736  -0.42513
 Alpha  occ. eigenvalues --   -0.42495  -0.42435  -0.42336  -0.42295  -0.42279
 Alpha  occ. eigenvalues --   -0.42042  -0.41897  -0.41612  -0.41511  -0.41192
 Alpha  occ. eigenvalues --   -0.40922  -0.40472  -0.40312  -0.40059  -0.39418
 Alpha  occ. eigenvalues --   -0.38810  -0.38704  -0.37878  -0.37865  -0.37812
 Alpha  occ. eigenvalues --   -0.37629  -0.37299  -0.37259  -0.36812  -0.36691
 Alpha  occ. eigenvalues --   -0.36271  -0.36207  -0.36115  -0.36066  -0.35863
 Alpha  occ. eigenvalues --   -0.35049  -0.35035  -0.34925  -0.34836  -0.34736
 Alpha  occ. eigenvalues --   -0.34658  -0.34041  -0.33847  -0.33229  -0.32435
 Alpha  occ. eigenvalues --   -0.32282  -0.31313  -0.30793  -0.30504  -0.30359
 Alpha  occ. eigenvalues --   -0.30010  -0.29934  -0.29400  -0.29153  -0.26320
 Alpha  occ. eigenvalues --   -0.26209  -0.25785  -0.25235  -0.24859  -0.24762
 Alpha  occ. eigenvalues --   -0.24672  -0.24642  -0.24628  -0.24580  -0.24413
 Alpha  occ. eigenvalues --   -0.24009  -0.23498  -0.23424  -0.21875  -0.21812
 Alpha  occ. eigenvalues --   -0.19739  -0.16809  -0.16513
 Alpha virt. eigenvalues --   -0.07274  -0.05771  -0.05540  -0.05530  -0.05489
 Alpha virt. eigenvalues --   -0.02223  -0.01434  -0.01174  -0.00546  -0.00068
 Alpha virt. eigenvalues --    0.00410   0.00888   0.01031   0.01454   0.01525

 Mulliken charges:
               1
     1  C   -0.137135
     2  C   -0.137708
     3  C   -0.194635
     4  C    0.326268
     5  C    0.320446
     6  C   -0.202446
     7  O   -0.581261
     8  C    0.316799
     9  C   -0.203265
    10  C   -0.137196
    11  C   -0.140732
    12  C   -0.212700
    13  C    0.334876
    14  N   -0.719160
    15  C    0.241635
    16  C   -0.132805
    17  C   -0.213417
    18  C    0.104124
    19  C   -0.013677
    20  C    0.141829
    21  C   -0.158767
    22  C   -0.157757
    23  C    0.152530
    24  C   -0.190711
    25  C   -0.192917
    26  C    0.164690
    27  C   -0.157758
    28  C   -0.146107
    29  C    0.042647
    30  N   -0.476778
    31  C    0.205709
    32  C    0.221949
    33  N   -0.507947
    34  C    0.107540
    35  C   -0.237043
    36  C    0.241652
    37  N   -0.719224
    38  C    0.334962
    39  C   -0.212727
    40  C   -0.140724
    41  C   -0.137187
    42  C   -0.203282
    43  C    0.316788
    44  O   -0.581261
    45  C    0.320444
    46  C   -0.202461
    47  C   -0.137128
    48  C   -0.137705
    49  C   -0.194644
    50  C    0.326308
    51  C   -0.132809
    52  C   -0.213414
    53  C    0.104110
    54  C   -0.013670
    55  C    0.141842
    56  C   -0.158761
    57  C   -0.157783
    58  C    0.152553
    59  C   -0.190706
    60  C   -0.192907
    61  C    0.164688
    62  C   -0.157765
    63  C   -0.146103
    64  C    0.042634
    65  N   -0.476750
    66  C    0.205676
    67  C    0.221945
    68  N   -0.507951
    69  C    0.107544
    70  C   -0.237009
    71  H    0.126075
    72  H    0.124438
    73  H    0.143225
    74  H    0.140104
    75  H    0.137900
    76  H    0.122514
    77  H    0.133347
    78  H    0.181351
    79  H    0.147468
    80  H    0.148721
    81  H    0.149071
    82  H    0.144943
    83  H    0.137896
    84  H    0.137955
    85  H    0.144169
    86  H    0.142251
    87  H    0.146378
    88  H    0.163024
    89  H    0.181352
    90  H    0.133355
    91  H    0.122517
    92  H    0.137905
    93  H    0.140104
    94  H    0.126076
    95  H    0.124440
    96  H    0.143233
    97  H    0.147473
    98  H    0.148723
    99  H    0.149072
   100  H    0.144942
   101  H    0.137896
   102  H    0.137955
   103  H    0.144170
   104  H    0.142252
   105  H    0.146382
   106  H    0.163029
 Sum of Mulliken charges =  -0.00000

 Dipole moment (field-independent basis, Debye):
    X=              0.0439    Y=             -0.2273    Z=             -1.4583  Tot=              1.4765
 Quadrupole moment (field-independent basis, Debye-Ang):
   XX=           -393.6023   YY=           -326.7313   ZZ=           -361.6879
   XY=             47.5230   XZ=             -8.3103   YZ=             -4.0722

 Normal termination of Gaussian 16 at Sat Nov  5 11:43:17 2022.
