 Gaussian 16, Revision B.01,
 Gaussian 16:  ES64L-G16RevB.01 20-Dec-2017

 -----------------------------
 #p b3lyp/6-31g(d) opt SCF=XQC
 -----------------------------

 ------------------------------
 Gaussian input prepared by ASE
 ------------------------------
 Symbolic Z-matrix:
 Charge =  0 Multiplicity = 1

 SCF Done:  E(RB3LYP) =  -2863.26470820     A.U. after   16 cycles
 SCF Done:  E(RB3LYP) =  -2863.27194284     A.U. after   14 cycles
 SCF Done:  E(RB3LYP) =  -2863.27395865     A.U. after   14 cycles
 SCF Done:  E(RB3LYP) =  -2863.20538131     A.U. after   14 cycles
 SCF Done:  E(RB3LYP) =  -2863.26054360     A.U. after   14 cycles
 SCF Done:  E(RB3LYP) =  -2863.27632303     A.U. after   12 cycles
 SCF Done:  E(RB3LYP) =  -2863.27932920     A.U. after   13 cycles
 SCF Done:  E(RB3LYP) =  -2863.28050197     A.U. after   13 cycles
 SCF Done:  E(RB3LYP) =  -2863.28131305     A.U. after   13 cycles
 SCF Done:  E(RB3LYP) =  -2863.28184200     A.U. after   12 cycles
 SCF Done:  E(RB3LYP) =  -2863.28257061     A.U. after   10 cycles
 SCF Done:  E(RB3LYP) =  -2863.28257037     A.U. after   10 cycles
 SCF Done:  E(RB3LYP) =  -2863.28256716     A.U. after   10 cycles
 SCF Done:  E(RB3LYP) =  -2863.28257115     A.U. after   10 cycles
 SCF Done:  E(RB3LYP) =  -2863.28257163     A.U. after    9 cycles
 SCF Done:  E(RB3LYP) =  -2863.28257187     A.U. after    8 cycles
 SCF Done:  E(RB3LYP) =  -2863.28257181     A.U. after    7 cycles
 SCF Done:  E(RB3LYP) =  -2863.28257199     A.U. after    7 cycles
 SCF Done:  E(RB3LYP) =  -2863.28257203     A.U. after    7 cycles
 SCF Done:  E(RB3LYP) =  -2863.28257206     A.U. after    7 cycles
 Optimization completed.
    -- Stationary point found.

                         Standard orientation:
 ---------------------------------------------------------------------
 Center     Atomic      Atomic             Coordinates (Angstroms)
 Number     Number       Type             X           Y           Z
 ---------------------------------------------------------------------
      1          6           0       -6.402348   -4.180095    3.897718
      2          6           0       -5.137876   -3.614786    4.036317
      3          6           0       -4.568513   -2.889744    2.985473
      4          6           0       -5.245242   -2.738866    1.768832
      5          6           0       -6.527251   -3.305290    1.651192
      6          6           0       -7.101233   -4.012644    2.698452
      7          8           0       -7.256068   -3.196493    0.486135
      8          6           0       -6.835955   -2.270404   -0.452821
      9          6           0       -7.724301   -1.980799   -1.478844
     10          6           0       -7.356137   -1.094248   -2.493745
     11          6           0       -6.097702   -0.502259   -2.454381
     12          6           0       -5.207802   -0.784058   -1.413614
     13          6           0       -5.560833   -1.676181   -0.394555
     14          7           0       -4.703162   -2.025255    0.679214
     15          6           0       -3.300946   -1.761175    0.648231
     16          6           0       -2.397076   -2.863996    0.564604
     17          6           0       -1.047200   -2.652750    0.553019
     18          6           0       -0.490212   -1.332421    0.611385
     19          6           0        0.902363   -1.105081    0.624255
     20          6           0        1.851074   -2.264934    0.618669
     21          6           0        1.939052   -3.121959    1.744869
     22          6           0        2.823127   -4.177933    1.710898
     23          6           0        3.613673   -4.391705    0.560704
     24          6           0        4.540590   -5.480743    0.459932
     25          6           0        5.277520   -5.666214   -0.669150
     26          6           0        5.148070   -4.777530   -1.787678
     27          6           0        5.889139   -4.957230   -2.976704
     28          6           0        5.716088   -4.076512   -4.023104
     29          6           0        4.800587   -3.016716   -3.858283
     30          7           0        4.093223   -2.810171   -2.759023
     31          6           0        4.248690   -3.673428   -1.729077
     32          6           0        3.458090   -3.475639   -0.518911
     33          7           0        2.596683   -2.435231   -0.468438
     34          6           0        1.405081    0.214338    0.633479
     35          6           0        2.809941    0.481198    0.692737
     36          6           0        3.301134    1.761059    0.648390
     37          7           0        4.703360    2.025069    0.679336
     38          6           0        5.560904    1.676013   -0.394557
     39          6           0        5.207674    0.783942   -1.413593
     40          6           0        6.097407    0.502050   -2.454474
     41          6           0        7.355882    1.093936   -2.494015
     42          6           0        7.724231    1.980471   -1.479175
     43          6           0        6.836063    2.270129   -0.453009
     44          8           0        7.256523    3.196093    0.485926
     45          6           0        6.527384    3.305778    1.650676
     46          6           0        7.101192    4.013849    2.697563
     47          6           0        6.402171    4.182073    3.896626
     48          6           0        5.137692    3.616820    4.035441
     49          6           0        4.568484    2.891106    2.984987
     50          6           0        5.245351    2.739459    1.768507
     51          6           0        2.397271    2.863888    0.564532
     52          6           0        1.047401    2.652674    0.552870
     53          6           0        0.490347    1.332363    0.611347
     54          6           0       -0.902222    1.105037    0.624046
     55          6           0       -1.850927    2.264872    0.618302
     56          6           0       -1.938726    3.122183    1.744295
     57          6           0       -2.822844    4.178121    1.710235
     58          6           0       -3.613587    4.391611    0.560132
     59          6           0       -4.540576    5.480576    0.459278
     60          6           0       -5.277677    5.665791   -0.669735
     61          6           0       -5.148299    4.776929   -1.788129
     62          6           0       -5.889480    4.956413   -2.977116
     63          6           0       -5.716453    4.075566   -4.023412
     64          6           0       -4.800859    3.015863   -3.858525
     65          7           0       -4.093405    2.809503   -2.759287
     66          6           0       -4.248850    3.672887   -1.729444
     67          6           0       -3.458128    3.475314   -0.519316
     68          7           0       -2.596731    2.434915   -0.468731
     69          6           0       -1.404948   -0.214407    0.633304
     70          6           0       -2.809793   -0.481284    0.692451
     71          1           0       -6.851086   -4.743248    4.710475
     72          1           0       -4.585029   -3.724761    4.964911
     73          1           0       -3.589784   -2.439087    3.105294
     74          1           0       -8.091780   -4.431883    2.551729
     75          1           0       -8.692449   -2.471917   -1.470465
     76          1           0       -8.050958   -0.874398   -3.298892
     77          1           0       -5.789307    0.195512   -3.226236
     78          1           0       -4.238573   -0.300393   -1.406499
     79          1           0       -2.801710   -3.869474    0.503173
     80          1           0       -0.377312   -3.501519    0.475366
     81          1           0        1.318165   -2.935455    2.615417
     82          1           0        2.921104   -4.850265    2.560141
     83          1           0        4.639481   -6.158220    1.304594
     84          1           0        5.976800   -6.495452   -0.744220
     85          1           0        6.584526   -5.790041   -3.051701
     86          1           0        6.265075   -4.185995   -4.953530
     87          1           0        4.642258   -2.307073   -4.669956
     88          1           0        3.502242   -0.347779    0.760869
     89          1           0        4.238404    0.300362   -1.406358
     90          1           0        5.788829   -0.195692   -3.226281
     91          1           0        8.050585    0.874030   -3.299247
     92          1           0        8.692416    2.471519   -1.470915
     93          1           0        8.091764    4.432979    2.550695
     94          1           0        6.850805    4.745756    4.709073
     95          1           0        4.584733    3.727370    4.963897
     96          1           0        3.589764    2.440483    3.104989
     97          1           0        2.801922    3.869353    0.502976
     98          1           0        0.377554    3.501457    0.475026
     99          1           0       -1.317685    2.935910    2.614782
    100          1           0       -2.920699    4.850630    2.559352
    101          1           0       -4.639393    6.158206    1.303826
    102          1           0       -5.977031    6.494962   -0.744853
    103          1           0       -6.584933    5.789164   -3.052166
    104          1           0       -6.265523    4.184885   -4.953808
    105          1           0       -4.642528    2.306135   -4.670122
    106          1           0       -3.502130    0.347670    0.760412
 ---------------------------------------------------------------------

 The electronic state is 1-A.
 Alpha  occ. eigenvalues --  -19.18382 -19.18381 -14.36829 -14.36828 -14.33108
 Alpha  occ. eigenvalues --  -14.33108 -14.33042 -14.33042 -10.24302 -10.24301
 Alpha  occ. eigenvalues --  -10.24003 -10.24002 -10.23818 -10.23818 -10.23359
 Alpha  occ. eigenvalues --  -10.23359 -10.23227 -10.23227 -10.22969 -10.22969
 Alpha  occ. eigenvalues --  -10.22951 -10.22950 -10.22769 -10.22769 -10.22752
 Alpha  occ. eigenvalues --  -10.22752 -10.21529 -10.21529 -10.21388 -10.21388
 Alpha  occ. eigenvalues --  -10.21387 -10.21387 -10.21309 -10.21309 -10.20730
 Alpha  occ. eigenvalues --  -10.20730 -10.20660 -10.20659 -10.20659 -10.20655
 Alpha  occ. eigenvalues --  -10.20617 -10.20610 -10.20602 -10.20602 -10.20461
 Alpha  occ. eigenvalues --  -10.20461 -10.20452 -10.20451 -10.19411 -10.19411
 Alpha  occ. eigenvalues --  -10.19322 -10.19322 -10.19097 -10.19097 -10.18347
 Alpha  occ. eigenvalues --  -10.18346 -10.18212 -10.18212 -10.18150 -10.18149
 Alpha  occ. eigenvalues --  -10.18065 -10.18064 -10.17834 -10.17834 -10.17581
 Alpha  occ. eigenvalues --  -10.17580 -10.17519 -10.17518 -10.17413 -10.17412
 Alpha  occ. eigenvalues --   -1.07691  -1.07690  -0.96328  -0.96314  -0.95927
 Alpha  occ. eigenvalues --   -0.95905  -0.93749  -0.93696  -0.88476  -0.85619
 Alpha  occ. eigenvalues --   -0.85609  -0.85536  -0.85348  -0.85213  -0.83059
 Alpha  occ. eigenvalues --   -0.82559  -0.81726  -0.81377  -0.81270  -0.80926
 Alpha  occ. eigenvalues --   -0.79917  -0.79251  -0.75965  -0.75685  -0.75544
 Alpha  occ. eigenvalues --   -0.75519  -0.75206  -0.75166  -0.74989  -0.74938
 Alpha  occ. eigenvalues --   -0.74802  -0.74482  -0.72353  -0.72298  -0.71642
 Alpha  occ. eigenvalues --   -0.70688  -0.68813  -0.67120  -0.66161  -0.66016
 Alpha  occ. eigenvalues --   -0.65015  -0.64430  -0.63952  -0.63726  -0.63642
 Alpha  occ. eigenvalues --   -0.63321  -0.63214  -0.62439  -0.60814  -0.60787
 Alpha  occ. eigenvalues --   -0.59787  -0.59644  -0.59138  -0.59124  -0.58610
 Alpha  occ. eigenvalues --   -0.56195  -0.56010  -0.55968  -0.55763  -0.55630
 Alpha  occ. eigenvalues --   -0.55546  -0.54584  -0.53424  -0.53364  -0.53316
 Alpha  occ. eigenvalues --   -0.52245  -0.51765  -0.51418  -0.50291  -0.49318
 Alpha  occ. eigenvalues --   -0.49249  -0.48998  -0.48859  -0.48791  -0.48462
 Alpha  occ. eigenvalues --   -0.47587  -0.47342  -0.47165  -0.46918  -0.46352
 Alpha  occ. eigenvalues --   -0.46005  -0.45925  -0.45844  -0.45718  -0.45656
 Alpha  occ. eigenvalues --   -0.44691  -0.44664  -0.44579  -0.44468  -0.44027
 Alpha  occ. eigenvalues --   -0.43489  -0.43080  -0.42771  -0.42736  -0.42513
 Alpha  occ. eigenvalues --   -0.42495  -0.42435  -0.42336  -0.42295  -0.42279
 Alpha  occ. eigenvalues --   -0.42042  -0.41897  -0.41612  -0.41511  -0.41192
 Alpha  occ. eigenvalues --   -0.40922  -0.40472  -0.40312  -0.40059  -0.39418
 Alpha  occ. eigenvalues --   -0.38810  -0.38704  -0.37878  -0.37865  -0.37812
 Alpha  occ. eigenvalues --   -0.37630  -0.37299  -0.37259  -0.36812  -0.36691
 Alpha  occ. eigenvalues --   -0.36271  -0.36207  -0.36115  -0.36066  -0.35863
 Alpha  occ. eigenvalues --   -0.35049  -0.35035  -0.34925  -0.34836  -0.34736
 Alpha  occ. eigenvalues --   -0.34658  -0.34041  -0.33847  -0.33229  -0.32435
 Alpha  occ. eigenvalues --   -0.32282  -0.31313  -0.30793  -0.30504  -0.30359
 Alpha  occ. eigenvalues --   -0.30010  -0.29934  -0.29399  -0.29153  -0.26320
 Alpha  occ. eigenvalues --   -0.26209  -0.25785  -0.25235  -0.24859  -0.24762
 Alpha  occ. eigenvalues --   -0.24672  -0.24642  -0.24628  -0.24580  -0.24413
 Alpha  occ. eigenvalues --   -0.24009  -0.23498  -0.23424  -0.21875  -0.21812
 Alpha  occ. eigenvalues --   -0.19739  -0.16809  -0.16513
 Alpha virt. eigenvalues --   -0.07274  -0.05771  -0.05540  -0.05530  -0.05489
 Alpha virt. eigenvalues --   -0.02223  -0.01434  -0.01174  -0.00546  -0.00068
 Alpha virt. eigenvalues --    0.00410   0.00888   0.01032   0.01454   0.01525

 Mulliken charges:
               1
     1  C   -0.137129
     2  C   -0.137707
     3  C   -0.194650
     4  C    0.326302
     5  C    0.320425
     6  C   -0.202448
     7  O   -0.581250
     8  C    0.316784
     9  C   -0.203269
    10  C   -0.137196
    11  C   -0.140724
    12  C   -0.212710
    13  C    0.334876
    14  N   -0.719161
    15  C    0.241659
    16  C   -0.132813
    17  C   -0.213396
    18  C    0.104095
    19  C   -0.013664
    20  C    0.141795
    21  C   -0.158750
    22  C   -0.157772
    23  C    0.152544
    24  C   -0.190705
    25  C   -0.192925
    26  C    0.164689
    27  C   -0.157760
    28  C   -0.146104
    29  C    0.042644
    30  N   -0.476763
    31  C    0.205695
    32  C    0.221937
    33  N   -0.507920
    34  C    0.107554
    35  C   -0.237061
    36  C    0.241663
    37  N   -0.719186
    38  C    0.334907
    39  C   -0.212712
    40  C   -0.140718
    41  C   -0.137190
    42  C   -0.203283
    43  C    0.316796
    44  O   -0.581262
    45  C    0.320427
    46  C   -0.202463
    47  C   -0.137120
    48  C   -0.137708
    49  C   -0.194657
    50  C    0.326328
    51  C   -0.132814
    52  C   -0.213399
    53  C    0.104080
    54  C   -0.013646
    55  C    0.141822
    56  C   -0.158758
    57  C   -0.157776
    58  C    0.152546
    59  C   -0.190704
    60  C   -0.192926
    61  C    0.164692
    62  C   -0.157760
    63  C   -0.146104
    64  C    0.042642
    65  N   -0.476763
    66  C    0.205693
    67  C    0.221946
    68  N   -0.507945
    69  C    0.107546
    70  C   -0.237033
    71  H    0.126074
    72  H    0.124438
    73  H    0.143228
    74  H    0.140105
    75  H    0.137902
    76  H    0.122513
    77  H    0.133347
    78  H    0.181358
    79  H    0.147466
    80  H    0.148721
    81  H    0.149069
    82  H    0.144943
    83  H    0.137896
    84  H    0.137956
    85  H    0.144169
    86  H    0.142251
    87  H    0.146377
    88  H    0.163025
    89  H    0.181354
    90  H    0.133355
    91  H    0.122517
    92  H    0.137906
    93  H    0.140106
    94  H    0.126075
    95  H    0.124439
    96  H    0.143235
    97  H    0.147470
    98  H    0.148723
    99  H    0.149071
   100  H    0.144943
   101  H    0.137896
   102  H    0.137956
   103  H    0.144170
   104  H    0.142252
   105  H    0.146380
   106  H    0.163031
 Sum of Mulliken charges =  -0.00000

 Dipole moment (field-independent basis, Debye):
    X=              0.0005    Y=              0.0011    Z=              1.4765  Tot=              1.4765
 Quadrupole moment (field-independent basis, Debye-Ang):
   XX=           -377.1954   YY=           -342.7526   ZZ=           -362.0246
   XY=            -56.2559   XZ=              0.0009   YZ=              0.0007

 Normal termination of Gaussian 16 at Sat Nov  5 07:01:54 2022.
