 Gaussian 16, Revision B.01,
 Gaussian 16:  ES64L-G16RevB.01 20-Dec-2017

 -------------------------------------------------------------------
 #p b3lyp/6-31g(d) 6D 10F nosymm GFInput td=(50-50,nstate=2) SCF=XQC
 -------------------------------------------------------------------

 ------------------------------
 Gaussian input prepared by ASE
 ------------------------------
 Symbolic Z-matrix:
 Charge =  0 Multiplicity = 1

                          Input orientation:
 ---------------------------------------------------------------------
 Center     Atomic      Atomic             Coordinates (Angstroms)
 Number     Number       Type             X           Y           Z
 ---------------------------------------------------------------------
      1          6           0       -7.784081   -2.180375    2.327649
      2          6           0       -6.795158   -2.702034    1.493882
      3          6           0       -6.010226   -1.852328    0.712482
      4          6           0       -6.192809   -0.462952    0.750500
      5          6           0       -5.395524    0.476369   -0.182080
      6          6           0       -5.070481    1.835593    0.474681
      7          6           0       -4.657157    1.893663    1.815537
      8          6           0       -4.274456    3.101423    2.398421
      9          6           0       -4.295770    4.280833    1.652316
     10          6           0       -4.701444    4.236337    0.319058
     11          6           0       -5.082775    3.026128   -0.263896
     12          6           0       -6.169336    0.602349   -1.508304
     13          6           0       -7.455112    1.086988   -1.721822
     14          6           0       -7.974624    1.089154   -3.020967
     15          6           0       -7.216813    0.604008   -4.092528
     16          6           0       -5.928537    0.109594   -3.882419
     17          6           0       -5.408793    0.110861   -2.585964
     18          6           0       -4.111357   -0.343113   -2.075982
     19          6           0       -3.008360   -0.889833   -2.735653
     20          6           0       -1.881147   -1.247887   -1.998051
     21          6           0       -1.842941   -1.036426   -0.611009
     22          7           0       -0.681749   -1.392656    0.127510
     23          6           0       -0.645989   -2.239350    1.243979
     24          6           0       -1.688084   -2.928743    1.870212
     25          6           0       -1.369528   -3.727997    2.966170
     26          6           0       -0.047768   -3.846225    3.429120
     27          6           0        0.987326   -3.166093    2.794417
     28          6           0        0.694793   -2.356467    1.690949
     29          6           0        1.503886   -1.544054    0.805894
     30          6           0        2.867877   -1.251097    0.751514
     31          6           0        3.361837   -0.380934   -0.229776
     32          6           0        4.807372   -0.060520   -0.301988
     33          6           0        5.252844    1.227635   -0.657255
     34          6           0        6.605489    1.531228   -0.724444
     35          6           0        7.568370    0.550459   -0.433085
     36          6           0        8.982502    0.890506   -0.508272
     37          7           0        9.510895    2.035999   -0.827967
     38          6           0       10.883809    1.825864   -0.745611
     39          6           0       11.966139    2.680960   -0.973168
     40          6           0       13.246289    2.154882   -0.802226
     41          6           0       13.449544    0.817019   -0.416061
     42          6           0       12.377198   -0.049354   -0.185155
     43          6           0       11.115421    0.496475   -0.361407
     44          8           0        9.892621   -0.106299   -0.208251
     45          6           0        7.139438   -0.737527   -0.075920
     46          6           0        5.782633   -1.033064   -0.015594
     47          6           0        2.451616    0.192409   -1.149446
     48          6           0        1.089784   -0.084820   -1.119737
     49          6           0        0.620829   -0.965204   -0.140644
     50          6           0       -2.945937   -0.474760    0.050356
     51          6           0       -4.078691   -0.147865   -0.682597
     52          6           0       -7.196830    0.048260    1.587306
     53          6           0       -7.982655   -0.799809    2.368158
     54          1           0       -8.392965   -2.841180    2.938672
     55          1           0       -6.630746   -3.775476    1.446930
     56          1           0       -5.253672   -2.278692    0.061706
     57          1           0       -4.648146    0.988827    2.415716
     58          1           0       -3.961464    3.118387    3.439135
     59          1           0       -4.000978    5.223038    2.106311
     60          1           0       -4.723607    5.145951   -0.275569
     61          1           0       -5.392178    3.011817   -1.303552
     62          1           0       -8.053756    1.455997   -0.893877
     63          1           0       -8.977634    1.467853   -3.197645
     64          1           0       -7.635330    0.609357   -5.095319
     65          1           0       -5.343635   -0.270558   -4.716065
     66          1           0       -3.025129   -1.051548   -3.810108
     67          1           0       -1.025635   -1.701465   -2.488344
     68          1           0       -2.711382   -2.847199    1.519265
     69          1           0       -2.163533   -4.271268    3.471317
     70          1           0        0.165864   -4.475925    4.288029
     71          1           0        2.010381   -3.263918    3.148244
     72          1           0        3.542821   -1.671471    1.491855
     73          1           0        4.524207    2.007917   -0.856626
     74          1           0        6.937671    2.529222   -0.990926
     75          1           0       11.806015    3.712224   -1.270880
     76          1           0       14.110492    2.791256   -0.970601
     77          1           0       14.463548    0.447232   -0.294043
     78          1           0       12.521396   -1.082437    0.112830
     79          1           0        7.873175   -1.506551    0.141595
     80          1           0        5.470826   -2.043495    0.232096
     81          1           0        2.831866    0.852553   -1.923323
     82          1           0        0.416926    0.369774   -1.838983
     83          1           0       -2.891765   -0.291065    1.118258
     84          1           0       -7.357995    1.120498    1.640422
     85          1           0       -8.750017   -0.376865    3.011421
 ---------------------------------------------------------------------

 SCF Done:  E(RB3LYP) =  -2109.38628573     A.U. after   16 cycles

 Excitation energies and oscillator strengths:

 Excited state symmetry could not be determined.
 Excited State   1:      Triplet-?Sym    2.6263 eV  472.08 nm  f=0.0000  <S**2>=2.000
     175 ->178        -0.24626
     176 ->178         0.28539
     177 ->178         0.52357
 This state for optimization and/or second-order correction.
 Total Energy, E(TD-HF/TD-DFT) =  -2109.28977039
 Copying the excited state density for this state as the 1-particle RhoCI density.

 Excited state symmetry could not be determined.
 Excited State   2:      Triplet-?Sym    2.8850 eV  429.76 nm  f=0.0000  <S**2>=2.000
     165 ->181         0.10475
     171 ->179         0.14357
     174 ->179        -0.31277
     175 ->178        -0.10985
     175 ->179         0.19524
     176 ->178         0.11721
     176 ->179        -0.20528
     177 ->179         0.43741

 Excited state symmetry could not be determined.
 Excited State   3:      Singlet-?Sym    3.3754 eV  367.31 nm  f=1.1158  <S**2>=0.000
     177 ->178         0.68218
     177 ->179        -0.16178

 Excited state symmetry could not be determined.
 Excited State   4:      Singlet-?Sym    3.6292 eV  341.63 nm  f=0.0801  <S**2>=0.000
     177 ->178         0.16469
     177 ->179         0.67756

 Alpha  occ. eigenvalues --  -19.21751 -14.38573 -14.32610 -10.28158 -10.24389
 Alpha  occ. eigenvalues --  -10.24174 -10.22749 -10.22623 -10.22560 -10.21461
 Alpha  occ. eigenvalues --  -10.20536 -10.20515 -10.20459 -10.20378 -10.20343
 Alpha  occ. eigenvalues --  -10.20339 -10.20323 -10.20276 -10.20131 -10.20022
 Alpha  occ. eigenvalues --  -10.19945 -10.19764 -10.19707 -10.19601 -10.19552
 Alpha  occ. eigenvalues --  -10.19551 -10.19518 -10.19490 -10.19357 -10.19305
 Alpha  occ. eigenvalues --  -10.19247 -10.19218 -10.19204 -10.19192 -10.19158
 Alpha  occ. eigenvalues --  -10.19122 -10.19118 -10.19111 -10.19111 -10.19094
 Alpha  occ. eigenvalues --  -10.19064 -10.19042 -10.19019 -10.19018 -10.19009
 Alpha  occ. eigenvalues --  -10.18988 -10.18981 -10.18975 -10.18964 -10.18945
 Alpha  occ. eigenvalues --  -10.18890 -10.18826 -10.18316  -1.12171  -0.99233
 Alpha  occ. eigenvalues --   -0.92161  -0.90225  -0.87095  -0.86467  -0.85758
 Alpha  occ. eigenvalues --   -0.85169  -0.85071  -0.84313  -0.84063  -0.81284
 Alpha  occ. eigenvalues --   -0.79599  -0.78206  -0.77162  -0.75772  -0.75263
 Alpha  occ. eigenvalues --   -0.75018  -0.74879  -0.74634  -0.74601  -0.74327
 Alpha  occ. eigenvalues --   -0.74177  -0.73942  -0.72629  -0.71580  -0.70426
 Alpha  occ. eigenvalues --   -0.68457  -0.65955  -0.64600  -0.63500  -0.62709
 Alpha  occ. eigenvalues --   -0.61658  -0.61032  -0.60797  -0.60549  -0.60004
 Alpha  occ. eigenvalues --   -0.59884  -0.59570  -0.59078  -0.58953  -0.57712
 Alpha  occ. eigenvalues --   -0.57475  -0.57089  -0.56166  -0.53225  -0.52793
 Alpha  occ. eigenvalues --   -0.52381  -0.52042  -0.51756  -0.51068  -0.50765
 Alpha  occ. eigenvalues --   -0.50449  -0.49350  -0.48612  -0.47514  -0.47156
 Alpha  occ. eigenvalues --   -0.46846  -0.46546  -0.46352  -0.45572  -0.45324
 Alpha  occ. eigenvalues --   -0.45049  -0.44761  -0.44598  -0.44513  -0.44339
 Alpha  occ. eigenvalues --   -0.44234  -0.43981  -0.43748  -0.43561  -0.42983
 Alpha  occ. eigenvalues --   -0.42814  -0.42305  -0.42213  -0.42081  -0.42020
 Alpha  occ. eigenvalues --   -0.41606  -0.41478  -0.40943  -0.40886  -0.40536
 Alpha  occ. eigenvalues --   -0.39028  -0.38396  -0.37984  -0.37705  -0.37619
 Alpha  occ. eigenvalues --   -0.37004  -0.36842  -0.36561  -0.35990  -0.35930
 Alpha  occ. eigenvalues --   -0.35609  -0.35565  -0.35278  -0.35121  -0.35052
 Alpha  occ. eigenvalues --   -0.34937  -0.34633  -0.34334  -0.34245  -0.33785
 Alpha  occ. eigenvalues --   -0.33630  -0.33184  -0.32864  -0.32753  -0.32138
 Alpha  occ. eigenvalues --   -0.29131  -0.28394  -0.28104  -0.27354  -0.26911
 Alpha  occ. eigenvalues --   -0.25685  -0.25413  -0.25406  -0.24894  -0.24854
 Alpha  occ. eigenvalues --   -0.24320  -0.24059  -0.23809  -0.22721  -0.21923
 Alpha  occ. eigenvalues --   -0.21120  -0.19251
 Alpha virt. eigenvalues --   -0.05361  -0.04288  -0.02941  -0.02658  -0.01589
 Alpha virt. eigenvalues --   -0.00774  -0.00352  -0.00191   0.00022   0.00681
 Alpha virt. eigenvalues --    0.00956   0.01071   0.01633   0.02552   0.04082

 Mulliken charges:
               1
     1  C   -0.126062
     2  C   -0.133317
     3  C   -0.187159
     4  C    0.158581
     5  C   -0.227449
     6  C    0.151505
     7  C   -0.178716
     8  C   -0.135916
     9  C   -0.125768
    10  C   -0.132907
    11  C   -0.185199
    12  C    0.083467
    13  C   -0.180406
    14  C   -0.132937
    15  C   -0.134752
    16  C   -0.192438
    17  C    0.088129
    18  C    0.099039
    19  C   -0.207687
    20  C   -0.166188
    21  C    0.278744
    22  N   -0.741642
    23  C    0.310896
    24  C   -0.177606
    25  C   -0.142506
    26  C   -0.144613
    27  C   -0.196350
    28  C    0.059791
    29  C    0.063785
    30  C   -0.257471
    31  C    0.084274
    32  C    0.100856
    33  C   -0.186816
    34  C   -0.166308
    35  C    0.074467
    36  C    0.486800
    37  N   -0.544664
    38  C    0.251642
    39  C   -0.174569
    40  C   -0.143513
    41  C   -0.145543
    42  C   -0.186917
    43  C    0.336773
    44  O   -0.530848
    45  C   -0.174597
    46  C   -0.184393
    47  C   -0.193336
    48  C   -0.176543
    49  C    0.320769
    50  C   -0.215295
    51  C    0.071667
    52  C   -0.179181
    53  C   -0.135499
    54  H    0.130229
    55  H    0.131116
    56  H    0.141586
    57  H    0.141243
    58  H    0.132868
    59  H    0.130593
    60  H    0.131137
    61  H    0.143523
    62  H    0.136637
    63  H    0.132223
    64  H    0.132032
    65  H    0.131576
    66  H    0.138767
    67  H    0.151984
    68  H    0.144206
    69  H    0.128485
    70  H    0.125507
    71  H    0.131006
    72  H    0.135923
    73  H    0.137510
    74  H    0.165096
    75  H    0.144525
    76  H    0.131553
    77  H    0.133314
    78  H    0.145934
    79  H    0.152420
    80  H    0.135902
    81  H    0.133284
    82  H    0.144583
    83  H    0.156515
    84  H    0.141210
    85  H    0.131445
 Sum of Mulliken charges =  -0.00000

 Dipole moment (field-independent basis, Debye):
    X=             -3.4489    Y=             -0.6741    Z=             -0.2909  Tot=              3.5262
 Quadrupole moment (field-independent basis, Debye-Ang):
   XX=           -275.1685   YY=           -289.2477   ZZ=           -286.0629
   XY=            -11.6180   XZ=              4.7966   YZ=             -5.3085

 Normal termination of Gaussian 16 at Fri Nov  4 22:36:00 2022.
