 Gaussian 16, Revision B.01,
 Gaussian 16:  ES64L-G16RevB.01 20-Dec-2017

 -----------------------------
 #p b3lyp/6-31g(d) opt SCF=XQC
 -----------------------------

 ------------------------------
 Gaussian input prepared by ASE
 ------------------------------
 Symbolic Z-matrix:
 Charge =  0 Multiplicity = 1

 SCF Done:  E(RB3LYP) =  -2109.37448016     A.U. after   16 cycles
 SCF Done:  E(RB3LYP) =  -2109.38576089     A.U. after   13 cycles
 SCF Done:  E(RB3LYP) =  -2109.38615244     A.U. after   12 cycles
 SCF Done:  E(RB3LYP) =  -2109.38610104     A.U. after   12 cycles
 SCF Done:  E(RB3LYP) =  -2109.38628002     A.U. after   11 cycles
 SCF Done:  E(RB3LYP) =  -2109.38629260     A.U. after   10 cycles
 SCF Done:  E(RB3LYP) =  -2109.38629397     A.U. after    9 cycles
 SCF Done:  E(RB3LYP) =  -2109.38629420     A.U. after    7 cycles
 SCF Done:  E(RB3LYP) =  -2109.38629424     A.U. after    6 cycles
 Optimization completed.
    -- Stationary point found.

                         Standard orientation:
 ---------------------------------------------------------------------
 Center     Atomic      Atomic             Coordinates (Angstroms)
 Number     Number       Type             X           Y           Z
 ---------------------------------------------------------------------
      1          6           0        8.191320    2.806462    0.685415
      2          6           0        7.209627    2.765367   -0.304460
      3          6           0        6.376084    1.652217   -0.426149
      4          6           0        6.501841    0.558108    0.441180
      5          6           0        5.649483   -0.716861    0.252416
      6          6           0        5.280737   -1.392783    1.590936
      7          6           0        4.890057   -0.615268    2.693181
      8          6           0        4.468606   -1.212152    3.881039
      9          6           0        4.427528   -2.602730    3.993905
     10          6           0        4.810146   -3.386176    2.905814
     11          6           0        5.230327   -2.787320    1.716414
     12          6           0        6.392957   -1.648348   -0.723855
     13          6           0        7.653500   -2.220046   -0.590149
     14          6           0        8.148540   -3.025249   -1.621778
     15          6           0        7.391850   -3.248540   -2.777394
     16          6           0        6.129150   -2.670979   -2.919725
     17          6           0        5.633687   -1.870124   -1.888184
     18          6           0        4.365674   -1.144253   -1.766660
     19          6           0        3.274253   -1.055718   -2.633628
     20          6           0        2.176508   -0.277130   -2.270824
     21          6           0        2.155081    0.389198   -1.035668
     22          7           0        1.023335    1.168377   -0.671379
     23          6           0        1.043050    2.516575   -0.288437
     24          6           0        2.124030    3.397220   -0.191783
     25          6           0        1.858905    4.707678    0.200413
     26          6           0        0.551872    5.138386    0.485908
     27          6           0       -0.521886    4.259736    0.376991
     28          6           0       -0.283323    2.937632   -0.015238
     29          6           0       -1.141367    1.793029   -0.242422
     30          6           0       -2.517054    1.586569   -0.123629
     31          6           0       -3.064437    0.324178   -0.389811
     32          6           0       -4.523045    0.088678   -0.269593
     33          6           0       -5.027744   -1.133309    0.216235
     34          6           0       -6.392772   -1.356454    0.331299
     35          6           0       -7.308846   -0.356216   -0.035129
     36          6           0       -8.736948   -0.610555    0.094831
     37          7           0       -9.317944   -1.693654    0.522497
     38          6           0      -10.679273   -1.416025    0.448083
     39          6           0      -11.799964   -2.187603    0.769217
     40          6           0      -13.053959   -1.608661    0.576637
     41          6           0      -13.194705   -0.299881    0.079043
     42          6           0      -12.083461    0.483149   -0.246294
     43          6           0      -10.848733   -0.113938   -0.046272
     44          8           0       -9.599494    0.405364   -0.273778
     45          6           0       -6.820641    0.867504   -0.519506
     46          6           0       -5.451917    1.079913   -0.635171
     47          6           0       -2.195690   -0.726088   -0.770913
     48          6           0       -0.823262   -0.546909   -0.899989
     49          6           0       -0.300477    0.723419   -0.641961
     50          6           0        3.245915    0.289752   -0.158363
     51          6           0        4.350565   -0.461418   -0.536125
     52          6           0        7.499104    0.608703    1.427358
     53          6           0        8.333462    1.720178    1.549602
     54          1           0        8.838072    3.674218    0.782703
     55          1           0        7.088819    3.601148   -0.988849
     56          1           0        5.625948    1.634787   -1.210153
     57          1           0        4.929416    0.467940    2.628859
     58          1           0        4.174341   -0.586589    4.719739
     59          1           0        4.102489   -3.068977    4.920041
     60          1           0        4.783830   -4.470440    2.977577
     61          1           0        5.520918   -3.414206    0.880117
     62          1           0        8.251507   -2.043434    0.299363
     63          1           0        9.131655   -3.477809   -1.525176
     64          1           0        7.791308   -3.873770   -3.571306
     65          1           0        5.545228   -2.842727   -3.820351
     66          1           0        3.277952   -1.572985   -3.589299
     67          1           0        1.331587   -0.172055   -2.943941
     68          1           0        3.136475    3.076226   -0.412848
     69          1           0        2.683793    5.409860    0.285614
     70          1           0        0.380214    6.166464    0.791645
     71          1           0       -1.533364    4.595444    0.590573
     72          1           0       -3.160368    2.396636    0.208493
     73          1           0       -4.335712   -1.907948    0.533295
     74          1           0       -6.770693   -2.298490    0.714825
     75          1           0      -11.688028   -3.196627    1.152776
     76          1           0      -13.946634   -2.179709    0.815813
     77          1           0      -14.190174    0.113207   -0.055995
     78          1           0      -12.179407    1.493089   -0.630567
     79          1           0       -7.517899    1.644285   -0.815351
     80          1           0       -5.094182    2.021482   -1.041395
     81          1           0       -2.617004   -1.701232   -0.996423
     82          1           0       -0.183056   -1.371523   -1.194707
     83          1           0        3.203824    0.787185    0.804903
     84          1           0        7.616831   -0.222270    2.115916
     85          1           0        9.094397    1.735347    2.325656
 ---------------------------------------------------------------------

 The electronic state is 1-A.
 Alpha  occ. eigenvalues --  -19.21751 -14.38573 -14.32610 -10.28158 -10.24389
 Alpha  occ. eigenvalues --  -10.24174 -10.22749 -10.22623 -10.22560 -10.21461
 Alpha  occ. eigenvalues --  -10.20536 -10.20515 -10.20459 -10.20378 -10.20343
 Alpha  occ. eigenvalues --  -10.20339 -10.20323 -10.20276 -10.20131 -10.20022
 Alpha  occ. eigenvalues --  -10.19945 -10.19764 -10.19707 -10.19601 -10.19552
 Alpha  occ. eigenvalues --  -10.19551 -10.19518 -10.19490 -10.19357 -10.19305
 Alpha  occ. eigenvalues --  -10.19247 -10.19218 -10.19204 -10.19192 -10.19158
 Alpha  occ. eigenvalues --  -10.19122 -10.19118 -10.19111 -10.19111 -10.19094
 Alpha  occ. eigenvalues --  -10.19064 -10.19042 -10.19019 -10.19018 -10.19009
 Alpha  occ. eigenvalues --  -10.18988 -10.18981 -10.18975 -10.18963 -10.18945
 Alpha  occ. eigenvalues --  -10.18890 -10.18826 -10.18316  -1.12171  -0.99233
 Alpha  occ. eigenvalues --   -0.92161  -0.90225  -0.87095  -0.86467  -0.85758
 Alpha  occ. eigenvalues --   -0.85169  -0.85071  -0.84313  -0.84063  -0.81284
 Alpha  occ. eigenvalues --   -0.79599  -0.78207  -0.77162  -0.75772  -0.75263
 Alpha  occ. eigenvalues --   -0.75018  -0.74879  -0.74634  -0.74601  -0.74327
 Alpha  occ. eigenvalues --   -0.74177  -0.73942  -0.72629  -0.71580  -0.70426
 Alpha  occ. eigenvalues --   -0.68457  -0.65955  -0.64600  -0.63500  -0.62709
 Alpha  occ. eigenvalues --   -0.61658  -0.61032  -0.60797  -0.60549  -0.60004
 Alpha  occ. eigenvalues --   -0.59884  -0.59570  -0.59078  -0.58953  -0.57712
 Alpha  occ. eigenvalues --   -0.57475  -0.57089  -0.56166  -0.53225  -0.52793
 Alpha  occ. eigenvalues --   -0.52381  -0.52042  -0.51756  -0.51068  -0.50765
 Alpha  occ. eigenvalues --   -0.50449  -0.49350  -0.48612  -0.47514  -0.47156
 Alpha  occ. eigenvalues --   -0.46846  -0.46546  -0.46352  -0.45572  -0.45324
 Alpha  occ. eigenvalues --   -0.45049  -0.44761  -0.44598  -0.44513  -0.44339
 Alpha  occ. eigenvalues --   -0.44234  -0.43981  -0.43748  -0.43561  -0.42983
 Alpha  occ. eigenvalues --   -0.42814  -0.42305  -0.42213  -0.42081  -0.42020
 Alpha  occ. eigenvalues --   -0.41606  -0.41478  -0.40943  -0.40886  -0.40536
 Alpha  occ. eigenvalues --   -0.39028  -0.38396  -0.37984  -0.37705  -0.37619
 Alpha  occ. eigenvalues --   -0.37004  -0.36842  -0.36561  -0.35990  -0.35930
 Alpha  occ. eigenvalues --   -0.35609  -0.35565  -0.35278  -0.35121  -0.35052
 Alpha  occ. eigenvalues --   -0.34937  -0.34633  -0.34334  -0.34245  -0.33785
 Alpha  occ. eigenvalues --   -0.33630  -0.33184  -0.32864  -0.32753  -0.32138
 Alpha  occ. eigenvalues --   -0.29131  -0.28394  -0.28104  -0.27354  -0.26911
 Alpha  occ. eigenvalues --   -0.25685  -0.25413  -0.25406  -0.24894  -0.24854
 Alpha  occ. eigenvalues --   -0.24320  -0.24059  -0.23809  -0.22721  -0.21923
 Alpha  occ. eigenvalues --   -0.21120  -0.19251
 Alpha virt. eigenvalues --   -0.05361  -0.04288  -0.02941  -0.02658  -0.01589
 Alpha virt. eigenvalues --   -0.00774  -0.00352  -0.00191   0.00022   0.00681
 Alpha virt. eigenvalues --    0.00956   0.01071   0.01633   0.02552   0.04082

 Mulliken charges:
               1
     1  C   -0.126060
     2  C   -0.133304
     3  C   -0.187168
     4  C    0.158583
     5  C   -0.227475
     6  C    0.151497
     7  C   -0.178718
     8  C   -0.135919
     9  C   -0.125760
    10  C   -0.132916
    11  C   -0.185185
    12  C    0.083478
    13  C   -0.180412
    14  C   -0.132941
    15  C   -0.134744
    16  C   -0.192441
    17  C    0.088125
    18  C    0.099061
    19  C   -0.207708
    20  C   -0.166197
    21  C    0.278761
    22  N   -0.741641
    23  C    0.310906
    24  C   -0.177618
    25  C   -0.142506
    26  C   -0.144610
    27  C   -0.196352
    28  C    0.059791
    29  C    0.063805
    30  C   -0.257467
    31  C    0.084257
    32  C    0.100852
    33  C   -0.186814
    34  C   -0.166300
    35  C    0.074463
    36  C    0.486796
    37  N   -0.544672
    38  C    0.251659
    39  C   -0.174567
    40  C   -0.143518
    41  C   -0.145542
    42  C   -0.186910
    43  C    0.336757
    44  O   -0.530846
    45  C   -0.174596
    46  C   -0.184391
    47  C   -0.193324
    48  C   -0.176538
    49  C    0.320744
    50  C   -0.215330
    51  C    0.071699
    52  C   -0.179168
    53  C   -0.135511
    54  H    0.130229
    55  H    0.131114
    56  H    0.141584
    57  H    0.141242
    58  H    0.132868
    59  H    0.130594
    60  H    0.131137
    61  H    0.143524
    62  H    0.136636
    63  H    0.132223
    64  H    0.132032
    65  H    0.131575
    66  H    0.138768
    67  H    0.151986
    68  H    0.144210
    69  H    0.128484
    70  H    0.125506
    71  H    0.131006
    72  H    0.135923
    73  H    0.137509
    74  H    0.165095
    75  H    0.144525
    76  H    0.131553
    77  H    0.133314
    78  H    0.145934
    79  H    0.152419
    80  H    0.135902
    81  H    0.133284
    82  H    0.144582
    83  H    0.156520
    84  H    0.141209
    85  H    0.131446
 Sum of Mulliken charges =  -0.00000

 Dipole moment (field-independent basis, Debye):
    X=              3.4679    Y=              0.2115    Z=             -0.6026  Tot=              3.5262
 Quadrupole moment (field-independent basis, Debye-Ang):
   XX=           -274.3629   YY=           -281.9047   ZZ=           -292.3164
   XY=            -12.3970   XZ=              3.4739   YZ=              2.7356

 Normal termination of Gaussian 16 at Sat Nov  5 01:59:50 2022.
