 Gaussian 16, Revision B.01,
 Gaussian 16:  ES64L-G16RevB.01 20-Dec-2017

 -------------------------------------------------------------------
 #p b3lyp/6-31g(d) 6D 10F nosymm GFInput td=(50-50,nstate=2) SCF=XQC
 -------------------------------------------------------------------

 ------------------------------
 Gaussian input prepared by ASE
 ------------------------------
 Symbolic Z-matrix:
 Charge =  0 Multiplicity = 1

                          Input orientation:
 ---------------------------------------------------------------------
 Center     Atomic      Atomic             Coordinates (Angstroms)
 Number     Number       Type             X           Y           Z
 ---------------------------------------------------------------------
      1          6           0       -0.977610    0.134702    0.194079
      2          6           0       -1.821207   -0.342137   -0.747238
      3          6           0       -3.282002   -0.334524   -0.712874
      4          6           0       -3.996677   -0.856757   -1.807363
      5          6           0       -5.386234   -0.873325   -1.843099
      6          6           0       -6.129928   -0.376173   -0.760771
      7          7           0       -7.547409   -0.375604   -0.761552
      8          6           0       -8.285770   -1.381677   -1.440845
      9          6           0       -7.883797   -2.728042   -1.374880
     10          6           0       -8.621199   -3.715019   -2.023754
     11          6           0       -9.780093   -3.389037   -2.733167
     12          6           0      -10.187918   -2.056100   -2.789568
     13          6           0       -9.447689   -1.056964   -2.158196
     14          6           0       -8.226995    0.792239   -0.287073
     15          6           0       -7.945118    2.023728   -0.849384
     16          6           0       -8.594535    3.194825   -0.400291
     17          6           0       -9.537059    3.125781    0.599507
     18          6           0       -9.852248    1.882902    1.210653
     19          6           0      -10.805363    1.793391    2.261124
     20          6           0      -11.077145    0.590836    2.871638
     21          6           0      -10.398467   -0.580757    2.459956
     22          6           0       -9.474770   -0.533348    1.439504
     23          6           0       -9.181223    0.689872    0.778686
     24          6           0       -5.429520    0.144904    0.344362
     25          6           0       -4.043637    0.168853    0.362259
     26          6           0        0.484256    0.124152    0.156254
     27          6           0        1.241448   -0.401236   -0.910461
     28          6           0        2.628858   -0.381871   -0.887979
     29          6           0        3.341952    0.160616    0.199000
     30          6           0        4.822465    0.177173    0.217026
     31          6           0        5.536820    1.234876    0.807359
     32          6           0        6.926755    1.250849    0.835772
     33          6           0        7.666244    0.208347    0.253112
     34          7           0        9.084970    0.223785    0.271121
     35          6           0        9.808559   -0.979075    0.500929
     36          6           0        9.391055   -1.885574    1.488903
     37          6           0       10.099593   -3.066038    1.704544
     38          6           0       11.242844   -3.355664    0.956603
     39          6           0       11.665796   -2.451499   -0.020033
     40          6           0       10.953337   -1.277241   -0.255737
     41          6           0        9.788146    1.441862    0.059058
     42          6           0       10.907833    1.763625    0.843128
     43          6           0       11.600773    2.952835    0.624880
     44          6           0       11.182445    3.848572   -0.361469
     45          6           0       10.063905    3.535388   -1.136767
     46          6           0        9.375482    2.340066   -0.938497
     47          6           0        6.964821   -0.849880   -0.347891
     48          6           0        5.574574   -0.864339   -0.354890
     49          6           0        2.589615    0.684948    1.263785
     50          6           0        1.199911    0.667112    1.240437
     51          1           0       -1.397268    0.584282    1.093132
     52          1           0       -1.399755   -0.788398   -1.647223
     53          1           0       -3.444669   -1.244915   -2.660626
     54          1           0       -5.899641   -1.269969   -2.712582
     55          1           0       -6.994308   -2.993169   -0.812309
     56          1           0       -8.293260   -4.749469   -1.960875
     57          1           0      -10.356488   -4.163284   -3.231248
     58          1           0      -11.085489   -1.783285   -3.338582
     59          1           0       -9.767496   -0.022014   -2.218405
     60          1           0       -7.213348    2.081152   -1.649492
     61          1           0       -8.353314    4.147658   -0.863228
     62          1           0      -10.048166    4.022296    0.941607
     63          1           0      -11.314295    2.700594    2.578381
     64          1           0      -11.807378    0.538058    3.674612
     65          1           0      -10.607012   -1.525167    2.955282
     66          1           0       -8.958640   -1.435294    1.131305
     67          1           0       -5.987548    0.527609    1.193086
     68          1           0       -3.544416    0.573521    1.237781
     69          1           0        0.739056   -0.821963   -1.776627
     70          1           0        3.175696   -0.770523   -1.742672
     71          1           0        4.994447    2.069438    1.242708
     72          1           0        7.448572    2.079961    1.302756
     73          1           0        8.511397   -1.658667    2.082834
     74          1           0        9.761824   -3.755982    2.473524
     75          1           0       11.796636   -4.273454    1.132534
     76          1           0       12.549574   -2.665870   -0.615386
     77          1           0       11.278497   -0.584466   -1.025377
     78          1           0       11.228951    1.077331    1.620228
     79          1           0       12.465233    3.185397    1.241391
     80          1           0       11.720793    4.777978   -0.523825
     81          1           0        9.730236    4.218577   -1.913529
     82          1           0        8.515407    2.095054   -1.553534
     83          1           0        7.516360   -1.667174   -0.801349
     84          1           0        5.062057   -1.710503   -0.803794
     85          1           0        3.100623    1.087245    2.134087
     86          1           0        0.648287    1.073059    2.085638
 ---------------------------------------------------------------------

 SCF Done:  E(RB3LYP) =  -1960.30768493     A.U. after   16 cycles

 Excitation energies and oscillator strengths:

 Excited state symmetry could not be determined.
 Excited State   1:      Triplet-?Sym    2.0195 eV  613.93 nm  f=0.0000  <S**2>=2.000
     167 ->170         0.23293
     168 ->170        -0.16125
     169 ->170         0.59588
     169 ->171        -0.10276
 This state for optimization and/or second-order correction.
 Total Energy, E(TD-HF/TD-DFT) =  -1960.23346908
 Copying the excited state density for this state as the 1-particle RhoCI density.

 Excited state symmetry could not be determined.
 Excited State   2:      Triplet-?Sym    2.4961 eV  496.72 nm  f=0.0000  <S**2>=2.000
     166 ->170         0.10906
     166 ->171         0.31034
     167 ->170        -0.17597
     167 ->171        -0.25517
     168 ->170        -0.16510
     168 ->171        -0.27995
     169 ->171         0.39402

 Excited state symmetry could not be determined.
 Excited State   3:      Singlet-?Sym    2.8858 eV  429.64 nm  f=1.6372  <S**2>=0.000
     168 ->171        -0.11845
     169 ->170         0.68231

 Excited state symmetry could not be determined.
 Excited State   4:      Singlet-?Sym    3.1351 eV  395.47 nm  f=0.2519  <S**2>=0.000
     168 ->170        -0.26332
     168 ->171        -0.21234
     169 ->170        -0.13491
     169 ->171         0.59550

 Alpha  occ. eigenvalues --  -14.36457 -14.36351 -10.23000 -10.22938 -10.22883
 Alpha  occ. eigenvalues --  -10.22811 -10.22811 -10.22805 -10.20097 -10.20051
 Alpha  occ. eigenvalues --  -10.19473 -10.19452 -10.19420 -10.19313 -10.19271
 Alpha  occ. eigenvalues --  -10.19257 -10.19242 -10.19229 -10.19163 -10.19101
 Alpha  occ. eigenvalues --  -10.18948 -10.18946 -10.18944 -10.18943 -10.18912
 Alpha  occ. eigenvalues --  -10.18885 -10.18852 -10.18844 -10.18831 -10.18812
 Alpha  occ. eigenvalues --  -10.18809 -10.18805 -10.18637 -10.18636 -10.18634
 Alpha  occ. eigenvalues --  -10.18632 -10.18624 -10.18620 -10.18603 -10.18602
 Alpha  occ. eigenvalues --  -10.18592 -10.18572 -10.18552 -10.18550 -10.18534
 Alpha  occ. eigenvalues --  -10.18522 -10.18519 -10.18482 -10.18459 -10.18350
 Alpha  occ. eigenvalues --   -0.96393  -0.96256  -0.87143  -0.86365  -0.85505
 Alpha  occ. eigenvalues --   -0.85202  -0.84797  -0.84104  -0.83243  -0.81902
 Alpha  occ. eigenvalues --   -0.79649  -0.77524  -0.76713  -0.75537  -0.75086
 Alpha  occ. eigenvalues --   -0.74559  -0.74480  -0.74310  -0.74206  -0.74149
 Alpha  occ. eigenvalues --   -0.73925  -0.73780  -0.73265  -0.71792  -0.70395
 Alpha  occ. eigenvalues --   -0.68784  -0.64227  -0.63135  -0.62650  -0.62317
 Alpha  occ. eigenvalues --   -0.61558  -0.61469  -0.61237  -0.60464  -0.60099
 Alpha  occ. eigenvalues --   -0.59800  -0.59684  -0.59093  -0.58389  -0.57009
 Alpha  occ. eigenvalues --   -0.56493  -0.54987  -0.53370  -0.53185  -0.53108
 Alpha  occ. eigenvalues --   -0.52639  -0.51503  -0.51195  -0.49768  -0.49490
 Alpha  occ. eigenvalues --   -0.49076  -0.48124  -0.47911  -0.47622  -0.46828
 Alpha  occ. eigenvalues --   -0.46237  -0.45650  -0.45129  -0.44722  -0.44562
 Alpha  occ. eigenvalues --   -0.44273  -0.44027  -0.43933  -0.43721  -0.43265
 Alpha  occ. eigenvalues --   -0.43182  -0.42543  -0.42309  -0.42080  -0.42047
 Alpha  occ. eigenvalues --   -0.41954  -0.41906  -0.41854  -0.41716  -0.41645
 Alpha  occ. eigenvalues --   -0.41122  -0.40285  -0.38854  -0.38831  -0.38283
 Alpha  occ. eigenvalues --   -0.37995  -0.37508  -0.37475  -0.36881  -0.36725
 Alpha  occ. eigenvalues --   -0.36470  -0.36363  -0.36000  -0.35879  -0.35587
 Alpha  occ. eigenvalues --   -0.35247  -0.34986  -0.34669  -0.34330  -0.34175
 Alpha  occ. eigenvalues --   -0.34043  -0.33811  -0.33700  -0.33322  -0.32825
 Alpha  occ. eigenvalues --   -0.32536  -0.31812  -0.30556  -0.29339  -0.28356
 Alpha  occ. eigenvalues --   -0.26809  -0.25679  -0.25509  -0.25310  -0.24913
 Alpha  occ. eigenvalues --   -0.24735  -0.24650  -0.24487  -0.24481  -0.24188
 Alpha  occ. eigenvalues --   -0.22257  -0.21090  -0.18376  -0.17298
 Alpha virt. eigenvalues --   -0.05296  -0.04100  -0.01643  -0.01239  -0.01207
 Alpha virt. eigenvalues --   -0.00963  -0.00062   0.00182   0.00489   0.00828
 Alpha virt. eigenvalues --    0.00845   0.00906   0.02042   0.03508   0.04846

 Mulliken charges:
               1
     1  C   -0.194224
     2  C   -0.191037
     3  C    0.190887
     4  C   -0.215049
     5  C   -0.177355
     6  C    0.291732
     7  N   -0.652942
     8  C    0.293703
     9  C   -0.166079
    10  C   -0.139855
    11  C   -0.129240
    12  C   -0.138239
    13  C   -0.174465
    14  C    0.170598
    15  C   -0.159074
    16  C   -0.147820
    17  C   -0.181944
    18  C    0.120690
    19  C   -0.196393
    20  C   -0.130321
    21  C   -0.138470
    22  C   -0.181974
    23  C    0.121809
    24  C   -0.165698
    25  C   -0.194433
    26  C    0.189777
    27  C   -0.189177
    28  C   -0.178836
    29  C    0.092388
    30  C    0.097544
    31  C   -0.188990
    32  C   -0.171911
    33  C    0.288576
    34  N   -0.653511
    35  C    0.275080
    36  C   -0.162395
    37  C   -0.140159
    38  C   -0.128464
    39  C   -0.140115
    40  C   -0.162409
    41  C    0.275291
    42  C   -0.162484
    43  C   -0.140103
    44  C   -0.128480
    45  C   -0.140154
    46  C   -0.162506
    47  C   -0.171984
    48  C   -0.189118
    49  C   -0.178634
    50  C   -0.207059
    51  H    0.124050
    52  H    0.124792
    53  H    0.128377
    54  H    0.146343
    55  H    0.145034
    56  H    0.130653
    57  H    0.126451
    58  H    0.130822
    59  H    0.143575
    60  H    0.144758
    61  H    0.134824
    62  H    0.130307
    63  H    0.130701
    64  H    0.131231
    65  H    0.132501
    66  H    0.151368
    67  H    0.144208
    68  H    0.131673
    69  H    0.128513
    70  H    0.130372
    71  H    0.133758
    72  H    0.145152
    73  H    0.144661
    74  H    0.131628
    75  H    0.127461
    76  H    0.131177
    77  H    0.144197
    78  H    0.144205
    79  H    0.131165
    80  H    0.127430
    81  H    0.131585
    82  H    0.144639
    83  H    0.145148
    84  H    0.133750
    85  H    0.130427
    86  H    0.126089
 Sum of Mulliken charges =  -0.00000

 Dipole moment (field-independent basis, Debye):
    X=             -0.6720    Y=              0.3487    Z=              0.1276  Tot=              0.7678
 Quadrupole moment (field-independent basis, Debye-Ang):
   XX=           -249.4873   YY=           -269.3707   ZZ=           -275.7933
   XY=             -4.3424   XZ=             -3.3901   YZ=              3.4401

 Normal termination of Gaussian 16 at Sat Nov  5 11:06:47 2022.
