 Gaussian 16, Revision B.01,
 Gaussian 16:  ES64L-G16RevB.01 20-Dec-2017

 -----------------------------
 #p b3lyp/6-31g(d) opt SCF=XQC
 -----------------------------

 ------------------------------
 Gaussian input prepared by ASE
 ------------------------------
 Symbolic Z-matrix:
 Charge =  0 Multiplicity = 1

 SCF Done:  E(RB3LYP) =  -1960.29446666     A.U. after   16 cycles
 SCF Done:  E(RB3LYP) =  -1960.30671152     A.U. after   13 cycles
 SCF Done:  E(RB3LYP) =  -1960.30750788     A.U. after   12 cycles
 SCF Done:  E(RB3LYP) =  -1960.30762939     A.U. after   11 cycles
 SCF Done:  E(RB3LYP) =  -1960.30766877     A.U. after   10 cycles
 SCF Done:  E(RB3LYP) =  -1960.30767940     A.U. after   10 cycles
 SCF Done:  E(RB3LYP) =  -1960.30768160     A.U. after    9 cycles
 SCF Done:  E(RB3LYP) =  -1960.30768248     A.U. after    9 cycles
 SCF Done:  E(RB3LYP) =  -1960.30768281     A.U. after    8 cycles
 SCF Done:  E(RB3LYP) =  -1960.30768312     A.U. after    8 cycles
 SCF Done:  E(RB3LYP) =  -1960.30768323     A.U. after    7 cycles
 SCF Done:  E(RB3LYP) =  -1960.30768327     A.U. after    7 cycles
 SCF Done:  E(RB3LYP) =  -1960.30768330     A.U. after    7 cycles
 SCF Done:  E(RB3LYP) =  -1960.30768331     A.U. after    7 cycles
 SCF Done:  E(RB3LYP) =  -1960.30768333     A.U. after    7 cycles
 SCF Done:  E(RB3LYP) =  -1960.30768333     A.U. after    6 cycles
 Optimization completed.
    -- Stationary point found.

                         Standard orientation:
 ---------------------------------------------------------------------
 Center     Atomic      Atomic             Coordinates (Angstroms)
 Number     Number       Type             X           Y           Z
 ---------------------------------------------------------------------
      1          6           0        0.916949   -0.209147    0.208302
      2          6           0        1.795509    0.497073   -0.536342
      3          6           0        3.254359    0.438573   -0.477214
      4          6           0        4.009158    1.236430   -1.357611
      5          6           0        5.399210    1.223472   -1.359856
      6          6           0        6.102785    0.411991   -0.455336
      7          7           0        7.519440    0.371680   -0.428608
      8          6           0        8.297059    1.510680   -0.770348
      9          6           0        7.922235    2.790308   -0.322361
     10          6           0        8.697672    3.902218   -0.640599
     11          6           0        9.868005    3.764316   -1.391510
     12          6           0       10.248708    2.494581   -1.826319
     13          6           0        9.470658    1.376217   -1.528421
     14          6           0        8.160992   -0.902399   -0.302274
     15          6           0        7.868157   -1.908383   -1.204746
     16          6           0        8.480171   -3.177332   -1.104227
     17          6           0        9.396740   -3.428960   -0.109591
     18          6           0        9.721797   -2.427241    0.843555
     19          6           0       10.648024   -2.674347    1.892827
     20          6           0       10.928858   -1.709779    2.832758
     21          6           0       10.286606   -0.450422    2.767589
     22          6           0        9.389869   -0.172623    1.759880
     23          6           0        9.088195   -1.141694    0.765389
     24          6           0        5.361983   -0.388263    0.435854
     25          6           0        3.975924   -0.377272    0.418959
     26          6           0       -0.542815   -0.146800    0.146701
     27          6           0       -1.259698    0.687518   -0.734915
     28          6           0       -2.647308    0.701600   -0.746118
     29          6           0       -3.400756   -0.113484    0.121219
     30          6           0       -4.881235   -0.092793    0.104758
     31          6           0       -5.633571   -1.255944    0.346831
     32          6           0       -7.023793   -1.240273    0.342240
     33          6           0       -7.724975   -0.052871    0.074720
     34          7           0       -9.143679   -0.032848    0.059774
     35          6           0       -9.847392    1.070927    0.616313
     36          6           0       -9.437374    1.638388    1.833694
     37          6           0      -10.126141    2.724446    2.370445
     38          6           0      -11.242446    3.251403    1.717375
     39          6           0      -11.658164    2.683026    0.511410
     40          6           0      -10.964806    1.608633   -0.042641
     41          6           0       -9.866694   -1.116083   -0.512055
     42          6           0      -11.013651   -1.620442    0.122064
     43          6           0      -11.725654   -2.674562   -0.447060
     44          6           0      -11.300146   -3.255787   -1.643449
     45          6           0      -10.154753   -2.762154   -2.271704
     46          6           0       -9.446597   -1.696247   -1.719991
     47          6           0       -6.985266    1.114253   -0.177657
     48          6           0       -5.595340    1.090891   -0.153023
     49          6           0       -2.688651   -0.946093    1.001202
     50          6           0       -1.298758   -0.961451    1.011175
     51          1           0        1.302618   -0.912639    0.945113
     52          1           0        1.408002    1.197713   -1.275047
     53          1           0        3.488677    1.871591   -2.071130
     54          1           0        5.944136    1.841408   -2.065636
     55          1           0        7.023797    2.905162    0.275625
     56          1           0        8.390275    4.882380   -0.285107
     57          1           0       10.473944    4.633444   -1.630738
     58          1           0       11.154694    2.368199   -2.413426
     59          1           0        9.769845    0.395029   -1.881663
     60          1           0        7.157099   -1.709723   -2.000917
     61          1           0        8.231234   -3.946922   -1.829588
     62          1           0        9.879250   -4.400283   -0.033989
     63          1           0       11.128801   -3.648597    1.941510
     64          1           0       11.638204   -1.913672    3.630285
     65          1           0       10.501836    0.302608    3.520830
     66          1           0        8.901543    0.794166    1.718185
     67          1           0        5.888718   -1.017056    1.146741
     68          1           0        3.444844   -1.005040    1.128450
     69          1           0       -0.725357    1.327829   -1.430712
     70          1           0       -3.162572    1.337503   -1.460761
     71          1           0       -5.120999   -2.196053    0.530288
     72          1           0       -7.575518   -2.154354    0.536788
     73          1           0       -8.579032    1.223679    2.352638
     74          1           0       -9.794539    3.150824    3.313674
     75          1           0      -11.781087    4.093467    2.142544
     76          1           0      -12.520852    3.086277   -0.012631
     77          1           0      -11.283849    1.179384   -0.987081
     78          1           0      -11.340845   -1.181327    1.059147
     79          1           0      -12.611131   -3.052041    0.057819
     80          1           0      -11.853615   -4.082097   -2.080322
     81          1           0       -9.814959   -3.198753   -3.207314
     82          1           0       -8.565277   -1.307167   -2.219914
     83          1           0       -7.506879    2.043379   -0.383648
     84          1           0       -5.053031    2.016277   -0.325489
     85          1           0       -3.231322   -1.569741    1.706163
     86          1           0       -0.778823   -1.611263    1.711789
 ---------------------------------------------------------------------

 The electronic state is 1-A.
 Alpha  occ. eigenvalues --  -14.36457 -14.36351 -10.23000 -10.22938 -10.22883
 Alpha  occ. eigenvalues --  -10.22811 -10.22811 -10.22805 -10.20097 -10.20051
 Alpha  occ. eigenvalues --  -10.19473 -10.19452 -10.19419 -10.19313 -10.19271
 Alpha  occ. eigenvalues --  -10.19257 -10.19242 -10.19229 -10.19163 -10.19101
 Alpha  occ. eigenvalues --  -10.18948 -10.18946 -10.18944 -10.18943 -10.18912
 Alpha  occ. eigenvalues --  -10.18885 -10.18852 -10.18844 -10.18831 -10.18812
 Alpha  occ. eigenvalues --  -10.18809 -10.18805 -10.18637 -10.18636 -10.18634
 Alpha  occ. eigenvalues --  -10.18632 -10.18624 -10.18620 -10.18603 -10.18602
 Alpha  occ. eigenvalues --  -10.18592 -10.18572 -10.18552 -10.18550 -10.18534
 Alpha  occ. eigenvalues --  -10.18522 -10.18519 -10.18482 -10.18459 -10.18350
 Alpha  occ. eigenvalues --   -0.96393  -0.96256  -0.87143  -0.86365  -0.85505
 Alpha  occ. eigenvalues --   -0.85202  -0.84797  -0.84104  -0.83243  -0.81902
 Alpha  occ. eigenvalues --   -0.79649  -0.77524  -0.76713  -0.75537  -0.75086
 Alpha  occ. eigenvalues --   -0.74559  -0.74480  -0.74310  -0.74206  -0.74149
 Alpha  occ. eigenvalues --   -0.73925  -0.73780  -0.73265  -0.71792  -0.70395
 Alpha  occ. eigenvalues --   -0.68784  -0.64227  -0.63135  -0.62650  -0.62317
 Alpha  occ. eigenvalues --   -0.61558  -0.61469  -0.61237  -0.60464  -0.60099
 Alpha  occ. eigenvalues --   -0.59800  -0.59684  -0.59093  -0.58389  -0.57009
 Alpha  occ. eigenvalues --   -0.56493  -0.54987  -0.53370  -0.53185  -0.53107
 Alpha  occ. eigenvalues --   -0.52639  -0.51503  -0.51195  -0.49768  -0.49490
 Alpha  occ. eigenvalues --   -0.49076  -0.48124  -0.47911  -0.47622  -0.46828
 Alpha  occ. eigenvalues --   -0.46237  -0.45650  -0.45129  -0.44722  -0.44562
 Alpha  occ. eigenvalues --   -0.44273  -0.44027  -0.43933  -0.43722  -0.43265
 Alpha  occ. eigenvalues --   -0.43182  -0.42543  -0.42309  -0.42080  -0.42047
 Alpha  occ. eigenvalues --   -0.41954  -0.41906  -0.41854  -0.41716  -0.41645
 Alpha  occ. eigenvalues --   -0.41122  -0.40285  -0.38854  -0.38831  -0.38283
 Alpha  occ. eigenvalues --   -0.37995  -0.37508  -0.37475  -0.36881  -0.36725
 Alpha  occ. eigenvalues --   -0.36470  -0.36363  -0.36000  -0.35879  -0.35587
 Alpha  occ. eigenvalues --   -0.35247  -0.34986  -0.34669  -0.34330  -0.34175
 Alpha  occ. eigenvalues --   -0.34043  -0.33811  -0.33700  -0.33322  -0.32825
 Alpha  occ. eigenvalues --   -0.32536  -0.31812  -0.30556  -0.29339  -0.28356
 Alpha  occ. eigenvalues --   -0.26809  -0.25679  -0.25509  -0.25310  -0.24913
 Alpha  occ. eigenvalues --   -0.24735  -0.24650  -0.24487  -0.24481  -0.24188
 Alpha  occ. eigenvalues --   -0.22257  -0.21090  -0.18376  -0.17298
 Alpha virt. eigenvalues --   -0.05296  -0.04100  -0.01643  -0.01239  -0.01207
 Alpha virt. eigenvalues --   -0.00963  -0.00062   0.00182   0.00489   0.00828
 Alpha virt. eigenvalues --    0.00845   0.00906   0.02042   0.03508   0.04845

 Mulliken charges:
               1
     1  C   -0.194224
     2  C   -0.191037
     3  C    0.190867
     4  C   -0.215044
     5  C   -0.177337
     6  C    0.291690
     7  N   -0.652928
     8  C    0.293702
     9  C   -0.166082
    10  C   -0.139841
    11  C   -0.129245
    12  C   -0.138241
    13  C   -0.174463
    14  C    0.170583
    15  C   -0.159075
    16  C   -0.147812
    17  C   -0.181939
    18  C    0.120682
    19  C   -0.196386
    20  C   -0.130323
    21  C   -0.138468
    22  C   -0.181982
    23  C    0.121819
    24  C   -0.165685
    25  C   -0.194420
    26  C    0.189756
    27  C   -0.189164
    28  C   -0.178826
    29  C    0.092357
    30  C    0.097553
    31  C   -0.188993
    32  C   -0.171918
    33  C    0.288582
    34  N   -0.653511
    35  C    0.275088
    36  C   -0.162401
    37  C   -0.140153
    38  C   -0.128467
    39  C   -0.140109
    40  C   -0.162416
    41  C    0.275312
    42  C   -0.162502
    43  C   -0.140096
    44  C   -0.128483
    45  C   -0.140146
    46  C   -0.162520
    47  C   -0.171989
    48  C   -0.189119
    49  C   -0.178614
    50  C   -0.207052
    51  H    0.124051
    52  H    0.124793
    53  H    0.128377
    54  H    0.146342
    55  H    0.145032
    56  H    0.130652
    57  H    0.126451
    58  H    0.130822
    59  H    0.143577
    60  H    0.144756
    61  H    0.134822
    62  H    0.130307
    63  H    0.130701
    64  H    0.131230
    65  H    0.132499
    66  H    0.151371
    67  H    0.144207
    68  H    0.131673
    69  H    0.128514
    70  H    0.130373
    71  H    0.133760
    72  H    0.145152
    73  H    0.144660
    74  H    0.131628
    75  H    0.127461
    76  H    0.131177
    77  H    0.144196
    78  H    0.144205
    79  H    0.131165
    80  H    0.127429
    81  H    0.131585
    82  H    0.144638
    83  H    0.145147
    84  H    0.133751
    85  H    0.130426
    86  H    0.126089
 Sum of Mulliken charges =  -0.00000

 Dipole moment (field-independent basis, Debye):
    X=              0.6607    Y=             -0.3895    Z=              0.0334  Tot=              0.7677
 Quadrupole moment (field-independent basis, Debye-Ang):
   XX=           -249.9467   YY=           -267.6968   ZZ=           -277.0762
   XY=             -5.6094   XZ=              2.5064   YZ=             -1.2493

 1\1\GINC-NODE18\FOpt\RB3LYP\6-31G(d)\C48H36N2\WYKGROUP\05-Nov-2022\0\\
 #p b3lyp/6-31g(d) opt SCF=XQC\\Gaussian input prepared by ASE\\0,1\C,-
 0.9776097071,0.1347019028,0.1940791997\C,-1.8212065555,-0.3421370383,-
 0.7472384458\C,-3.2820019212,-0.3345241951,-0.712873831\C,-3.996677253
 1,-0.8567566035,-1.8073629653\C,-5.3862340291,-0.8733254442,-1.8430993
 207\C,-6.1299281868,-0.376173049,-0.760771413\N,-7.5474086483,-0.37560
 43013,-0.761551779\C,-8.2857696049,-1.3816769945,-1.4408454504\C,-7.88
 37970378,-2.7280424382,-1.3748802273\C,-8.6211993934,-3.7150191886,-2.

 Normal termination of Gaussian 16 at Sat Nov  5 02:11:04 2022.
