 Gaussian 16, Revision B.01,
 Gaussian 16:  ES64L-G16RevB.01 20-Dec-2017

 -----------------------------
 #p b3lyp/6-31g(d) opt SCF=XQC
 -----------------------------

 ------------------------------
 Gaussian input prepared by ASE
 ------------------------------
 Symbolic Z-matrix:
 Charge =  0 Multiplicity = 1

 SCF Done:  E(RB3LYP) =  -2617.71772690     A.U. after   15 cycles
 SCF Done:  E(RB3LYP) =  -2617.73401409     A.U. after   13 cycles
 SCF Done:  E(RB3LYP) =  -2617.73524530     A.U. after   12 cycles
 SCF Done:  E(RB3LYP) =  -2617.73604195     A.U. after   12 cycles
 SCF Done:  E(RB3LYP) =  -2617.73615075     A.U. after   10 cycles
 SCF Done:  E(RB3LYP) =  -2617.73619519     A.U. after   11 cycles
 SCF Done:  E(RB3LYP) =  -2617.73620506     A.U. after    9 cycles
 SCF Done:  E(RB3LYP) =  -2617.73621067     A.U. after    9 cycles
 SCF Done:  E(RB3LYP) =  -2617.73621204     A.U. after    9 cycles
 SCF Done:  E(RB3LYP) =  -2617.73621236     A.U. after    7 cycles
 SCF Done:  E(RB3LYP) =  -2617.73621266     A.U. after    8 cycles
 SCF Done:  E(RB3LYP) =  -2617.73621271     A.U. after    6 cycles
 SCF Done:  E(RB3LYP) =  -2617.73621274     A.U. after    6 cycles
 Optimization completed.
    -- Stationary point found.

                         Standard orientation:
 ---------------------------------------------------------------------
 Center     Atomic      Atomic             Coordinates (Angstroms)
 Number     Number       Type             X           Y           Z
 ---------------------------------------------------------------------
      1          6           0       -5.943377    3.909966    2.750689
      2          6           0       -5.692616    4.291915    1.273107
      3          6           0       -4.286731    4.918677    1.125214
      4          6           0       -6.779018    5.223413    0.751293
      5          6           0       -7.465381    4.665085   -0.278291
      6          6           0       -8.586984    5.355777   -0.912398
      7          6           0       -8.795346    6.657469   -0.652162
      8          6           0       -7.851138    7.435697    0.240256
      9          6           0       -7.182668    6.555632    1.319407
     10          6           0       -6.918317    3.333851   -0.561997
     11          6           0       -7.258783    2.367059   -1.508449
     12          6           0       -6.542060    1.169500   -1.549555
     13          6           0       -5.499651    0.920368   -0.642188
     14          7           0       -4.782535   -0.310504   -0.688186
     15          6           0       -5.482163   -1.535707   -0.807927
     16          6           0       -4.972639   -2.586375   -1.590272
     17          6           0       -5.663025   -3.788188   -1.698769
     18          6           0       -6.893577   -3.993953   -1.051275
     19          6           0       -7.629058   -5.275095   -1.178123
     20          6           0       -6.943650   -6.500841   -1.250504
     21          6           0       -7.634615   -7.705303   -1.372295
     22          6           0       -9.029905   -7.715332   -1.420069
     23          6           0       -9.725929   -6.507260   -1.347047
     24          6           0       -9.034052   -5.302853   -1.229983
     25          6           0       -7.397280   -2.932870   -0.278917
     26          6           0       -6.708675   -1.732212   -0.150239
     27          6           0       -3.363441   -0.294463   -0.616451
     28          6           0       -2.621741    0.672109   -1.313736
     29          6           0       -1.233581    0.697623   -1.227285
     30          6           0       -0.524136   -0.244786   -0.462570
     31          6           0        0.957535   -0.217349   -0.378495
     32          6           0        1.732960    0.134986   -1.512850
     33          6           0        3.118643    0.190816   -1.474914
     34          6           0        3.761270   -0.128165   -0.270690
     35          6           0        3.016291   -0.501821    0.875432
     36          6           0        1.614250   -0.529016    0.814147
     37          6           0        3.962739   -0.735798    1.936356
     38          6           0        3.619235   -1.111987    3.323050
     39          6           0        4.164058   -0.436926    4.429446
     40          6           0        3.815772   -0.795844    5.730494
     41          6           0        2.907291   -1.831698    5.958145
     42          6           0        2.353036   -2.508285    4.870396
     43          6           0        2.706331   -2.153718    3.568540
     44          6           0        5.225555   -0.500863    1.412613
     45          6           0        6.515554   -0.639711    2.129369
     46          6           0        6.849391   -1.875036    2.711743
     47          6           0        8.036536   -2.030421    3.425688
     48          6           0        8.913085   -0.953699    3.573979
     49          6           0        8.589445    0.280778    3.008659
     50          6           0        7.400290    0.438333    2.296757
     51          7           0        5.109901   -0.133886    0.062429
     52          6           0        6.165265    0.066094   -0.939004
     53          6           0        6.882690    1.397067   -0.824387
     54          6           0        8.050670    1.585279   -1.454839
     55          6           0        8.717088    0.491793   -2.192794
     56          6           0        9.849114    0.819512   -3.096361
     57          6           0       10.946675   -0.047333   -3.237368
     58          6           0       11.994692    0.257077   -4.103809
     59          6           0       11.974957    1.441012   -4.844368
     60          6           0       10.897324    2.317299   -4.708195
     61          6           0        9.848498    2.011272   -3.841611
     62          6           0        8.277128   -0.772108   -2.008359
     63          6           0        7.162239   -1.102956   -1.043104
     64          6           0       -1.278841   -1.213112    0.222433
     65          6           0       -2.668144   -1.235180    0.160291
     66          6           0       -5.162165    1.897860    0.316064
     67          6           0       -5.864043    3.091189    0.344336
     68          1           0       -5.185282    3.200524    3.101698
     69          1           0       -6.927701    3.447007    2.875524
     70          1           0       -5.895388    4.796359    3.394550
     71          1           0       -3.512402    4.213821    1.448996
     72          1           0       -4.086083    5.192107    0.084283
     73          1           0       -4.196480    5.820939    1.741912
     74          1           0       -9.237934    4.808480   -1.590313
     75          1           0       -9.610625    7.194331   -1.131934
     76          1           0       -7.069908    7.886363   -0.395215
     77          1           0       -8.372888    8.274371    0.715824
     78          1           0       -6.328000    7.088995    1.753968
     79          1           0       -7.889755    6.392401    2.151342
     80          1           0       -8.060035    2.538737   -2.222890
     81          1           0       -6.787369    0.414621   -2.290019
     82          1           0       -4.036974   -2.450545   -2.122865
     83          1           0       -5.256902   -4.569766   -2.335101
     84          1           0       -5.859220   -6.509593   -1.183816
     85          1           0       -7.081024   -8.639679   -1.419380
     86          1           0       -9.568933   -8.654298   -1.513195
     87          1           0      -10.812058   -6.500555   -1.391985
     88          1           0       -9.586677   -4.367717   -1.204947
     89          1           0       -8.328066   -3.063880    0.266242
     90          1           0       -7.113299   -0.940355    0.471630
     91          1           0       -3.141611    1.411014   -1.915334
     92          1           0       -0.689069    1.474828   -1.756416
     93          1           0        1.226673    0.351873   -2.448804
     94          1           0        3.669838    0.480156   -2.364478
     95          1           0        1.040645   -0.761676    1.706020
     96          1           0        4.859259    0.380022    4.262710
     97          1           0        4.249616   -0.257843    6.569634
     98          1           0        2.633085   -2.107415    6.972988
     99          1           0        1.647759   -3.319246    5.034182
    100          1           0        2.285453   -2.698127    2.727764
    101          1           0        6.168118   -2.712672    2.598410
    102          1           0        8.276790   -2.994610    3.865725
    103          1           0        9.839596   -1.074803    4.128761
    104          1           0        9.260539    1.127445    3.126386
    105          1           0        7.152542    1.405996    1.874302
    106          1           0        5.631043    0.089679   -1.897918
    107          1           0        6.380078    2.203754   -0.297410
    108          1           0        8.542346    2.554042   -1.422542
    109          1           0       10.987109   -0.955039   -2.641916
    110          1           0       12.835561   -0.426132   -4.191150
    111          1           0       12.794898    1.680867   -5.515882
    112          1           0       10.869685    3.240802   -5.280722
    113          1           0        9.006862    2.693733   -3.758848
    114          1           0        8.755607   -1.599252   -2.526444
    115          1           0        6.622871   -2.001025   -1.363860
    116          1           0        7.595892   -1.333520   -0.061016
    117          1           0       -0.766694   -1.969924    0.810024
    118          1           0       -3.222876   -1.991622    0.706465
    119          1           0       -4.357416    1.697295    1.017848
 ---------------------------------------------------------------------

 The electronic state is 1-A.
 Alpha  occ. eigenvalues --  -14.38084 -14.35840 -10.24312 -10.22362 -10.22353
 Alpha  occ. eigenvalues --  -10.22127 -10.22040 -10.21388 -10.20523 -10.20157
 Alpha  occ. eigenvalues --  -10.20103 -10.20070 -10.19663 -10.19631 -10.19498
 Alpha  occ. eigenvalues --  -10.19470 -10.19412 -10.19373 -10.19329 -10.19295
 Alpha  occ. eigenvalues --  -10.19247 -10.19223 -10.19221 -10.19201 -10.19200
 Alpha  occ. eigenvalues --  -10.19124 -10.19107 -10.19064 -10.18911 -10.18872
 Alpha  occ. eigenvalues --  -10.18774 -10.18710 -10.18657 -10.18495 -10.18427
 Alpha  occ. eigenvalues --  -10.18403 -10.18390 -10.18362 -10.18356 -10.18311
 Alpha  occ. eigenvalues --  -10.18278 -10.18261 -10.18205 -10.18198 -10.18196
 Alpha  occ. eigenvalues --  -10.18191 -10.18183 -10.18183 -10.18171 -10.18166
 Alpha  occ. eigenvalues --  -10.18129 -10.18116 -10.18088 -10.18083 -10.18082
 Alpha  occ. eigenvalues --  -10.18072 -10.18055 -10.18053 -10.18042 -10.18038
 Alpha  occ. eigenvalues --  -10.18019 -10.17980 -10.17967 -10.17942 -10.17829
 Alpha  occ. eigenvalues --  -10.17746 -10.17676  -0.98257  -0.95696  -0.87823
 Alpha  occ. eigenvalues --   -0.86734  -0.85924  -0.85815  -0.85534  -0.84857
 Alpha  occ. eigenvalues --   -0.84340  -0.83673  -0.83122  -0.82197  -0.80331
 Alpha  occ. eigenvalues --   -0.80132  -0.77671  -0.77080  -0.76689  -0.76052
 Alpha  occ. eigenvalues --   -0.75425  -0.74914  -0.74696  -0.74398  -0.74235
 Alpha  occ. eigenvalues --   -0.74002  -0.73796  -0.73618  -0.73494  -0.73424
 Alpha  occ. eigenvalues --   -0.72761  -0.72465  -0.71321  -0.70740  -0.69638
 Alpha  occ. eigenvalues --   -0.68390  -0.68332  -0.64518  -0.64171  -0.63246
 Alpha  occ. eigenvalues --   -0.62873  -0.62136  -0.62019  -0.61103  -0.60796
 Alpha  occ. eigenvalues --   -0.60480  -0.60073  -0.59812  -0.59543  -0.59329
 Alpha  occ. eigenvalues --   -0.58648  -0.58149  -0.58061  -0.57662  -0.57407
 Alpha  occ. eigenvalues --   -0.56540  -0.55863  -0.55266  -0.54608  -0.53252
 Alpha  occ. eigenvalues --   -0.52692  -0.52415  -0.51685  -0.51436  -0.51046
 Alpha  occ. eigenvalues --   -0.50670  -0.49955  -0.49627  -0.48533  -0.47762
 Alpha  occ. eigenvalues --   -0.47456  -0.47206  -0.47063  -0.46534  -0.46321
 Alpha  occ. eigenvalues --   -0.45647  -0.45438  -0.45261  -0.45079  -0.44801
 Alpha  occ. eigenvalues --   -0.44379  -0.44231  -0.44032  -0.43856  -0.43743
 Alpha  occ. eigenvalues --   -0.43597  -0.43458  -0.43279  -0.43001  -0.42804
 Alpha  occ. eigenvalues --   -0.42707  -0.42586  -0.42478  -0.42234  -0.42178
 Alpha  occ. eigenvalues --   -0.41943  -0.41766  -0.41680  -0.41487  -0.41249
 Alpha  occ. eigenvalues --   -0.41070  -0.41033  -0.40909  -0.40554  -0.40370
 Alpha  occ. eigenvalues --   -0.40146  -0.39760  -0.38987  -0.38838  -0.38545
 Alpha  occ. eigenvalues --   -0.37732  -0.37261  -0.37146  -0.37005  -0.36938
 Alpha  occ. eigenvalues --   -0.36779  -0.36657  -0.36406  -0.36313  -0.35848
 Alpha  occ. eigenvalues --   -0.35669  -0.35499  -0.35128  -0.34901  -0.34815
 Alpha  occ. eigenvalues --   -0.34617  -0.34512  -0.34259  -0.34026  -0.33978
 Alpha  occ. eigenvalues --   -0.33833  -0.33626  -0.33453  -0.33330  -0.33260
 Alpha  occ. eigenvalues --   -0.33037  -0.32748  -0.32099  -0.32023  -0.31657
 Alpha  occ. eigenvalues --   -0.31431  -0.31085  -0.30547  -0.29262  -0.27768
 Alpha  occ. eigenvalues --   -0.26525  -0.25936  -0.25661  -0.25251  -0.25173
 Alpha  occ. eigenvalues --   -0.25030  -0.24889  -0.24341  -0.24147  -0.24091
 Alpha  occ. eigenvalues --   -0.23872  -0.23721  -0.22988  -0.21320  -0.20626
 Alpha  occ. eigenvalues --   -0.19633  -0.18923  -0.16601
 Alpha virt. eigenvalues --   -0.04468  -0.03119  -0.02735  -0.02221  -0.00835
 Alpha virt. eigenvalues --   -0.00751  -0.00636  -0.00262   0.00245   0.00333
 Alpha virt. eigenvalues --    0.00527   0.00639   0.01040   0.01228   0.01324

 Mulliken charges:
               1
     1  C   -0.443589
     2  C   -0.055853
     3  C   -0.444064
     4  C    0.061023
     5  C    0.061749
     6  C   -0.130576
     7  C   -0.136020
     8  C   -0.301013
     9  C   -0.343282
    10  C    0.084917
    11  C   -0.212131
    12  C   -0.174673
    13  C    0.276315
    14  N   -0.660165
    15  C    0.297686
    16  C   -0.175540
    17  C   -0.189216
    18  C    0.094103
    19  C    0.091593
    20  C   -0.175924
    21  C   -0.133828
    22  C   -0.128334
    23  C   -0.133824
    24  C   -0.175909
    25  C   -0.189094
    26  C   -0.174077
    27  C    0.284726
    28  C   -0.171386
    29  C   -0.191088
    30  C    0.097113
    31  C    0.087513
    32  C   -0.200098
    33  C   -0.172437
    34  C    0.301741
    35  C    0.090091
    36  C   -0.272887
    37  C   -0.080288
    38  C    0.086691
    39  C   -0.157533
    40  C   -0.136938
    41  C   -0.127816
    42  C   -0.137435
    43  C   -0.174302
    44  C    0.205922
    45  C    0.055834
    46  C   -0.145643
    47  C   -0.134970
    48  C   -0.124448
    49  C   -0.136574
    50  C   -0.143372
    51  N   -0.612747
    52  C   -0.012002
    53  C   -0.135405
    54  C   -0.149392
    55  C    0.104678
    56  C    0.092764
    57  C   -0.174275
    58  C   -0.132984
    59  C   -0.127170
    60  C   -0.132833
    61  C   -0.178523
    62  C   -0.200791
    63  C   -0.315067
    64  C   -0.187869
    65  C   -0.170914
    66  C   -0.246848
    67  C    0.099398
    68  H    0.148934
    69  H    0.155468
    70  H    0.143669
    71  H    0.150966
    72  H    0.155146
    73  H    0.141225
    74  H    0.125102
    75  H    0.127044
    76  H    0.152245
    77  H    0.140976
    78  H    0.142690
    79  H    0.151186
    80  H    0.127521
    81  H    0.140302
    82  H    0.144839
    83  H    0.132236
    84  H    0.129718
    85  H    0.127633
    86  H    0.126594
    87  H    0.127610
    88  H    0.129675
    89  H    0.131927
    90  H    0.143723
    91  H    0.142310
    92  H    0.130344
    93  H    0.126362
    94  H    0.134774
    95  H    0.139163
    96  H    0.133607
    97  H    0.126658
    98  H    0.125254
    99  H    0.126580
   100  H    0.133645
   101  H    0.144511
   102  H    0.134439
   103  H    0.132233
   104  H    0.133386
   105  H    0.131683
   106  H    0.169388
   107  H    0.145786
   108  H    0.137812
   109  H    0.130854
   110  H    0.130877
   111  H    0.130326
   112  H    0.130961
   113  H    0.131798
   114  H    0.137643
   115  H    0.154388
   116  H    0.183989
   117  H    0.130630
   118  H    0.142804
   119  H    0.138656
 Sum of Mulliken charges =  -0.00000

 Dipole moment (field-independent basis, Debye):
    X=              3.2699    Y=              1.6783    Z=              0.1537  Tot=              3.6787
 Quadrupole moment (field-independent basis, Debye-Ang):
   XX=           -339.7946   YY=           -357.8880   ZZ=           -376.3872
   XY=            -10.6309   XZ=             -6.5336   YZ=             -1.1948

 1\1\GINC-NODE80\FOpt\RB3LYP\6-31G(d)\C65H52N2\WYKGROUP\05-Nov-2022\0\\
 #p b3lyp/6-31g(d) opt SCF=XQC\\Gaussian input prepared by ASE\\0,1\C,-
 6.1934591126,-3.35420697,-2.5129657015\C,-5.9517620883,-3.7139237067,-
 1.028311092\C,-4.5988645423,-4.4481260722,-0.8805595756\C,-7.101602244
 6,-4.5394858036,-0.465671323\C,-7.7249377844,-3.8989560227,0.556111919
 9\C,-8.8887399261,-4.4786187223,1.2244653988\C,-9.2052729695,-5.765899
 0306,1.0047912304\C,-8.3405873538,-6.6425845894,0.1231340207\C,-7.6199
 260176,-5.8499354684,-0.989650208\C,-7.0681053117,-2.6090197387,0.7939

 Normal termination of Gaussian 16 at Sat Nov  5 01:58:48 2022.
