 Gaussian 16, Revision B.01,
 Gaussian 16:  ES64L-G16RevB.01 20-Dec-2017

 -------------------------------------------------------------------
 #p b3lyp/6-31g(d) 6D 10F nosymm GFInput td=(50-50,nstate=2) SCF=XQC
 -------------------------------------------------------------------

 ------------------------------
 Gaussian input prepared by ASE
 ------------------------------
 Symbolic Z-matrix:
 Charge =  0 Multiplicity = 1

                          Input orientation:
 ---------------------------------------------------------------------
 Center     Atomic      Atomic             Coordinates (Angstroms)
 Number     Number       Type             X           Y           Z
 ---------------------------------------------------------------------
      1          6           0       -6.193459   -3.354207   -2.512966
      2          6           0       -5.951762   -3.713924   -1.028311
      3          6           0       -4.598865   -4.448126   -0.880560
      4          6           0       -7.101602   -4.539486   -0.465671
      5          6           0       -7.724938   -3.898956    0.556112
      6          6           0       -8.888740   -4.478619    1.224465
      7          6           0       -9.205273   -5.765899    1.004791
      8          6           0       -8.340587   -6.642585    0.123134
      9          6           0       -7.619926   -5.849935   -0.989650
     10          6           0       -7.068105   -2.609020    0.793995
     11          6           0       -7.315062   -1.591856    1.716364
     12          6           0       -6.503619   -0.455598    1.713443
     13          6           0       -5.458500   -0.317067    0.785794
     14          7           0       -4.643906    0.852485    0.786792
     15          6           0       -5.240614    2.133183    0.880035
     16          6           0       -4.636191    3.160507    1.624925
     17          6           0       -5.225744    4.416838    1.707487
     18          6           0       -6.445455    4.703481    1.070316
     19          6           0       -7.073278    6.043014    1.169506
     20          6           0       -6.290295    7.210761    1.197434
     21          6           0       -6.880009    8.470150    1.293214
     22          6           0       -8.269060    8.594474    1.358769
     23          6           0       -9.061208    7.445177    1.329825
     24          6           0       -8.470509    6.185901    1.238756
     25          6           0       -7.044763    3.665587    0.335635
     26          6           0       -6.457199    2.409989    0.232890
     27          6           0       -3.231981    0.719576    0.697154
     28          6           0       -2.560027   -0.284101    1.412483
     29          6           0       -1.179920   -0.424354    1.308811
     30          6           0       -0.408596    0.435846    0.507967
     31          6           0        1.064588    0.286170    0.405513
     32          6           0        1.826327   -0.096089    1.539451
     33          6           0        3.202263   -0.264995    1.485182
     34          6           0        3.850043   -0.032758    0.263985
     35          6           0        3.120185    0.367950   -0.882728
     36          6           0        1.725996    0.510301   -0.804078
     37          6           0        4.066100    0.494878   -1.962173
     38          6           0        3.732896    0.858898   -3.354617
     39          6           0        4.204589    0.111389   -4.447955
     40          6           0        3.866535    0.460972   -5.754232
     41          6           0        3.041114    1.560260   -6.000010
     42          6           0        2.559860    2.309534   -4.925231
     43          6           0        2.903269    1.963902   -3.618336
     44          6           0        5.313726    0.173115   -1.448263
     45          6           0        6.599623    0.187021   -2.185412
     46          6           0        7.022994    1.374558   -2.807627
     47          6           0        8.207760    1.413348   -3.541112
     48          6           0        8.992322    0.265463   -3.669488
     49          6           0        8.578922   -0.922527   -3.064476
     50          6           0        7.391947   -0.963375   -2.332944
     51          7           0        5.189504   -0.145557   -0.086623
     52          6           0        6.240488   -0.402393    0.906413
     53          6           0        6.846487   -1.789771    0.821127
     54          6           0        8.004990   -2.054332    1.441569
     55          6           0        8.768551   -0.998290    2.138814
     56          6           0        9.884150   -1.391329    3.036744
     57          6           0       11.050022   -0.612633    3.138320
     58          6           0       12.083206   -0.976679    3.999554
     59          6           0       11.979436   -2.134048    4.774312
     60          6           0       10.832738   -2.923631    4.677582
     61          6           0        9.798876   -2.557912    3.816168
     62          6           0        8.429111    0.291465    1.923546
     63          6           0        7.329902    0.684517    0.963648
     64          6           0       -1.093184    1.442665   -0.194969
     65          6           0       -2.475079    1.578899   -0.115480
     66          6           0       -5.215556   -1.344980   -0.148020
     67          6           0       -6.011667   -2.477867   -0.132587
     68          1           0       -5.386106   -2.718541   -2.894193
     69          1           0       -7.139064   -2.816705   -2.638391
     70          1           0       -6.226894   -4.259156   -3.131433
     71          1           0       -3.775286   -3.817586   -1.234651
     72          1           0       -4.405033   -4.707821    0.165169
     73          1           0       -4.591044   -5.371552   -1.471965
     74          1           0       -9.483041   -3.861739    1.894618
     75          1           0      -10.053743   -6.221402    1.510456
     76          1           0       -7.588604   -7.137172    0.761214
     77          1           0       -8.935426   -7.449162   -0.321119
     78          1           0       -6.817755   -6.462656   -1.419618
     79          1           0       -8.324179   -5.653201   -1.816727
     80          1           0       -8.116540   -1.678120    2.445812
     81          1           0       -6.675962    0.336990    2.434836
     82          1           0       -3.706492    2.964226    2.149051
     83          1           0       -4.748288    5.180370    2.315578
     84          1           0       -5.209831    7.129797    1.116461
     85          1           0       -6.252265    9.357569    1.306013
     86          1           0       -8.729181    9.576238    1.431624
     87          1           0      -10.143532    7.527713    1.389021
     88          1           0       -9.097014    5.298261    1.248004
     89          1           0       -7.970179    3.856320   -0.200975
     90          1           0       -6.933768    1.636497   -0.360466
     91          1           0       -3.128505   -0.961438    2.041936
     92          1           0       -0.691795   -1.228071    1.853140
     93          1           0        1.318558   -0.245118    2.487785
     94          1           0        3.741867   -0.573146    2.375534
     95          1           0        1.159454    0.763730   -1.694806
     96          1           0        4.834159   -0.754219   -4.266640
     97          1           0        4.242748   -0.133552   -6.582982
     98          1           0        2.774556    1.828917   -7.018775
     99          1           0        1.919811    3.170074   -5.103292
    100          1           0        2.540519    2.563805   -2.788306
    101          1           0        6.413250    2.267447   -2.709794
    102          1           0        8.518186    2.342286   -4.011989
    103          1           0        9.917000    0.295639   -4.239517
    104          1           0        9.177727   -1.823713   -3.166307
    105          1           0        7.073504   -1.895657   -1.879442
    106          1           0        5.720807   -0.355928    1.872456
    107          1           0        6.272513   -2.567460    0.324316
    108          1           0        8.416447   -3.060255    1.430990
    109          1           0       11.154377    0.271886    2.516335
    110          1           0       12.977633   -0.361650    4.056144
    111          1           0       12.787538   -2.420732    5.441805
    112          1           0       10.739512   -3.825563    5.276946
    113          1           0        8.903813   -3.172007    3.764142
    114          1           0        8.980545    1.091243    2.411190
    115          1           0        6.869621    1.631899    1.265207
    116          1           0        7.765679    0.851770   -0.030253
    117          1           0       -0.530746    2.138860   -0.810842
    118          1           0       -2.975321    2.362283   -0.676109
    119          1           0       -4.408071   -1.229866   -0.865700
 ---------------------------------------------------------------------

 SCF Done:  E(RB3LYP) =  -2617.73620551     A.U. after   16 cycles

 Excitation energies and oscillator strengths:

 Excited state symmetry could not be determined.
 Excited State   1:      Triplet-?Sym    2.1028 eV  589.61 nm  f=0.0000  <S**2>=2.000
     225 -> 230       -0.11751
     226 -> 230       -0.40177
     227 -> 230       -0.14970
     228 -> 230        0.48403
 This state for optimization and/or second-order correction.
 Total Energy, E(TD-HF/TD-DFT) =  -2617.65892826
 Copying the excited state density for this state as the 1-particle RhoCI density.

 Excited state symmetry could not be determined.
 Excited State   2:      Triplet-?Sym    2.2716 eV  545.80 nm  f=0.0000  <S**2>=2.000
     212 -> 229        0.12111
     224 -> 229       -0.50539
     225 -> 229       -0.42072
     224 <- 229       -0.10016

 Excited state symmetry could not be determined.
 Excited State   3:      Singlet-?Sym    3.0552 eV  405.82 nm  f=0.0117  <S**2>=0.000
     228 -> 229        0.69855

 Excited state symmetry could not be determined.
 Excited State   4:      Singlet-?Sym    3.2460 eV  381.96 nm  f=0.3258  <S**2>=0.000
     228 -> 230        0.69751

 Alpha  occ. eigenvalues --  -14.38084 -14.35840 -10.24312 -10.22362 -10.22353
 Alpha  occ. eigenvalues --  -10.22127 -10.22040 -10.21388 -10.20523 -10.20157
 Alpha  occ. eigenvalues --  -10.20103 -10.20070 -10.19663 -10.19631 -10.19498
 Alpha  occ. eigenvalues --  -10.19470 -10.19413 -10.19373 -10.19329 -10.19296
 Alpha  occ. eigenvalues --  -10.19247 -10.19223 -10.19221 -10.19201 -10.19200
 Alpha  occ. eigenvalues --  -10.19124 -10.19107 -10.19064 -10.18911 -10.18872
 Alpha  occ. eigenvalues --  -10.18774 -10.18710 -10.18656 -10.18495 -10.18427
 Alpha  occ. eigenvalues --  -10.18403 -10.18390 -10.18362 -10.18356 -10.18311
 Alpha  occ. eigenvalues --  -10.18278 -10.18261 -10.18205 -10.18198 -10.18196
 Alpha  occ. eigenvalues --  -10.18191 -10.18183 -10.18183 -10.18171 -10.18166
 Alpha  occ. eigenvalues --  -10.18129 -10.18116 -10.18088 -10.18083 -10.18082
 Alpha  occ. eigenvalues --  -10.18072 -10.18055 -10.18053 -10.18042 -10.18038
 Alpha  occ. eigenvalues --  -10.18019 -10.17980 -10.17967 -10.17942 -10.17829
 Alpha  occ. eigenvalues --  -10.17746 -10.17676  -0.98257  -0.95696  -0.87824
 Alpha  occ. eigenvalues --   -0.86733  -0.85924  -0.85815  -0.85534  -0.84857
 Alpha  occ. eigenvalues --   -0.84340  -0.83673  -0.83122  -0.82197  -0.80331
 Alpha  occ. eigenvalues --   -0.80132  -0.77671  -0.77080  -0.76689  -0.76052
 Alpha  occ. eigenvalues --   -0.75425  -0.74914  -0.74696  -0.74398  -0.74235
 Alpha  occ. eigenvalues --   -0.74002  -0.73796  -0.73618  -0.73494  -0.73424
 Alpha  occ. eigenvalues --   -0.72761  -0.72465  -0.71321  -0.70740  -0.69638
 Alpha  occ. eigenvalues --   -0.68390  -0.68332  -0.64518  -0.64171  -0.63246
 Alpha  occ. eigenvalues --   -0.62873  -0.62136  -0.62019  -0.61103  -0.60796
 Alpha  occ. eigenvalues --   -0.60480  -0.60073  -0.59812  -0.59543  -0.59329
 Alpha  occ. eigenvalues --   -0.58648  -0.58149  -0.58061  -0.57662  -0.57407
 Alpha  occ. eigenvalues --   -0.56540  -0.55863  -0.55266  -0.54608  -0.53252
 Alpha  occ. eigenvalues --   -0.52692  -0.52415  -0.51685  -0.51436  -0.51046
 Alpha  occ. eigenvalues --   -0.50670  -0.49955  -0.49627  -0.48533  -0.47762
 Alpha  occ. eigenvalues --   -0.47456  -0.47206  -0.47063  -0.46534  -0.46321
 Alpha  occ. eigenvalues --   -0.45647  -0.45438  -0.45261  -0.45079  -0.44801
 Alpha  occ. eigenvalues --   -0.44379  -0.44231  -0.44032  -0.43856  -0.43743
 Alpha  occ. eigenvalues --   -0.43597  -0.43458  -0.43279  -0.43001  -0.42804
 Alpha  occ. eigenvalues --   -0.42707  -0.42586  -0.42478  -0.42234  -0.42178
 Alpha  occ. eigenvalues --   -0.41943  -0.41766  -0.41680  -0.41487  -0.41249
 Alpha  occ. eigenvalues --   -0.41070  -0.41033  -0.40909  -0.40554  -0.40370
 Alpha  occ. eigenvalues --   -0.40146  -0.39760  -0.38987  -0.38838  -0.38545
 Alpha  occ. eigenvalues --   -0.37732  -0.37261  -0.37146  -0.37005  -0.36938
 Alpha  occ. eigenvalues --   -0.36779  -0.36657  -0.36406  -0.36313  -0.35848
 Alpha  occ. eigenvalues --   -0.35669  -0.35499  -0.35128  -0.34901  -0.34815
 Alpha  occ. eigenvalues --   -0.34617  -0.34512  -0.34259  -0.34026  -0.33978
 Alpha  occ. eigenvalues --   -0.33833  -0.33626  -0.33453  -0.33330  -0.33260
 Alpha  occ. eigenvalues --   -0.33037  -0.32748  -0.32099  -0.32023  -0.31657
 Alpha  occ. eigenvalues --   -0.31431  -0.31085  -0.30547  -0.29262  -0.27768
 Alpha  occ. eigenvalues --   -0.26525  -0.25936  -0.25661  -0.25251  -0.25173
 Alpha  occ. eigenvalues --   -0.25030  -0.24889  -0.24341  -0.24147  -0.24091
 Alpha  occ. eigenvalues --   -0.23872  -0.23721  -0.22988  -0.21320  -0.20626
 Alpha  occ. eigenvalues --   -0.19633  -0.18923  -0.16601
 Alpha virt. eigenvalues --   -0.04468  -0.03119  -0.02735  -0.02221  -0.00835
 Alpha virt. eigenvalues --   -0.00751  -0.00636  -0.00262   0.00245   0.00333
 Alpha virt. eigenvalues --    0.00527   0.00639   0.01040   0.01228   0.01324

 Mulliken charges:
               1
     1  C   -0.443578
     2  C   -0.055849
     3  C   -0.444044
     4  C    0.060989
     5  C    0.061781
     6  C   -0.130589
     7  C   -0.136008
     8  C   -0.301018
     9  C   -0.343286
    10  C    0.084935
    11  C   -0.212131
    12  C   -0.174677
    13  C    0.276301
    14  N   -0.660170
    15  C    0.297697
    16  C   -0.175548
    17  C   -0.189209
    18  C    0.094105
    19  C    0.091593
    20  C   -0.175928
    21  C   -0.133820
    22  C   -0.128338
    23  C   -0.133823
    24  C   -0.175912
    25  C   -0.189097
    26  C   -0.174069
    27  C    0.284723
    28  C   -0.171379
    29  C   -0.191092
    30  C    0.097118
    31  C    0.087516
    32  C   -0.200110
    33  C   -0.172420
    34  C    0.301724
    35  C    0.090093
    36  C   -0.272887
    37  C   -0.080291
    38  C    0.086698
    39  C   -0.157537
    40  C   -0.136939
    41  C   -0.127813
    42  C   -0.137432
    43  C   -0.174310
    44  C    0.205951
    45  C    0.055806
    46  C   -0.145611
    47  C   -0.135001
    48  C   -0.124436
    49  C   -0.136567
    50  C   -0.143389
    51  N   -0.612747
    52  C   -0.011993
    53  C   -0.135394
    54  C   -0.149399
    55  C    0.104694
    56  C    0.092754
    57  C   -0.174269
    58  C   -0.132985
    59  C   -0.127170
    60  C   -0.132836
    61  C   -0.178518
    62  C   -0.200807
    63  C   -0.315065
    64  C   -0.187873
    65  C   -0.170905
    66  C   -0.246818
    67  C    0.099341
    68  H    0.148934
    69  H    0.155468
    70  H    0.143670
    71  H    0.150966
    72  H    0.155144
    73  H    0.141222
    74  H    0.125099
    75  H    0.127044
    76  H    0.152246
    77  H    0.140976
    78  H    0.142691
    79  H    0.151188
    80  H    0.127520
    81  H    0.140302
    82  H    0.144837
    83  H    0.132235
    84  H    0.129718
    85  H    0.127632
    86  H    0.126593
    87  H    0.127611
    88  H    0.129674
    89  H    0.131926
    90  H    0.143719
    91  H    0.142311
    92  H    0.130344
    93  H    0.126361
    94  H    0.134770
    95  H    0.139162
    96  H    0.133608
    97  H    0.126658
    98  H    0.125254
    99  H    0.126580
   100  H    0.133647
   101  H    0.144511
   102  H    0.134442
   103  H    0.132232
   104  H    0.133385
   105  H    0.131685
   106  H    0.169388
   107  H    0.145783
   108  H    0.137810
   109  H    0.130853
   110  H    0.130877
   111  H    0.130327
   112  H    0.130961
   113  H    0.131799
   114  H    0.137643
   115  H    0.154387
   116  H    0.183986
   117  H    0.130628
   118  H    0.142806
   119  H    0.138654
 Sum of Mulliken charges =  -0.00000

 Dipole moment (field-independent basis, Debye):
    X=              3.1214    Y=             -1.9412    Z=             -0.1474  Tot=              3.6787
 Quadrupole moment (field-independent basis, Debye-Ang):
   XX=           -337.4750   YY=           -360.1257   ZZ=           -376.4713
   XY=              9.4288   XZ=              5.7076   YZ=             -2.4376

 Normal termination of Gaussian 16 at Sat Nov  5 11:38:30 2022.
