 Gaussian 16, Revision B.01,
 Gaussian 16:  ES64L-G16RevB.01 20-Dec-2017

 -----------------------------
 #p b3lyp/6-31g(d) opt SCF=XQC
 -----------------------------

 ------------------------------
 Gaussian input prepared by ASE
 ------------------------------
 Symbolic Z-matrix:
 Charge =  0 Multiplicity = 1

 SCF Done:  E(RB3LYP) =  -1781.04530650     A.U. after   16 cycles
 SCF Done:  E(RB3LYP) =  -1781.05478210     A.U. after   13 cycles
 SCF Done:  E(RB3LYP) =  -1781.05556103     A.U. after   12 cycles
 SCF Done:  E(RB3LYP) =  -1781.05576005     A.U. after   11 cycles
 SCF Done:  E(RB3LYP) =  -1781.05587114     A.U. after   11 cycles
 SCF Done:  E(RB3LYP) =  -1781.05591939     A.U. after   11 cycles
 SCF Done:  E(RB3LYP) =  -1781.05594114     A.U. after   11 cycles
 SCF Done:  E(RB3LYP) =  -1781.05594269     A.U. after    8 cycles
 SCF Done:  E(RB3LYP) =  -1781.05594309     A.U. after    7 cycles
 SCF Done:  E(RB3LYP) =  -1781.05594346     A.U. after    9 cycles
 SCF Done:  E(RB3LYP) =  -1781.05585812     A.U. after   12 cycles
 SCF Done:  E(RB3LYP) =  -1781.05596349     A.U. after   11 cycles
 SCF Done:  E(RB3LYP) =  -1781.05596357     A.U. after   11 cycles
 SCF Done:  E(RB3LYP) =  -1781.05595912     A.U. after   12 cycles
 SCF Done:  E(RB3LYP) =  -1781.05597120     A.U. after   11 cycles
 SCF Done:  E(RB3LYP) =  -1781.05597400     A.U. after   11 cycles
 SCF Done:  E(RB3LYP) =  -1781.05597454     A.U. after   10 cycles
 SCF Done:  E(RB3LYP) =  -1781.05597450     A.U. after    9 cycles
 SCF Done:  E(RB3LYP) =  -1781.05597466     A.U. after    9 cycles
 SCF Done:  E(RB3LYP) =  -1781.05597471     A.U. after    7 cycles
 Optimization completed.
    -- Stationary point found.

                         Standard orientation:
 ---------------------------------------------------------------------
 Center     Atomic      Atomic             Coordinates (Angstroms)
 Number     Number       Type             X           Y           Z
 ---------------------------------------------------------------------
      1          6           0        1.617459   -3.753020    3.686683
      2          6           0        0.283582   -4.158602    3.632947
      3          6           0       -0.376359   -4.181571    2.408896
      4          6           0        0.262218   -3.807077    1.213108
      5          6           0        1.618197   -3.394182    1.267556
      6          6           0        2.266773   -3.377444    2.515471
      7          6           0        2.402082   -3.007700    0.066560
      8          6           0        3.738069   -3.426018   -0.075359
      9          6           0        4.512468   -3.024519   -1.159300
     10          6           0        3.963759   -2.192078   -2.138392
     11          6           0        2.637273   -1.785156   -2.031015
     12          6           0        1.861748   -2.185591   -0.939170
     13          7           0        0.481151   -1.812198   -0.860196
     14          6           0        0.070450   -0.507131   -0.646734
     15          7           0        1.031581    0.418135   -0.529285
     16          6           0        0.634226    1.683157   -0.315813
     17          6           0        1.710498    2.702294   -0.194336
     18          6           0        1.430985    4.099308   -0.233413
     19          6           0        2.436964    5.027076   -0.112296
     20          6           0        3.789300    4.626554    0.058809
     21          6           0        4.853368    5.556770    0.191436
     22          6           0        6.150827    5.123108    0.351628
     23          6           0        6.443874    3.736955    0.385939
     24          6           0        5.433732    2.810608    0.259526
     25          6           0        4.083397    3.224718    0.092873
     26          6           0        3.024804    2.293082   -0.039894
     27          6           0       -0.724353    2.003676   -0.207941
     28          6           0       -1.652654    0.960799   -0.336850
     29          6           0       -3.120800    1.177313   -0.236128
     30          6           0       -4.005396    0.155508   -0.690304
     31          6           0       -5.366461    0.320011   -0.622478
     32          6           0       -5.940120    1.505888   -0.088326
     33          6           0       -7.342441    1.707857   -0.001532
     34          6           0       -7.855965    2.869715    0.531152
     35          6           0       -6.987972    3.884971    1.003651
     36          6           0       -5.623328    3.718952    0.932911
     37          6           0       -5.061544    2.533084    0.385674
     38          6           0       -3.660244    2.335827    0.296596
     39          7           0       -1.253396   -0.297536   -0.570711
     40          6           0       -0.443160   -2.892622   -1.033536
     41          6           0       -1.218401   -2.971786   -2.194100
     42          6           0       -2.080927   -4.045930   -2.392268
     43          6           0       -2.150684   -5.061056   -1.434478
     44          6           0       -1.372314   -4.984955   -0.283837
     45          6           0       -0.510991   -3.896886   -0.051458
     46          1           0        2.145140   -3.714425    4.635767
     47          1           0       -0.244801   -4.440834    4.539491
     48          1           0       -1.422159   -4.471741    2.371212
     49          1           0        3.296954   -3.036877    2.561752
     50          1           0        4.162628   -4.089135    0.672733
     51          1           0        5.540272   -3.366682   -1.244837
     52          1           0        4.561563   -1.873171   -2.987704
     53          1           0        2.189874   -1.143645   -2.782952
     54          1           0        0.413383    4.444888   -0.383237
     55          1           0        2.205976    6.089021   -0.152608
     56          1           0        4.626887    6.620198    0.164492
     57          1           0        6.957206    5.844599    0.452713
     58          1           0        7.472050    3.408927    0.512747
     59          1           0        5.652749    1.745895    0.284763
     60          1           0        3.240412    1.229777   -0.021228
     61          1           0       -1.049340    3.019467   -0.034704
     62          1           0       -3.571660   -0.755054   -1.087099
     63          1           0       -6.028516   -0.466066   -0.978570
     64          1           0       -8.006864    0.926447   -0.363066
     65          1           0       -8.931581    3.011893    0.592402
     66          1           0       -7.405297    4.796453    1.422903
     67          1           0       -4.954221    4.496328    1.294876
     68          1           0       -3.015217    3.120048    0.682691
     69          1           0       -1.140915   -2.177625   -2.929690
     70          1           0       -2.683195   -4.098851   -3.295023
     71          1           0       -2.804348   -5.915226   -1.588687
     72          1           0       -1.413966   -5.786861    0.447460
 ---------------------------------------------------------------------

 The electronic state is 1-A.
 Alpha  occ. eigenvalues --  -14.36079 -14.31713 -14.31636 -10.28268 -10.23786
 Alpha  occ. eigenvalues --  -10.23747 -10.22615 -10.22609 -10.20123 -10.20075
 Alpha  occ. eigenvalues --  -10.19895 -10.19880 -10.19812 -10.19782 -10.19727
 Alpha  occ. eigenvalues --  -10.19719 -10.19687 -10.19548 -10.19376 -10.19227
 Alpha  occ. eigenvalues --  -10.19213 -10.19180 -10.19180 -10.19104 -10.19052
 Alpha  occ. eigenvalues --  -10.19038 -10.19035 -10.19030 -10.19018 -10.19006
 Alpha  occ. eigenvalues --  -10.18977 -10.18965 -10.18954 -10.18922 -10.18915
 Alpha  occ. eigenvalues --  -10.18905 -10.18896 -10.18855 -10.18841 -10.18795
 Alpha  occ. eigenvalues --  -10.18776 -10.18755 -10.18596 -10.18436 -10.18376
 Alpha  occ. eigenvalues --   -1.00030  -0.93950  -0.88994  -0.87219  -0.86790
 Alpha  occ. eigenvalues --   -0.86402  -0.85640  -0.83749  -0.82361  -0.81814
 Alpha  occ. eigenvalues --   -0.78703  -0.77702  -0.77179  -0.77162  -0.76810
 Alpha  occ. eigenvalues --   -0.75275  -0.74428  -0.73540  -0.72830  -0.72542
 Alpha  occ. eigenvalues --   -0.72066  -0.71579  -0.70763  -0.66229  -0.65378
 Alpha  occ. eigenvalues --   -0.63342  -0.63132  -0.62384  -0.61460  -0.61284
 Alpha  occ. eigenvalues --   -0.60524  -0.59592  -0.59313  -0.58796  -0.58411
 Alpha  occ. eigenvalues --   -0.57362  -0.57259  -0.54140  -0.52883  -0.51710
 Alpha  occ. eigenvalues --   -0.51324  -0.51120  -0.50952  -0.50147  -0.49533
 Alpha  occ. eigenvalues --   -0.48695  -0.47893  -0.47444  -0.47365  -0.46999
 Alpha  occ. eigenvalues --   -0.46029  -0.44735  -0.44703  -0.44607  -0.44510
 Alpha  occ. eigenvalues --   -0.44204  -0.43679  -0.43346  -0.42978  -0.42491
 Alpha  occ. eigenvalues --   -0.42261  -0.41740  -0.41708  -0.41527  -0.41302
 Alpha  occ. eigenvalues --   -0.41088  -0.40651  -0.40427  -0.39258  -0.39039
 Alpha  occ. eigenvalues --   -0.38706  -0.38391  -0.37366  -0.37033  -0.36739
 Alpha  occ. eigenvalues --   -0.36675  -0.36086  -0.35784  -0.35331  -0.35219
 Alpha  occ. eigenvalues --   -0.34408  -0.34133  -0.33770  -0.33739  -0.33489
 Alpha  occ. eigenvalues --   -0.33063  -0.33019  -0.32870  -0.30483  -0.30070
 Alpha  occ. eigenvalues --   -0.29661  -0.28213  -0.27919  -0.27492  -0.26625
 Alpha  occ. eigenvalues --   -0.26089  -0.25396  -0.23787  -0.23630  -0.23428
 Alpha  occ. eigenvalues --   -0.22587  -0.22278  -0.21522  -0.21212  -0.20451
 Alpha virt. eigenvalues --   -0.06125  -0.04237  -0.03087  -0.02670  -0.02074
 Alpha virt. eigenvalues --   -0.01651  -0.00983   0.00805   0.01480   0.01970
 Alpha virt. eigenvalues --    0.02482   0.03552   0.03776   0.04241   0.09173

 Mulliken charges:
               1
     1  C   -0.129896
     2  C   -0.130066
     3  C   -0.182935
     4  C    0.060919
     5  C    0.061485
     6  C   -0.183427
     7  C    0.091206
     8  C   -0.204738
     9  C   -0.125617
    10  C   -0.148316
    11  C   -0.117960
    12  C    0.232851
    13  N   -0.694578
    14  C    0.692231
    15  N   -0.571529
    16  C    0.286908
    17  C    0.083603
    18  C   -0.174867
    19  C   -0.207497
    20  C    0.150049
    21  C   -0.194792
    22  C   -0.132312
    23  C   -0.139915
    24  C   -0.183355
    25  C    0.138477
    26  C   -0.252224
    27  C   -0.227170
    28  C    0.285447
    29  C    0.087557
    30  C   -0.162151
    31  C   -0.203222
    32  C    0.148433
    33  C   -0.193872
    34  C   -0.132951
    35  C   -0.138538
    36  C   -0.186644
    37  C    0.133238
    38  C   -0.260700
    39  N   -0.570898
    40  C    0.236791
    41  C   -0.120986
    42  C   -0.148344
    43  C   -0.124021
    44  C   -0.203752
    45  C    0.092656
    46  H    0.130979
    47  H    0.131261
    48  H    0.138153
    49  H    0.136410
    50  H    0.136434
    51  H    0.129727
    52  H    0.133081
    53  H    0.139299
    54  H    0.131226
    55  H    0.129946
    56  H    0.129756
    57  H    0.130701
    58  H    0.130556
    59  H    0.136872
    60  H    0.169930
    61  H    0.141615
    62  H    0.166295
    63  H    0.130734
    64  H    0.130952
    65  H    0.131059
    66  H    0.130789
    67  H    0.129426
    68  H    0.133647
    69  H    0.137531
    70  H    0.132240
    71  H    0.130126
    72  H    0.136675
 Sum of Mulliken charges =  -0.00000

 Dipole moment (field-independent basis, Debye):
    X=             -0.0033    Y=              0.3628    Z=              0.1569  Tot=              0.3953
 Quadrupole moment (field-independent basis, Debye-Ang):
   XX=           -223.1770   YY=           -230.7851   ZZ=           -248.2603
   XY=              1.2565   XZ=              2.1945   YZ=              0.7214

 1\1\GINC-NODE81\FOpt\RB3LYP\6-31G(d)\C42H27N3\WYKGROUP\05-Nov-2022\0\\
 #p b3lyp/6-31g(d) opt SCF=XQC\\Gaussian input prepared by ASE\\0,1\C,-
 3.9083351743,2.3346872678,-3.025583077\C,-3.7934448043,1.1689732451,-3
 .783556003\C,-3.6412435535,-0.0543240731,-3.1395613208\C,-3.5998410595
 ,-0.156047153,-1.7374648135\C,-3.7160957971,1.0290400823,-0.9666349466
 \C,-3.8684822601,2.2557629784,-1.637568602\C,-3.7176975625,1.039176255
 7,0.5186704883\C,-4.6085274016,1.8700162468,1.2230273687\C,-4.58591127
 35,1.9448326073,2.6121683841\C,-3.6676791654,1.1806158982,3.3370709646

 Normal termination of Gaussian 16 at Sat Nov  5 03:10:28 2022.
