 Gaussian 16, Revision B.01,
 Gaussian 16:  ES64L-G16RevB.01 20-Dec-2017

 -------------------------------------------------------------------
 #p b3lyp/6-31g(d) 6D 10F nosymm GFInput td=(50-50,nstate=2) SCF=XQC
 -------------------------------------------------------------------

 ------------------------------
 Gaussian input prepared by ASE
 ------------------------------
 Symbolic Z-matrix:
 Charge =  0 Multiplicity = 1

                          Input orientation:
 ---------------------------------------------------------------------
 Center     Atomic      Atomic             Coordinates (Angstroms)
 Number     Number       Type             X           Y           Z
 ---------------------------------------------------------------------
      1          6           0       -3.908335    2.334687   -3.025583
      2          6           0       -3.793445    1.168973   -3.783556
      3          6           0       -3.641244   -0.054324   -3.139561
      4          6           0       -3.599841   -0.156047   -1.737465
      5          6           0       -3.716096    1.029040   -0.966635
      6          6           0       -3.868482    2.255763   -1.637569
      7          6           0       -3.717698    1.039176    0.518670
      8          6           0       -4.608527    1.870016    1.223027
      9          6           0       -4.585911    1.944833    2.612168
     10          6           0       -3.667679    1.180616    3.337071
     11          6           0       -2.792934    0.333952    2.662784
     12          6           0       -2.813689    0.263144    1.266909
     13          7           0       -1.951634   -0.650642    0.578750
     14          6           0       -0.577258   -0.489112    0.529358
     15          7           0       -0.068619    0.567852    1.175731
     16          6           0        1.263690    0.728803    1.122913
     17          6           0        1.816945    1.901969    1.850477
     18          6           0        3.213345    2.042675    2.098611
     19          6           0        3.707906    3.136899    2.766069
     20          6           0        2.845656    4.166702    3.229250
     21          6           0        3.321640    5.312893    3.918321
     22          6           0        2.448358    6.285236    4.353122
     23          6           0        1.056738    6.155103    4.118742
     24          6           0        0.564729    5.054993    3.453784
     25          6           0        1.439094    4.032988    2.991552
     26          6           0        0.959758    2.890537    2.305088
     27          6           0        2.070247   -0.165615    0.409059
     28          6           0        1.439750   -1.235838   -0.241365
     29          6           0        2.190051   -2.246729   -1.033592
     30          6           0        1.544059   -3.466359   -1.391457
     31          6           0        2.204576   -4.428145   -2.114536
     32          6           0        3.547387   -4.238036   -2.540478
     33          6           0        4.259017   -5.210373   -3.290793
     34          6           0        5.557203   -4.981418   -3.690374
     35          6           0        6.204335   -3.765687   -3.357763
     36          6           0        5.540917   -2.803253   -2.630841
     37          6           0        4.201755   -3.010073   -2.200465
     38          6           0        3.494739   -2.038569   -1.447605
     39          7           0        0.111755   -1.405345   -0.169254
     40          6           0       -2.620991   -1.753736   -0.043229
     41          6           0       -2.474507   -3.043995    0.474409
     42          6           0       -3.162364   -4.112325   -0.093510
     43          6           0       -4.022140   -3.885055   -1.171397
     44          6           0       -4.173198   -2.598978   -1.680134
     45          6           0       -3.470004   -1.507957   -1.137028
     46          1           0       -4.012997    3.301095   -3.511175
     47          1           0       -3.806882    1.212534   -4.869183
     48          1           0       -3.525118   -0.958171   -3.730232
     49          1           0       -3.931603    3.166238   -1.048966
     50          1           0       -5.337186    2.450680    0.664903
     51          1           0       -5.288735    2.592227    3.129559
     52          1           0       -3.642635    1.233515    4.421956
     53          1           0       -2.076070   -0.272337    3.206503
     54          1           0        3.901922    1.267510    1.778660
     55          1           0        4.775628    3.223479    2.953640
     56          1           0        4.389841    5.411092    4.097769
     57          1           0        2.824446    7.158664    4.879141
     58          1           0        0.379183    6.929790    4.467467
     59          1           0       -0.501998    4.949722    3.271491
     60          1           0       -0.104783    2.779216    2.126720
     61          1           0        3.142366   -0.039863    0.362077
     62          1           0        0.516267   -3.609768   -1.078766
     63          1           0        1.700385   -5.356104   -2.374763
     64          1           0        3.759714   -6.142046   -3.546624
     65          1           0        6.090924   -5.733760   -4.264863
     66          1           0        7.228203   -3.596393   -3.679893
     67          1           0        6.034770   -1.868823   -2.373960
     68          1           0        4.005254   -1.106789   -1.221128
     69          1           0       -1.809572   -3.196235    1.318489
     70          1           0       -3.040675   -5.113037    0.311781
     71          1           0       -4.580869   -4.707886   -1.608930
     72          1           0       -4.858833   -2.423794   -2.504026
 ---------------------------------------------------------------------

 SCF Done:  E(RB3LYP) =  -1781.05597601     A.U. after   16 cycles

 Excitation energies and oscillator strengths:

 Excited state symmetry could not be determined.
 Excited State   1:      Triplet-?Sym    2.5317 eV  489.74 nm  f=0.0000  <S**2>=2.000
     143 ->154         0.10925
     148 ->151         0.15356
     148 ->152        -0.12481
     149 ->151         0.45292
     149 ->152         0.27464
     149 ->154        -0.23958
     150 ->152        -0.23487
 This state for optimization and/or second-order correction.
 Total Energy, E(TD-HF/TD-DFT) =  -1780.96293958
 Copying the excited state density for this state as the 1-particle RhoCI density.

 Excited state symmetry could not be determined.
 Excited State   2:      Triplet-?Sym    2.5462 eV  486.94 nm  f=0.0000  <S**2>=2.000
     148 ->151         0.27754
     148 ->152        -0.31845
     149 ->152        -0.17005
     150 ->151         0.41084
     150 ->152        -0.18223

 Excited state symmetry could not be determined.
 Excited State   3:      Singlet-?Sym    3.3647 eV  368.49 nm  f=0.1695  <S**2>=0.000
     150 ->151         0.68900

 Excited state symmetry could not be determined.
 Excited State   4:      Singlet-?Sym    3.6334 eV  341.23 nm  f=0.0329  <S**2>=0.000
     142 ->151        -0.14982
     145 ->151        -0.21611
     146 ->151        -0.42874
     149 ->151         0.46397

 Alpha  occ. eigenvalues --  -14.36079 -14.31713 -14.31636 -10.28268 -10.23786
 Alpha  occ. eigenvalues --  -10.23747 -10.22615 -10.22609 -10.20123 -10.20075
 Alpha  occ. eigenvalues --  -10.19895 -10.19880 -10.19812 -10.19782 -10.19727
 Alpha  occ. eigenvalues --  -10.19719 -10.19687 -10.19548 -10.19376 -10.19228
 Alpha  occ. eigenvalues --  -10.19213 -10.19180 -10.19180 -10.19104 -10.19052
 Alpha  occ. eigenvalues --  -10.19038 -10.19035 -10.19030 -10.19019 -10.19006
 Alpha  occ. eigenvalues --  -10.18977 -10.18965 -10.18954 -10.18922 -10.18915
 Alpha  occ. eigenvalues --  -10.18905 -10.18896 -10.18855 -10.18841 -10.18795
 Alpha  occ. eigenvalues --  -10.18776 -10.18755 -10.18596 -10.18436 -10.18376
 Alpha  occ. eigenvalues --   -1.00030  -0.93950  -0.88994  -0.87219  -0.86790
 Alpha  occ. eigenvalues --   -0.86402  -0.85639  -0.83749  -0.82361  -0.81814
 Alpha  occ. eigenvalues --   -0.78703  -0.77702  -0.77179  -0.77162  -0.76810
 Alpha  occ. eigenvalues --   -0.75275  -0.74428  -0.73540  -0.72830  -0.72542
 Alpha  occ. eigenvalues --   -0.72066  -0.71579  -0.70763  -0.66229  -0.65378
 Alpha  occ. eigenvalues --   -0.63342  -0.63132  -0.62384  -0.61460  -0.61284
 Alpha  occ. eigenvalues --   -0.60524  -0.59592  -0.59313  -0.58796  -0.58411
 Alpha  occ. eigenvalues --   -0.57362  -0.57259  -0.54140  -0.52883  -0.51710
 Alpha  occ. eigenvalues --   -0.51324  -0.51120  -0.50952  -0.50147  -0.49533
 Alpha  occ. eigenvalues --   -0.48695  -0.47893  -0.47444  -0.47365  -0.46999
 Alpha  occ. eigenvalues --   -0.46029  -0.44735  -0.44703  -0.44607  -0.44510
 Alpha  occ. eigenvalues --   -0.44204  -0.43679  -0.43346  -0.42978  -0.42491
 Alpha  occ. eigenvalues --   -0.42261  -0.41740  -0.41708  -0.41527  -0.41302
 Alpha  occ. eigenvalues --   -0.41088  -0.40651  -0.40427  -0.39258  -0.39039
 Alpha  occ. eigenvalues --   -0.38706  -0.38391  -0.37366  -0.37033  -0.36739
 Alpha  occ. eigenvalues --   -0.36675  -0.36086  -0.35784  -0.35331  -0.35219
 Alpha  occ. eigenvalues --   -0.34408  -0.34133  -0.33770  -0.33739  -0.33489
 Alpha  occ. eigenvalues --   -0.33063  -0.33019  -0.32870  -0.30483  -0.30070
 Alpha  occ. eigenvalues --   -0.29661  -0.28213  -0.27919  -0.27493  -0.26625
 Alpha  occ. eigenvalues --   -0.26089  -0.25396  -0.23787  -0.23630  -0.23428
 Alpha  occ. eigenvalues --   -0.22587  -0.22278  -0.21522  -0.21212  -0.20451
 Alpha virt. eigenvalues --   -0.06125  -0.04237  -0.03087  -0.02670  -0.02074
 Alpha virt. eigenvalues --   -0.01651  -0.00983   0.00805   0.01480   0.01970
 Alpha virt. eigenvalues --    0.02482   0.03552   0.03776   0.04241   0.09173

 Mulliken charges:
               1
     1  C   -0.129895
     2  C   -0.130063
     3  C   -0.182934
     4  C    0.060888
     5  C    0.061472
     6  C   -0.183433
     7  C    0.091246
     8  C   -0.204741
     9  C   -0.125622
    10  C   -0.148320
    11  C   -0.117959
    12  C    0.232827
    13  N   -0.694561
    14  C    0.692198
    15  N   -0.571494
    16  C    0.286914
    17  C    0.083581
    18  C   -0.174864
    19  C   -0.207498
    20  C    0.150049
    21  C   -0.194790
    22  C   -0.132316
    23  C   -0.139916
    24  C   -0.183351
    25  C    0.138472
    26  C   -0.252207
    27  C   -0.227181
    28  C    0.285453
    29  C    0.087559
    30  C   -0.162150
    31  C   -0.203223
    32  C    0.148433
    33  C   -0.193870
    34  C   -0.132955
    35  C   -0.138538
    36  C   -0.186640
    37  C    0.133230
    38  C   -0.260688
    39  N   -0.570909
    40  C    0.236807
    41  C   -0.121004
    42  C   -0.148336
    43  C   -0.124022
    44  C   -0.203748
    45  C    0.092674
    46  H    0.130979
    47  H    0.131260
    48  H    0.138153
    49  H    0.136410
    50  H    0.136434
    51  H    0.129728
    52  H    0.133082
    53  H    0.139301
    54  H    0.131228
    55  H    0.129946
    56  H    0.129756
    57  H    0.130702
    58  H    0.130557
    59  H    0.136870
    60  H    0.169928
    61  H    0.141614
    62  H    0.166297
    63  H    0.130734
    64  H    0.130952
    65  H    0.131061
    66  H    0.130789
    67  H    0.129425
    68  H    0.133646
    69  H    0.137529
    70  H    0.132239
    71  H    0.130126
    72  H    0.136675
 Sum of Mulliken charges =  -0.00000

 Dipole moment (field-independent basis, Debye):
    X=              0.3466    Y=              0.1867    Z=             -0.0351  Tot=              0.3953
 Quadrupole moment (field-independent basis, Debye-Ang):
   XX=           -230.7098   YY=           -229.4816   ZZ=           -242.0793
   XY=             -1.9764   XZ=              0.0690   YZ=             10.9804

 Normal termination of Gaussian 16 at Sat Nov  5 11:09:04 2022.
