 Gaussian 16, Revision B.01,
 Gaussian 16:  ES64L-G16RevB.01 20-Dec-2017

 -------------------------------------------------------------------
 #p b3lyp/6-31g(d) 6D 10F nosymm GFInput td=(50-50,nstate=2) SCF=XQC
 -------------------------------------------------------------------

 ------------------------------
 Gaussian input prepared by ASE
 ------------------------------
 Symbolic Z-matrix:
 Charge =  0 Multiplicity = 1

                          Input orientation:
 ---------------------------------------------------------------------
 Center     Atomic      Atomic             Coordinates (Angstroms)
 Number     Number       Type             X           Y           Z
 ---------------------------------------------------------------------
      1          6           0       -4.459455    1.761184    3.868694
      2          6           0       -4.491776    2.577021    2.737482
      3          6           0       -5.203673    2.190677    1.601936
      4          6           0       -5.880900    0.962591    1.577068
      5          7           0       -6.587499    0.539598    0.415599
      6          6           0       -7.891812   -0.025017    0.541463
      7          6           0       -8.285766   -1.054680   -0.327389
      8          6           0       -9.559397   -1.609990   -0.226759
      9          6           0      -10.452618   -1.163040    0.749809
     10          6           0      -10.059871   -0.144644    1.620031
     11          6           0       -8.793650    0.430116    1.515057
     12          6           0       -6.159440    0.968100   -0.870562
     13          6           0       -7.013620    1.687056   -1.694092
     14          6           0       -6.557779    2.100644   -2.956145
     15          7           0       -5.344833    1.864003   -3.427837
     16          6           0       -4.499030    1.149398   -2.650324
     17          6           0       -4.855612    0.652257   -1.362093
     18          6           0       -3.922363   -0.156991   -0.635406
     19          6           0       -2.691107   -0.444882   -1.141465
     20          6           0       -2.271304    0.054395   -2.418585
     21          6           0       -0.981016   -0.216187   -2.964894
     22          6           0       -0.000786   -1.111202   -2.280019
     23          6           0       -0.285189   -2.483896   -2.202052
     24          6           0        0.611315   -3.374909   -1.630588
     25          6           0        1.835565   -2.926466   -1.107168
     26          6           0        2.781284   -3.823209   -0.517315
     27          6           0        3.964548   -3.376745   -0.009276
     28          6           0        4.319043   -1.988109   -0.040766
     29          6           0        3.390714   -1.066024   -0.623693
     30          6           0        3.693689    0.336612   -0.669586
     31          6           0        2.727921    1.229333   -1.245052
     32          6           0        1.551833    0.780372   -1.758813
     33          6           0        1.216420   -0.619325   -1.751301
     34          6           0        2.149532   -1.534616   -1.160770
     35          6           0        4.902987    0.816043   -0.155276
     36          6           0        5.803338   -0.090779    0.394557
     37          6           0        5.538463   -1.483986    0.476458
     38          6           0        6.687026   -2.081840    1.136800
     39          6           0        7.056343   -3.385659    1.508365
     40          6           0        8.280502   -3.605924    2.131824
     41          6           0        9.158871   -2.541508    2.390962
     42          6           0        8.826486   -1.236828    2.038419
     43          6           0        7.590916   -1.021408    1.423862
     44          7           0        7.045645    0.179558    0.968813
     45          6           0        7.652924    1.462411    1.073771
     46          6           0        7.924525    2.206938   -0.080608
     47          6           0        8.512090    3.467347    0.027755
     48          6           0        8.848769    3.982194    1.281250
     49          6           0        8.586438    3.234163    2.430739
     50          6           0        7.981515    1.981219    2.332121
     51          6           0       -0.671118    0.350024   -4.192270
     52          6           0       -1.628144    1.142742   -4.851230
     53          7           0       -2.836565    1.394339   -4.378218
     54          6           0       -3.165686    0.865609   -3.177437
     55          6           0       -5.840861    0.138188    2.714592
     56          6           0       -5.142900    0.542467    3.849825
     57          1           0       -3.908636    2.068506    4.752911
     58          1           0       -3.969986    3.530360    2.737197
     59          1           0       -5.235560    2.839152    0.732426
     60          1           0       -7.587671   -1.414038   -1.077256
     61          1           0       -9.848688   -2.406232   -0.907496
     62          1           0      -11.442052   -1.603759    0.831577
     63          1           0      -10.747136    0.218843    2.379538
     64          1           0       -8.499355    1.230657    2.185913
     65          1           0       -8.016114    1.935778   -1.362142
     66          1           0       -7.222499    2.672553   -3.603248
     67          1           0       -4.210308   -0.549274    0.332544
     68          1           0       -2.003986   -1.061238   -0.571909
     69          1           0       -1.221250   -2.850096   -2.614404
     70          1           0        0.373913   -4.435154   -1.590210
     71          1           0        2.536317   -4.882069   -0.480877
     72          1           0        4.653511   -4.088435    0.427015
     73          1           0        2.957968    2.292113   -1.258665
     74          1           0        0.842043    1.484159   -2.179392
     75          1           0        5.123353    1.878305   -0.184661
     76          1           0        6.404853   -4.230035    1.315481
     77          1           0        8.560710   -4.615623    2.418026
     78          1           0       10.113833   -2.736253    2.871249
     79          1           0        9.506149   -0.413121    2.229886
     80          1           0        7.681620    1.789967   -1.053108
     81          1           0        8.718483    4.041417   -0.871311
     82          1           0        9.313121    4.960954    1.361835
     83          1           0        8.840914    3.630802    3.409722
     84          1           0        7.753244    1.403767    3.222659
     85          1           0        0.296824    0.169769   -4.650574
     86          1           0       -1.388596    1.583539   -5.818872
     87          1           0       -6.357568   -0.816317    2.700282
     88          1           0       -5.122384   -0.107735    4.720526
 ---------------------------------------------------------------------

 SCF Done:  E(RB3LYP) =  -2219.90310303     A.U. after   16 cycles

 Excitation energies and oscillator strengths:

 Excited state symmetry could not be determined.
 Excited State   1:      Triplet-?Sym    1.9007 eV  652.31 nm  f=0.0000  <S**2>=2.000
     186 ->187         0.66214
 This state for optimization and/or second-order correction.
 Total Energy, E(TD-HF/TD-DFT) =  -2219.83325362
 Copying the excited state density for this state as the 1-particle RhoCI density.

 Excited state symmetry could not be determined.
 Excited State   2:      Triplet-?Sym    2.6165 eV  473.86 nm  f=0.0000  <S**2>=2.000
     180 ->189         0.15287
     183 ->187         0.14599
     183 ->188         0.31578
     183 ->189        -0.15851
     185 ->187         0.17235
     185 ->188         0.47055
     186 ->188         0.10792

 Excited state symmetry could not be determined.
 Excited State   3:      Singlet-?Sym    3.0168 eV  410.98 nm  f=0.5065  <S**2>=0.000
     184 ->187        -0.20841
     186 ->187         0.63959

 Excited state symmetry could not be determined.
 Excited State   4:      Singlet-?Sym    3.1245 eV  396.81 nm  f=0.0747  <S**2>=0.000
     184 ->187         0.27135
     185 ->187         0.60973
     185 ->188         0.18619

 Alpha  occ. eigenvalues --  -14.38501 -14.36946 -14.31854 -14.31633 -10.24357
 Alpha  occ. eigenvalues --  -10.24233 -10.23265 -10.23256 -10.22956 -10.22777
 Alpha  occ. eigenvalues --  -10.22244 -10.22166 -10.21714 -10.21676 -10.21248
 Alpha  occ. eigenvalues --  -10.20548 -10.20543 -10.20485 -10.20481 -10.20355
 Alpha  occ. eigenvalues --  -10.20345 -10.20335 -10.20313 -10.20274 -10.20146
 Alpha  occ. eigenvalues --  -10.19976 -10.19944 -10.19740 -10.19692 -10.19577
 Alpha  occ. eigenvalues --  -10.19444 -10.19358 -10.19331 -10.19316 -10.19259
 Alpha  occ. eigenvalues --  -10.19214 -10.19204 -10.19197 -10.19192 -10.19180
 Alpha  occ. eigenvalues --  -10.19150 -10.19141 -10.19117 -10.19099 -10.19099
 Alpha  occ. eigenvalues --  -10.19092 -10.19087 -10.19052 -10.19028 -10.18996
 Alpha  occ. eigenvalues --  -10.18971 -10.18945 -10.18899 -10.18828 -10.18738
 Alpha  occ. eigenvalues --  -10.18397  -0.99477  -0.97056  -0.94501  -0.92251
 Alpha  occ. eigenvalues --   -0.88992  -0.87299  -0.85607  -0.85347  -0.84628
 Alpha  occ. eigenvalues --   -0.84458  -0.83709  -0.82915  -0.81368  -0.79454
 Alpha  occ. eigenvalues --   -0.79262  -0.77987  -0.76151  -0.75999  -0.75761
 Alpha  occ. eigenvalues --   -0.74960  -0.74849  -0.74546  -0.74373  -0.74200
 Alpha  occ. eigenvalues --   -0.73772  -0.73353  -0.71642  -0.71544  -0.70275
 Alpha  occ. eigenvalues --   -0.65962  -0.65010  -0.64472  -0.63507  -0.62867
 Alpha  occ. eigenvalues --   -0.62798  -0.62462  -0.62047  -0.61681  -0.61357
 Alpha  occ. eigenvalues --   -0.60630  -0.60332  -0.59201  -0.58866  -0.58076
 Alpha  occ. eigenvalues --   -0.56634  -0.55723  -0.54935  -0.54010  -0.53716
 Alpha  occ. eigenvalues --   -0.53531  -0.52034  -0.51675  -0.51297  -0.50761
 Alpha  occ. eigenvalues --   -0.50340  -0.49716  -0.49290  -0.48613  -0.48152
 Alpha  occ. eigenvalues --   -0.48105  -0.47537  -0.47142  -0.47075  -0.45918
 Alpha  occ. eigenvalues --   -0.45793  -0.45418  -0.45002  -0.44822  -0.44528
 Alpha  occ. eigenvalues --   -0.44357  -0.43647  -0.43559  -0.43527  -0.43416
 Alpha  occ. eigenvalues --   -0.42597  -0.42465  -0.42370  -0.42273  -0.42198
 Alpha  occ. eigenvalues --   -0.42149  -0.41691  -0.41371  -0.41206  -0.40468
 Alpha  occ. eigenvalues --   -0.40380  -0.40063  -0.39803  -0.38904  -0.38199
 Alpha  occ. eigenvalues --   -0.37949  -0.37720  -0.37619  -0.37330  -0.37099
 Alpha  occ. eigenvalues --   -0.36742  -0.36650  -0.36266  -0.36081  -0.35881
 Alpha  occ. eigenvalues --   -0.35544  -0.35488  -0.35154  -0.34722  -0.34517
 Alpha  occ. eigenvalues --   -0.34412  -0.33903  -0.33244  -0.32979  -0.32896
 Alpha  occ. eigenvalues --   -0.31681  -0.31235  -0.29421  -0.28683  -0.28285
 Alpha  occ. eigenvalues --   -0.28005  -0.26560  -0.26318  -0.25955  -0.25574
 Alpha  occ. eigenvalues --   -0.25376  -0.25182  -0.24952  -0.24732  -0.23761
 Alpha  occ. eigenvalues --   -0.23395  -0.23271  -0.22426  -0.20089  -0.19330
 Alpha  occ. eigenvalues --   -0.18687
 Alpha virt. eigenvalues --   -0.06553  -0.04848  -0.04560  -0.02319  -0.01680
 Alpha virt. eigenvalues --   -0.01556  -0.01271  -0.01125  -0.00570  -0.00378
 Alpha virt. eigenvalues --    0.00123   0.00472   0.01482   0.01873   0.03529

 Mulliken charges:
               1
     1  C   -0.127606
     2  C   -0.137775
     3  C   -0.171737
     4  C    0.278465
     5  N   -0.648634
     6  C    0.270560
     7  C   -0.156433
     8  C   -0.139389
     9  C   -0.126939
    10  C   -0.140719
    11  C   -0.168596
    12  C    0.228179
    13  C   -0.185439
    14  C    0.031913
    15  N   -0.472534
    16  C    0.190712
    17  C    0.146357
    18  C   -0.182971
    19  C   -0.205355
    20  C    0.138475
    21  C    0.013832
    22  C   -0.033390
    23  C   -0.161598
    24  C   -0.230910
    25  C    0.183845
    26  C   -0.217270
    27  C   -0.177443
    28  C    0.096432
    29  C    0.002395
    30  C    0.176749
    31  C   -0.197093
    32  C   -0.206050
    33  C    0.127197
    34  C   -0.041005
    35  C   -0.304826
    36  C    0.355939
    37  C   -0.086437
    38  C    0.069804
    39  C   -0.202250
    40  C   -0.142111
    41  C   -0.141061
    42  C   -0.178985
    43  C    0.305836
    44  N   -0.743219
    45  C    0.253890
    46  C   -0.145251
    47  C   -0.143050
    48  C   -0.120027
    49  C   -0.142974
    50  C   -0.144760
    51  C   -0.184270
    52  C    0.039473
    53  N   -0.469112
    54  C    0.190280
    55  C   -0.160927
    56  C   -0.138744
    57  H    0.129345
    58  H    0.134451
    59  H    0.146054
    60  H    0.144167
    61  H    0.134405
    62  H    0.129952
    63  H    0.133395
    64  H    0.147199
    65  H    0.149293
    66  H    0.140060
    67  H    0.153768
    68  H    0.150755
    69  H    0.139494
    70  H    0.131813
    71  H    0.130465
    72  H    0.138784
    73  H    0.129841
    74  H    0.143726
    75  H    0.144020
    76  H    0.142946
    77  H    0.125351
    78  H    0.128781
    79  H    0.141132
    80  H    0.153589
    81  H    0.140753
    82  H    0.137412
    83  H    0.140359
    84  H    0.153345
    85  H    0.144529
    86  H    0.139688
    87  H    0.144818
    88  H    0.132861
 Sum of Mulliken charges =  -0.00000

 Dipole moment (field-independent basis, Debye):
    X=              2.4002    Y=             -0.0192    Z=              3.7552  Tot=              4.4568
 Quadrupole moment (field-independent basis, Debye-Ang):
   XX=           -269.7124   YY=           -293.8413   ZZ=           -319.1294
   XY=             24.0082   XZ=             -9.0702   YZ=              8.2256

 Normal termination of Gaussian 16 at Sat Nov  5 11:38:39 2022.
