 Gaussian 16, Revision B.01,
 Gaussian 16:  ES64L-G16RevB.01 20-Dec-2017

 -----------------------------
 #p b3lyp/6-31g(d) opt SCF=XQC
 -----------------------------

 ------------------------------
 Gaussian input prepared by ASE
 ------------------------------
 Symbolic Z-matrix:
 Charge =  0 Multiplicity = 1

 SCF Done:  E(RB3LYP) =  -2219.89012236     A.U. after   16 cycles
 SCF Done:  E(RB3LYP) =  -2219.90216999     A.U. after   13 cycles
 SCF Done:  E(RB3LYP) =  -2219.90278778     A.U. after   12 cycles
 SCF Done:  E(RB3LYP) =  -2219.90300962     A.U. after   12 cycles
 SCF Done:  E(RB3LYP) =  -2219.90307318     A.U. after   11 cycles
 SCF Done:  E(RB3LYP) =  -2219.90309887     A.U. after   11 cycles
 SCF Done:  E(RB3LYP) =  -2219.90310088     A.U. after    8 cycles
 SCF Done:  E(RB3LYP) =  -2219.90310142     A.U. after    8 cycles
 SCF Done:  E(RB3LYP) =  -2219.90310152     A.U. after    7 cycles
 SCF Done:  E(RB3LYP) =  -2219.90310159     A.U. after    7 cycles
 SCF Done:  E(RB3LYP) =  -2219.90310162     A.U. after    6 cycles
 Optimization completed.
    -- Stationary point found.

                         Standard orientation:
 ---------------------------------------------------------------------
 Center     Atomic      Atomic             Coordinates (Angstroms)
 Number     Number       Type             X           Y           Z
 ---------------------------------------------------------------------
      1          6           0       -4.232080   -4.544568    1.011221
      2          6           0       -4.384020   -3.534205    1.961145
      3          6           0       -5.162874   -2.410319    1.685845
      4          6           0       -5.787913   -2.272951    0.437683
      5          7           0       -6.561910   -1.118286    0.129637
      6          6           0       -7.828133   -1.259992   -0.512595
      7          6           0       -8.243081   -0.294013   -1.442655
      8          6           0       -9.481035   -0.409838   -2.070896
      9          6           0      -10.315849   -1.496027   -1.797815
     10          6           0       -9.901527   -2.461979   -0.879152
     11          6           0       -8.672100   -2.344904   -0.231474
     12          6           0       -6.250653    0.127778    0.739147
     13          6           0       -7.194053    0.789275    1.511896
     14          6           0       -6.852671    2.015369    2.105003
     15          7           0       -5.669990    2.597072    1.992663
     16          6           0       -4.738597    1.979939    1.229627
     17          6           0       -4.975608    0.745734    0.555531
     18          6           0       -3.956966    0.197275   -0.290325
     19          6           0       -2.756492    0.820914   -0.448136
     20          6           0       -2.455747    2.048247    0.229915
     21          6           0       -1.200230    2.713548    0.097383
     22          6           0       -0.134345    2.220875   -0.825720
     23          6           0       -0.354190    2.302684   -2.209999
     24          6           0        0.619542    1.915835   -3.119059
     25          6           0        1.859955    1.424924   -2.678333
     26          6           0        2.884348    1.024058   -3.592872
     27          6           0        4.082850    0.545765   -3.154261
     28          6           0        4.375367    0.420789   -1.756483
     29          6           0        3.367760    0.812716   -0.816825
     30          6           0        3.607274    0.696578    0.594002
     31          6           0        2.564163    1.082346    1.501705
     32          6           0        1.372483    1.567120    1.061714
     33          6           0        1.097628    1.718580   -0.343001
     34          6           0        2.110290    1.318580   -1.276649
     35          6           0        4.830801    0.209604    1.065812
     36          6           0        5.807395   -0.153525    0.144032
     37          6           0        5.608164   -0.071579   -1.260064
     38          6           0        6.827428   -0.566964   -1.877045
     39          6           0        7.278159   -0.739033   -3.196755
     40          6           0        8.554103   -1.241837   -3.431139
     41          6           0        9.404106   -1.575610   -2.364483
     42          6           0        8.991570   -1.419899   -1.044436
     43          6           0        7.705134   -0.926062   -0.816565
     44          7           0        7.077113   -0.670272    0.402808
     45          6           0        7.636221   -0.898848    1.691477
     46          6           0        7.788306    0.164852    2.589303
     47          6           0        8.328972   -0.065541    3.854295
     48          6           0        8.737537   -1.348913    4.222672
     49          6           0        8.594465   -2.406675    3.322471
     50          6           0        8.036929   -2.188101    2.062748
     51          6           0       -1.008028    3.875324    0.829789
     52          6           0       -2.044544    4.357297    1.649462
     53          7           0       -3.223244    3.772657    1.776683
     54          6           0       -3.438181    2.630968    1.083791
     55          6           0       -5.627447   -3.287905   -0.521130
     56          6           0       -4.863252   -4.414786   -0.228739
     57          1           0       -3.629383   -5.420795    1.231835
     58          1           0       -3.904210   -3.621739    2.932350
     59          1           0       -5.287578   -1.636972    2.436823
     60          1           0       -7.589201    0.542982   -1.667727
     61          1           0       -9.787286    0.346978   -2.788204
     62          1           0      -11.276903   -1.588347   -2.295559
     63          1           0      -10.544062   -3.308292   -0.650657
     64          1           0       -8.361791   -3.092160    0.491602
     65          1           0       -8.178139    0.358849    1.664726
     66          1           0       -7.587813    2.534693    2.719447
     67          1           0       -4.154206   -0.729032   -0.816420
     68          1           0       -2.003028    0.385632   -1.095628
     69          1           0       -1.302548    2.693083   -2.568540
     70          1           0        0.430572    1.997415   -4.186646
     71          1           0        2.687485    1.108827   -4.658977
     72          1           0        4.832075    0.254828   -3.879201
     73          1           0        2.747723    0.973452    2.568033
     74          1           0        0.604028    1.842099    1.775763
     75          1           0        5.003547    0.115704    2.133129
     76          1           0        6.649959   -0.483652   -4.042191
     77          1           0        8.897264   -1.373966   -4.453246
     78          1           0       10.399968   -1.958859   -2.569258
     79          1           0        9.648597   -1.669227   -0.217848
     80          1           0        7.490298    1.164087    2.287071
     81          1           0        8.442545    0.763299    4.547548
     82          1           0        9.165171   -1.523736    5.205857
     83          1           0        8.905344   -3.408872    3.604333
     84          1           0        7.901058   -3.009587    1.366102
     85          1           0       -0.070789    4.419403    0.759029
     86          1           0       -1.897532    5.273618    2.221092
     87          1           0       -6.103247   -3.185430   -1.491378
     88          1           0       -4.749715   -5.189876   -0.982163
 ---------------------------------------------------------------------

 The electronic state is 1-A.
 Alpha  occ. eigenvalues --  -14.38501 -14.36946 -14.31854 -14.31633 -10.24357
 Alpha  occ. eigenvalues --  -10.24233 -10.23265 -10.23256 -10.22956 -10.22777
 Alpha  occ. eigenvalues --  -10.22244 -10.22166 -10.21715 -10.21676 -10.21248
 Alpha  occ. eigenvalues --  -10.20548 -10.20543 -10.20485 -10.20481 -10.20355
 Alpha  occ. eigenvalues --  -10.20345 -10.20334 -10.20313 -10.20274 -10.20146
 Alpha  occ. eigenvalues --  -10.19976 -10.19944 -10.19740 -10.19692 -10.19577
 Alpha  occ. eigenvalues --  -10.19444 -10.19358 -10.19331 -10.19316 -10.19259
 Alpha  occ. eigenvalues --  -10.19214 -10.19204 -10.19197 -10.19192 -10.19180
 Alpha  occ. eigenvalues --  -10.19150 -10.19141 -10.19117 -10.19100 -10.19099
 Alpha  occ. eigenvalues --  -10.19092 -10.19087 -10.19052 -10.19027 -10.18996
 Alpha  occ. eigenvalues --  -10.18971 -10.18945 -10.18899 -10.18828 -10.18738
 Alpha  occ. eigenvalues --  -10.18396  -0.99477  -0.97056  -0.94501  -0.92251
 Alpha  occ. eigenvalues --   -0.88992  -0.87299  -0.85607  -0.85347  -0.84628
 Alpha  occ. eigenvalues --   -0.84458  -0.83709  -0.82915  -0.81368  -0.79454
 Alpha  occ. eigenvalues --   -0.79262  -0.77987  -0.76150  -0.75999  -0.75761
 Alpha  occ. eigenvalues --   -0.74960  -0.74849  -0.74546  -0.74373  -0.74200
 Alpha  occ. eigenvalues --   -0.73772  -0.73353  -0.71642  -0.71544  -0.70275
 Alpha  occ. eigenvalues --   -0.65962  -0.65010  -0.64472  -0.63507  -0.62867
 Alpha  occ. eigenvalues --   -0.62798  -0.62462  -0.62047  -0.61681  -0.61357
 Alpha  occ. eigenvalues --   -0.60630  -0.60332  -0.59201  -0.58866  -0.58076
 Alpha  occ. eigenvalues --   -0.56634  -0.55723  -0.54935  -0.54010  -0.53716
 Alpha  occ. eigenvalues --   -0.53531  -0.52034  -0.51675  -0.51297  -0.50761
 Alpha  occ. eigenvalues --   -0.50340  -0.49716  -0.49290  -0.48613  -0.48152
 Alpha  occ. eigenvalues --   -0.48105  -0.47537  -0.47142  -0.47075  -0.45918
 Alpha  occ. eigenvalues --   -0.45793  -0.45418  -0.45002  -0.44822  -0.44528
 Alpha  occ. eigenvalues --   -0.44357  -0.43647  -0.43559  -0.43527  -0.43416
 Alpha  occ. eigenvalues --   -0.42597  -0.42465  -0.42370  -0.42273  -0.42198
 Alpha  occ. eigenvalues --   -0.42149  -0.41691  -0.41371  -0.41206  -0.40468
 Alpha  occ. eigenvalues --   -0.40380  -0.40063  -0.39803  -0.38904  -0.38199
 Alpha  occ. eigenvalues --   -0.37949  -0.37720  -0.37619  -0.37330  -0.37099
 Alpha  occ. eigenvalues --   -0.36742  -0.36650  -0.36266  -0.36081  -0.35881
 Alpha  occ. eigenvalues --   -0.35544  -0.35488  -0.35154  -0.34722  -0.34517
 Alpha  occ. eigenvalues --   -0.34412  -0.33903  -0.33244  -0.32979  -0.32896
 Alpha  occ. eigenvalues --   -0.31681  -0.31235  -0.29421  -0.28683  -0.28285
 Alpha  occ. eigenvalues --   -0.28005  -0.26560  -0.26318  -0.25955  -0.25574
 Alpha  occ. eigenvalues --   -0.25376  -0.25182  -0.24952  -0.24732  -0.23761
 Alpha  occ. eigenvalues --   -0.23395  -0.23271  -0.22426  -0.20089  -0.19330
 Alpha  occ. eigenvalues --   -0.18687
 Alpha virt. eigenvalues --   -0.06553  -0.04848  -0.04560  -0.02319  -0.01680
 Alpha virt. eigenvalues --   -0.01556  -0.01271  -0.01125  -0.00570  -0.00378
 Alpha virt. eigenvalues --    0.00123   0.00472   0.01482   0.01874   0.03529

 Mulliken charges:
               1
     1  C   -0.127611
     2  C   -0.137782
     3  C   -0.171720
     4  C    0.278446
     5  N   -0.648621
     6  C    0.270508
     7  C   -0.156408
     8  C   -0.139396
     9  C   -0.126944
    10  C   -0.140723
    11  C   -0.168560
    12  C    0.228163
    13  C   -0.185417
    14  C    0.031896
    15  N   -0.472534
    16  C    0.190716
    17  C    0.146353
    18  C   -0.182962
    19  C   -0.205364
    20  C    0.138471
    21  C    0.013854
    22  C   -0.033380
    23  C   -0.161606
    24  C   -0.230901
    25  C    0.183840
    26  C   -0.217270
    27  C   -0.177442
    28  C    0.096427
    29  C    0.002391
    30  C    0.176758
    31  C   -0.197098
    32  C   -0.206040
    33  C    0.127183
    34  C   -0.041001
    35  C   -0.304823
    36  C    0.355939
    37  C   -0.086450
    38  C    0.069808
    39  C   -0.202246
    40  C   -0.142108
    41  C   -0.141063
    42  C   -0.178992
    43  C    0.305850
    44  N   -0.743236
    45  C    0.253906
    46  C   -0.145249
    47  C   -0.143048
    48  C   -0.120033
    49  C   -0.142961
    50  C   -0.144776
    51  C   -0.184290
    52  C    0.039488
    53  N   -0.469119
    54  C    0.190286
    55  C   -0.160908
    56  C   -0.138744
    57  H    0.129346
    58  H    0.134451
    59  H    0.146053
    60  H    0.144165
    61  H    0.134406
    62  H    0.129954
    63  H    0.133395
    64  H    0.147197
    65  H    0.149288
    66  H    0.140061
    67  H    0.153765
    68  H    0.150753
    69  H    0.139495
    70  H    0.131813
    71  H    0.130465
    72  H    0.138783
    73  H    0.129841
    74  H    0.143725
    75  H    0.144022
    76  H    0.142946
    77  H    0.125351
    78  H    0.128781
    79  H    0.141133
    80  H    0.153587
    81  H    0.140753
    82  H    0.137413
    83  H    0.140358
    84  H    0.153346
    85  H    0.144529
    86  H    0.139687
    87  H    0.144815
    88  H    0.132862
 Sum of Mulliken charges =  -0.00000

 Dipole moment (field-independent basis, Debye):
    X=              2.6758    Y=             -3.5446    Z=             -0.3719  Tot=              4.4567
 Quadrupole moment (field-independent basis, Debye-Ang):
   XX=           -273.5052   YY=           -314.2628   ZZ=           -293.6794
   XY=              9.0781   XZ=             26.8541   YZ=             -8.8575

 1\1\GINC-NODE58\FOpt\RB3LYP\6-31G(d)\C52H32N4\WYKGROUP\05-Nov-2022\0\\
 #p b3lyp/6-31g(d) opt SCF=XQC\\Gaussian input prepared by ASE\\0,1\C,-
 4.4594552655,1.7611839472,3.8686943106\C,-4.4917759015,2.5770211076,2.
 7374822701\C,-5.203672612,2.1906769331,1.6019364771\C,-5.880900344,0.9
 625906085,1.5770681877\N,-6.5874989114,0.5395981955,0.4155988134\C,-7.
 891812074,-0.0250165764,0.5414631443\C,-8.2857661919,-1.0546796091,-0.
 3273886215\C,-9.5593972438,-1.6099898465,-0.2267593582\C,-10.452618138
 9,-1.1630398859,0.7498088566\C,-10.0598706617,-0.1446436212,1.62003107

 Normal termination of Gaussian 16 at Sat Nov  5 02:13:28 2022.
