 Gaussian 16, Revision B.01,
 Gaussian 16:  ES64L-G16RevB.01 20-Dec-2017

 -----------------------------
 #p b3lyp/6-31g(d) opt SCF=XQC
 -----------------------------

 ------------------------------
 Gaussian input prepared by ASE
 ------------------------------
 Symbolic Z-matrix:
 Charge =  0 Multiplicity = 1

 SCF Done:  E(RB3LYP) =  -1906.20001961     A.U. after   17 cycles
 SCF Done:  E(RB3LYP) =  -1906.21013059     A.U. after   13 cycles
 SCF Done:  E(RB3LYP) =  -1906.21028514     A.U. after   11 cycles
 SCF Done:  E(RB3LYP) =  -1906.21029295     A.U. after    8 cycles
 SCF Done:  E(RB3LYP) =  -1906.21029366     A.U. after    7 cycles
 SCF Done:  E(RB3LYP) =  -1906.21029375     A.U. after    6 cycles
 Optimization completed.
    -- Stationary point found.

                         Standard orientation:
 ---------------------------------------------------------------------
 Center     Atomic      Atomic             Coordinates (Angstroms)
 Number     Number       Type             X           Y           Z
 ---------------------------------------------------------------------
      1          6           0        7.448741   -0.436240   -1.266749
      2          6           0        6.552704   -0.362555   -0.000257
      3          6           0        7.449250   -0.435019    1.265947
      4          6           0        5.588006   -1.554803    0.000509
      5          6           0        6.106718   -2.856904    0.001081
      6          6           0        5.297368   -3.989177    0.001777
      7          6           0        3.913219   -3.823461    0.001914
      8          6           0        3.364230   -2.547460    0.001360
      9          6           0        4.185719   -1.402606    0.000651
     10          7           0        3.597238   -0.121657    0.000097
     11          6           0        2.164905   -0.005849    0.000097
     12          6           0        1.475107    0.049111   -1.226127
     13          6           0        2.161727   -0.003854   -2.479880
     14          6           0        1.474856    0.053005   -3.662862
     15          6           0        0.056177    0.165784   -3.667055
     16          6           0       -0.638893    0.216806   -2.488277
     17          6           0        0.033648    0.160851   -1.224479
     18          6           0       -0.670313    0.213117    0.000090
     19          6           0       -2.168286    0.290334    0.000098
     20          6           0       -2.903271   -0.881368    0.000178
     21          6           0       -4.307609   -0.847196    0.000134
     22          6           0       -5.011256    0.354795    0.000008
     23          6           0       -4.294875    1.594813    0.000121
     24          6           0       -4.920103    2.871376    0.000355
     25          6           0       -4.186046    4.036785    0.000358
     26          6           0       -2.775104    3.990893    0.000119
     27          6           0       -2.129811    2.775887    0.000008
     28          6           0       -2.852990    1.551289    0.000069
     29          6           0       -6.458206    0.037390   -0.000228
     30          6           0       -7.613436    0.830507   -0.000718
     31          6           0       -8.870631    0.220811   -0.000863
     32          6           0       -8.994217   -1.169748   -0.000555
     33          6           0       -7.848098   -1.971245   -0.000167
     34          6           0       -6.596104   -1.369963   -0.000034
     35          6           0       -5.236845   -2.052336    0.000216
     36          6           0       -5.037690   -2.917170    1.266222
     37          6           0       -5.037462   -2.917578   -1.265473
     38          6           0        0.033732    0.161980    1.224660
     39          6           0       -0.638736    0.218987    2.488448
     40          6           0        0.056412    0.169064    3.667227
     41          6           0        1.475100    0.056401    3.663046
     42          6           0        2.161899   -0.001496    2.480072
     43          6           0        1.475192    0.050276    1.226316
     44          6           0        4.385324    1.046987   -0.000559
     45          6           0        3.760267    2.309819   -0.001029
     46          6           0        4.508566    3.480113   -0.001691
     47          6           0        5.901281    3.419436   -0.001897
     48          6           0        6.516531    2.171015   -0.001421
     49          6           0        5.793791    0.970126   -0.000747
     50          1           0        8.164095    0.392383   -1.293591
     51          1           0        8.020466   -1.369797   -1.292665
     52          1           0        6.839169   -0.387040   -2.175048
     53          1           0        8.020975   -1.368555    1.292543
     54          1           0        8.164628    0.393618    1.291696
     55          1           0        6.840041   -0.384925    2.174441
     56          1           0        7.185019   -2.988677    0.000970
     57          1           0        5.741365   -4.980364    0.002203
     58          1           0        3.252512   -4.686354    0.002455
     59          1           0        2.287567   -2.431099    0.001475
     60          1           0        3.242383   -0.089418   -2.473790
     61          1           0        2.013467    0.012238   -4.605676
     62          1           0       -0.476026    0.211600   -4.613275
     63          1           0       -1.719859    0.301656   -2.496485
     64          1           0       -2.381332   -1.835077    0.000256
     65          1           0       -5.999092    2.936846    0.000681
     66          1           0       -4.697046    4.995907    0.000562
     67          1           0       -2.200846    4.913260    0.000069
     68          1           0       -1.045497    2.737531   -0.000101
     69          1           0       -7.566204    1.912233   -0.001108
     70          1           0       -9.762164    0.842374   -0.001240
     71          1           0       -9.979100   -1.628848   -0.000661
     72          1           0       -7.940917   -3.054878   -0.000002
     73          1           0       -5.178009   -2.323232    2.174981
     74          1           0       -5.755484   -3.745227    1.284640
     75          1           0       -4.029562   -3.346814    1.289345
     76          1           0       -5.177618   -2.323936   -2.174450
     77          1           0       -5.755247   -3.745644   -1.283756
     78          1           0       -4.029328   -3.347228   -1.288274
     79          1           0       -1.719710    0.303736    2.496651
     80          1           0       -0.475738    0.215654    4.613440
     81          1           0        2.013775    0.016534    4.605862
     82          1           0        3.242560   -0.087003    2.473986
     83          1           0        2.678938    2.369204   -0.000869
     84          1           0        3.996356    4.438622   -0.002044
     85          1           0        6.499933    4.325630   -0.002417
     86          1           0        7.601942    2.126323   -0.001580
 ---------------------------------------------------------------------

 The electronic state is 1-A.
 Alpha  occ. eigenvalues --  -14.36516 -10.22761 -10.22605 -10.22600 -10.20767
 Alpha  occ. eigenvalues --  -10.20640 -10.20632 -10.20432 -10.20426 -10.20324
 Alpha  occ. eigenvalues --  -10.20308 -10.20308 -10.20242 -10.20114 -10.19861
 Alpha  occ. eigenvalues --  -10.19699 -10.19242 -10.19213 -10.19213 -10.19169
 Alpha  occ. eigenvalues --  -10.19151 -10.19151 -10.19135 -10.19066 -10.18989
 Alpha  occ. eigenvalues --  -10.18977 -10.18975 -10.18961 -10.18961 -10.18942
 Alpha  occ. eigenvalues --  -10.18920 -10.18920 -10.18890 -10.18870 -10.18861
 Alpha  occ. eigenvalues --  -10.18609 -10.18608 -10.18241 -10.18241 -10.18059
 Alpha  occ. eigenvalues --  -10.18055 -10.17991 -10.17990 -10.17707 -10.17695
 Alpha  occ. eigenvalues --  -10.17449 -10.17449 -10.17130 -10.17129  -0.96860
 Alpha  occ. eigenvalues --   -0.89432  -0.88264  -0.86112  -0.84935  -0.84711
 Alpha  occ. eigenvalues --   -0.84562  -0.83064  -0.81449  -0.80140  -0.79685
 Alpha  occ. eigenvalues --   -0.78944  -0.76987  -0.75146  -0.74837  -0.74583
 Alpha  occ. eigenvalues --   -0.74021  -0.74018  -0.73437  -0.73128  -0.71903
 Alpha  occ. eigenvalues --   -0.71760  -0.71151  -0.68923  -0.68615  -0.68055
 Alpha  occ. eigenvalues --   -0.64947  -0.64124  -0.63339  -0.62718  -0.62040
 Alpha  occ. eigenvalues --   -0.61788  -0.61244  -0.60234  -0.59134  -0.59026
 Alpha  occ. eigenvalues --   -0.58551  -0.57729  -0.55959  -0.55270  -0.53969
 Alpha  occ. eigenvalues --   -0.53726  -0.53304  -0.52938  -0.52090  -0.51689
 Alpha  occ. eigenvalues --   -0.50553  -0.49469  -0.48218  -0.46858  -0.46738
 Alpha  occ. eigenvalues --   -0.46472  -0.46333  -0.46181  -0.45567  -0.45226
 Alpha  occ. eigenvalues --   -0.45020  -0.44968  -0.44350  -0.43927  -0.43811
 Alpha  occ. eigenvalues --   -0.43305  -0.43164  -0.43150  -0.42787  -0.42663
 Alpha  occ. eigenvalues --   -0.41892  -0.41699  -0.41349  -0.41160  -0.41050
 Alpha  occ. eigenvalues --   -0.40978  -0.40904  -0.40336  -0.39410  -0.39076
 Alpha  occ. eigenvalues --   -0.38993  -0.38781  -0.38509  -0.37820  -0.37780
 Alpha  occ. eigenvalues --   -0.37474  -0.37208  -0.36644  -0.36399  -0.36377
 Alpha  occ. eigenvalues --   -0.36248  -0.36216  -0.35084  -0.35007  -0.34668
 Alpha  occ. eigenvalues --   -0.34560  -0.34343  -0.34277  -0.33568  -0.33543
 Alpha  occ. eigenvalues --   -0.32621  -0.32211  -0.32034  -0.31558  -0.31405
 Alpha  occ. eigenvalues --   -0.30884  -0.30778  -0.30116  -0.29183  -0.29169
 Alpha  occ. eigenvalues --   -0.25976  -0.25021  -0.24708  -0.24410  -0.24035
 Alpha  occ. eigenvalues --   -0.23960  -0.23655  -0.23326  -0.20096  -0.19609
 Alpha  occ. eigenvalues --   -0.17943
 Alpha virt. eigenvalues --   -0.06831  -0.05080  -0.02037  -0.01169  -0.00139
 Alpha virt. eigenvalues --    0.00007   0.00065   0.00464   0.00898   0.01473
 Alpha virt. eigenvalues --    0.03772   0.04031   0.04985   0.06122   0.08108

 Mulliken charges:
               1
     1  C   -0.434129
     2  C   -0.041468
     3  C   -0.434132
     4  C    0.122831
     5  C   -0.213836
     6  C   -0.132799
     7  C   -0.139605
     8  C   -0.177648
     9  C    0.292223
    10  N   -0.743479
    11  C    0.002721
    12  C    0.160465
    13  C   -0.184817
    14  C   -0.136083
    15  C   -0.133990
    16  C   -0.192684
    17  C    0.091471
    18  C   -0.089714
    19  C   -0.040372
    20  C   -0.244634
    21  C    0.099209
    22  C   -0.025391
    23  C    0.077553
    24  C   -0.184262
    25  C   -0.141052
    26  C   -0.127492
    27  C   -0.206802
    28  C    0.120183
    29  C    0.083635
    30  C   -0.199620
    31  C   -0.133937
    32  C   -0.132451
    33  C   -0.201030
    34  C    0.102123
    35  C   -0.069200
    36  C   -0.439148
    37  C   -0.439153
    38  C    0.091476
    39  C   -0.192681
    40  C   -0.133992
    41  C   -0.136083
    42  C   -0.184819
    43  C    0.160450
    44  C    0.292380
    45  C   -0.177880
    46  C   -0.139431
    47  C   -0.132797
    48  C   -0.213828
    49  C    0.122853
    50  H    0.141840
    51  H    0.141822
    52  H    0.150419
    53  H    0.141822
    54  H    0.141840
    55  H    0.150421
    56  H    0.123006
    57  H    0.120888
    58  H    0.125066
    59  H    0.142731
    60  H    0.152942
    61  H    0.133847
    62  H    0.132583
    63  H    0.148992
    64  H    0.134199
    65  H    0.138404
    66  H    0.130217
    67  H    0.131464
    68  H    0.144135
    69  H    0.142621
    70  H    0.127943
    71  H    0.128088
    72  H    0.124497
    73  H    0.157718
    74  H    0.146042
    75  H    0.146879
    76  H    0.157717
    77  H    0.146042
    78  H    0.146880
    79  H    0.148994
    80  H    0.132584
    81  H    0.133847
    82  H    0.152942
    83  H    0.142173
    84  H    0.125205
    85  H    0.121009
    86  H    0.123049
 Sum of Mulliken charges =  -0.00000

 Dipole moment (field-independent basis, Debye):
    X=             -1.5004    Y=             -0.3266    Z=              0.0001  Tot=              1.5356
 Quadrupole moment (field-independent basis, Debye-Ang):
   XX=           -260.5588   YY=           -268.1375   ZZ=           -278.0784
   XY=              1.6748   XZ=             -0.0008   YZ=              0.0025

 1\1\GINC-NODE75\FOpt\RB3LYP\6-31G(d)\C48H37N1\WYKGROUP\05-Nov-2022\0\\
 #p b3lyp/6-31g(d) opt SCF=XQC\\Gaussian input prepared by ASE\\0,1\C,7
 .2994425832,-1.4461377793,0.7869604432\C,6.4245319223,-0.1631042338,0.
 8128838387\C,7.3256990057,1.0648622123,1.1167133826\C,5.3716002075,-0.
 2974677902,1.9198519117\C,5.7892665436,-0.4759202304,3.2458379294\C,4.
 8958030931,-0.6056915679,4.305069136\C,3.528438296,-0.5564097206,4.038
 2067235\C,3.0785903446,-0.3807155819,2.7357717258\C,3.9851191209,-0.24
 95690995,1.6650044855\N,3.496274258,-0.0724439175,0.3547373301\C,2.077

 Normal termination of Gaussian 16 at Sat Nov  5 01:57:38 2022.
