 Gaussian 16, Revision B.01,
 Gaussian 16:  ES64L-G16RevB.01 20-Dec-2017

 -------------------------------------------------------------------
 #p b3lyp/6-31g(d) 6D 10F nosymm GFInput td=(50-50,nstate=2) SCF=XQC
 -------------------------------------------------------------------

 ------------------------------
 Gaussian input prepared by ASE
 ------------------------------
 Symbolic Z-matrix:
 Charge =  0 Multiplicity = 1

                          Input orientation:
 ---------------------------------------------------------------------
 Center     Atomic      Atomic             Coordinates (Angstroms)
 Number     Number       Type             X           Y           Z
 ---------------------------------------------------------------------
      1          6           0        7.299443   -1.446138    0.786960
      2          6           0        6.424532   -0.163104    0.812884
      3          6           0        7.325699    1.064862    1.116713
      4          6           0        5.371600   -0.297468    1.919852
      5          6           0        5.789267   -0.475920    3.245838
      6          6           0        4.895803   -0.605692    4.305069
      7          6           0        3.528438   -0.556410    4.038207
      8          6           0        3.078590   -0.380716    2.735772
      9          6           0        3.985119   -0.249569    1.665004
     10          7           0        3.496274   -0.072444    0.354737
     11          6           0        2.077053   -0.028798    0.133611
     12          6           0        1.381087   -1.223532   -0.132299
     13          6           0        2.048916   -2.487065   -0.192633
     14          6           0        1.356450   -3.638742   -0.454552
     15          6           0       -0.049431   -3.599918   -0.672217
     16          6           0       -0.726592   -2.410797   -0.620387
     17          6           0       -0.047526   -1.178597   -0.349870
     18          6           0       -0.732993    0.056259   -0.293948
     19          6           0       -2.220608    0.096228   -0.481810
     20          6           0       -3.042947   -0.040749    0.621859
     21          6           0       -4.440495   -0.008280    0.483517
     22          6           0       -5.050193    0.161347   -0.757207
     23          6           0       -4.241179    0.307735   -1.929774
     24          6           0       -4.766988    0.485808   -3.238338
     25          6           0       -3.946054    0.622071   -4.335843
     26          6           0       -2.542820    0.587671   -4.185459
     27          6           0       -1.992301    0.417291   -2.936243
     28          6           0       -2.806911    0.273209   -1.779404
     29          6           0       -6.517095    0.148942   -0.551167
     30          6           0       -7.608282    0.274284   -1.421335
     31          6           0       -8.908331    0.220318   -0.912189
     32          6           0       -9.137813    0.042993    0.453395
     33          6           0       -8.056352   -0.083353    1.331157
     34          6           0       -6.762132   -0.030384    0.829940
     35          6           0       -5.459063   -0.145701    1.605782
     36          6           0       -5.313767    0.993393    2.641025
     37          6           0       -5.339217   -1.516525    2.310653
     38          6           0       -0.022547    1.249564   -0.030974
     39          6           0       -0.675855    2.523285    0.027730
     40          6           0        0.025350    3.671529    0.282858
     41          6           0        1.431164    3.624418    0.499315
     42          6           0        2.099512    2.430412    0.453117
     43          6           0        1.406104    1.207908    0.186993
     44          6           0        4.371317    0.062504   -0.742029
     45          6           0        3.844622    0.238098   -2.037097
     46          6           0        4.680123    0.374048   -3.138458
     47          6           0        6.064054    0.338131   -2.974811
     48          6           0        6.582072    0.164606   -1.694720
     49          6           0        5.769718    0.024193   -0.561207
     50          1           0        8.075720   -1.379735    0.017511
     51          1           0        7.797860   -1.604176    1.749079
     52          1           0        6.686243   -2.328039    0.574259
     53          1           0        7.824651    0.958886    2.085673
     54          1           0        8.102534    1.183405    0.354124
     55          1           0        6.731335    1.984193    1.140538
     56          1           0        6.854288   -0.514663    3.456377
     57          1           0        5.262736   -0.742525    5.318096
     58          1           0        2.803760   -0.654419    4.842168
     59          1           0        2.014025   -0.343997    2.540592
     60          1           0        3.119879   -2.513722   -0.026792
     61          1           0        1.880792   -4.589477   -0.497338
     62          1           0       -0.586135   -4.521399   -0.880768
     63          1           0       -1.797940   -2.386325   -0.785822
     64          1           0       -2.595444   -0.174632    1.603591
     65          1           0       -5.837760    0.516191   -3.383351
     66          1           0       -4.382235    0.756716   -5.322074
     67          1           0       -1.899784    0.695599   -5.054591
     68          1           0       -0.914145    0.390529   -2.817611
     69          1           0       -7.478528    0.413055   -2.487295
     70          1           0       -9.749715    0.318278   -1.593108
     71          1           0      -10.154852    0.003124    0.833936
     72          1           0       -8.231706   -0.221682    2.395577
     73          1           0       -5.399074    1.974046    2.162134
     74          1           0       -6.092519    0.918760    3.408632
     75          1           0       -4.341238    0.940507    3.143859
     76          1           0       -5.442798   -2.337973    1.594560
     77          1           0       -6.118333   -1.627543    3.073475
     78          1           0       -4.367149   -1.614939    2.807493
     79          1           0       -1.747053    2.564014   -0.135462
     80          1           0       -0.492070    4.626258    0.320812
     81          1           0        1.974740    4.543165    0.702021
     82          1           0        3.170361    2.391691    0.617311
     83          1           0        2.771051    0.267574   -2.176291
     84          1           0        4.242683    0.508086   -4.124246
     85          1           0        6.730171    0.443011   -3.826198
     86          1           0        7.660836    0.136952   -1.569748
 ---------------------------------------------------------------------

 SCF Done:  E(RB3LYP) =  -1906.21029561     A.U. after   17 cycles

 Excitation energies and oscillator strengths:

 Excited state symmetry could not be determined.
 Excited State   1:      Triplet-?Sym    1.7151 eV  722.89 nm  f=0.0000  <S**2>=2.000
     165 ->167         0.70044
     165 <-167         0.14084
 This state for optimization and/or second-order correction.
 Total Energy, E(TD-HF/TD-DFT) =  -1906.14726635
 Copying the excited state density for this state as the 1-particle RhoCI density.

 Excited state symmetry could not be determined.
 Excited State   2:      Triplet-?Sym    2.3337 eV  531.27 nm  f=0.0000  <S**2>=2.000
     166 ->167         0.70520

 Excited state symmetry could not be determined.
 Excited State   3:      Singlet-?Sym    2.3411 eV  529.59 nm  f=0.0000  <S**2>=0.000
     166 ->167         0.70537

 Excited state symmetry could not be determined.
 Excited State   4:      Singlet-?Sym    3.0514 eV  406.32 nm  f=0.0001  <S**2>=0.000
     164 ->167         0.70459

 Alpha  occ. eigenvalues --  -14.36516 -10.22761 -10.22605 -10.22600 -10.20767
 Alpha  occ. eigenvalues --  -10.20640 -10.20632 -10.20432 -10.20426 -10.20324
 Alpha  occ. eigenvalues --  -10.20308 -10.20308 -10.20242 -10.20114 -10.19861
 Alpha  occ. eigenvalues --  -10.19699 -10.19242 -10.19213 -10.19213 -10.19169
 Alpha  occ. eigenvalues --  -10.19151 -10.19151 -10.19135 -10.19066 -10.18989
 Alpha  occ. eigenvalues --  -10.18977 -10.18975 -10.18961 -10.18961 -10.18942
 Alpha  occ. eigenvalues --  -10.18920 -10.18920 -10.18890 -10.18870 -10.18861
 Alpha  occ. eigenvalues --  -10.18609 -10.18608 -10.18241 -10.18241 -10.18059
 Alpha  occ. eigenvalues --  -10.18055 -10.17991 -10.17990 -10.17707 -10.17694
 Alpha  occ. eigenvalues --  -10.17449 -10.17449 -10.17130 -10.17129  -0.96860
 Alpha  occ. eigenvalues --   -0.89432  -0.88264  -0.86112  -0.84935  -0.84711
 Alpha  occ. eigenvalues --   -0.84562  -0.83064  -0.81449  -0.80140  -0.79685
 Alpha  occ. eigenvalues --   -0.78944  -0.76987  -0.75146  -0.74837  -0.74583
 Alpha  occ. eigenvalues --   -0.74021  -0.74018  -0.73437  -0.73128  -0.71903
 Alpha  occ. eigenvalues --   -0.71760  -0.71151  -0.68922  -0.68615  -0.68055
 Alpha  occ. eigenvalues --   -0.64947  -0.64124  -0.63339  -0.62718  -0.62040
 Alpha  occ. eigenvalues --   -0.61788  -0.61244  -0.60234  -0.59134  -0.59026
 Alpha  occ. eigenvalues --   -0.58551  -0.57730  -0.55959  -0.55270  -0.53969
 Alpha  occ. eigenvalues --   -0.53726  -0.53304  -0.52938  -0.52090  -0.51689
 Alpha  occ. eigenvalues --   -0.50553  -0.49469  -0.48218  -0.46858  -0.46738
 Alpha  occ. eigenvalues --   -0.46472  -0.46333  -0.46181  -0.45567  -0.45226
 Alpha  occ. eigenvalues --   -0.45020  -0.44968  -0.44350  -0.43927  -0.43811
 Alpha  occ. eigenvalues --   -0.43305  -0.43164  -0.43150  -0.42787  -0.42663
 Alpha  occ. eigenvalues --   -0.41892  -0.41699  -0.41349  -0.41160  -0.41050
 Alpha  occ. eigenvalues --   -0.40978  -0.40904  -0.40336  -0.39410  -0.39075
 Alpha  occ. eigenvalues --   -0.38993  -0.38781  -0.38509  -0.37820  -0.37780
 Alpha  occ. eigenvalues --   -0.37474  -0.37208  -0.36644  -0.36399  -0.36377
 Alpha  occ. eigenvalues --   -0.36248  -0.36216  -0.35084  -0.35007  -0.34668
 Alpha  occ. eigenvalues --   -0.34560  -0.34343  -0.34277  -0.33568  -0.33543
 Alpha  occ. eigenvalues --   -0.32621  -0.32211  -0.32034  -0.31558  -0.31405
 Alpha  occ. eigenvalues --   -0.30884  -0.30778  -0.30116  -0.29183  -0.29169
 Alpha  occ. eigenvalues --   -0.25976  -0.25021  -0.24708  -0.24410  -0.24035
 Alpha  occ. eigenvalues --   -0.23961  -0.23655  -0.23326  -0.20096  -0.19609
 Alpha  occ. eigenvalues --   -0.17943
 Alpha virt. eigenvalues --   -0.06831  -0.05080  -0.02037  -0.01169  -0.00139
 Alpha virt. eigenvalues --    0.00007   0.00065   0.00464   0.00898   0.01473
 Alpha virt. eigenvalues --    0.03772   0.04031   0.04984   0.06122   0.08108

 Mulliken charges:
               1
     1  C   -0.434134
     2  C   -0.041471
     3  C   -0.434142
     4  C    0.122850
     5  C   -0.213849
     6  C   -0.132802
     7  C   -0.139600
     8  C   -0.177656
     9  C    0.292252
    10  N   -0.743507
    11  C    0.002754
    12  C    0.160449
    13  C   -0.184818
    14  C   -0.136078
    15  C   -0.133989
    16  C   -0.192687
    17  C    0.091475
    18  C   -0.089702
    19  C   -0.040372
    20  C   -0.244640
    21  C    0.099211
    22  C   -0.025407
    23  C    0.077533
    24  C   -0.184248
    25  C   -0.141056
    26  C   -0.127494
    27  C   -0.206800
    28  C    0.120189
    29  C    0.083647
    30  C   -0.199615
    31  C   -0.133944
    32  C   -0.132451
    33  C   -0.201024
    34  C    0.102108
    35  C   -0.069199
    36  C   -0.439138
    37  C   -0.439144
    38  C    0.091473
    39  C   -0.192680
    40  C   -0.133987
    41  C   -0.136080
    42  C   -0.184823
    43  C    0.160427
    44  C    0.292370
    45  C   -0.177868
    46  C   -0.139438
    47  C   -0.132800
    48  C   -0.213824
    49  C    0.122862
    50  H    0.141841
    51  H    0.141823
    52  H    0.150419
    53  H    0.141824
    54  H    0.141841
    55  H    0.150422
    56  H    0.123005
    57  H    0.120888
    58  H    0.125065
    59  H    0.142730
    60  H    0.152942
    61  H    0.133846
    62  H    0.132583
    63  H    0.148995
    64  H    0.134198
    65  H    0.138404
    66  H    0.130217
    67  H    0.131465
    68  H    0.144135
    69  H    0.142620
    70  H    0.127944
    71  H    0.128089
    72  H    0.124497
    73  H    0.157716
    74  H    0.146042
    75  H    0.146878
    76  H    0.157716
    77  H    0.146041
    78  H    0.146879
    79  H    0.148996
    80  H    0.132583
    81  H    0.133846
    82  H    0.152945
    83  H    0.142169
    84  H    0.125206
    85  H    0.121011
    86  H    0.123050
 Sum of Mulliken charges =  -0.00000

 Dipole moment (field-independent basis, Debye):
    X=             -1.5209    Y=             -0.0122    Z=              0.2111  Tot=              1.5356
 Quadrupole moment (field-independent basis, Debye-Ang):
   XX=           -260.1032   YY=           -277.9132   ZZ=           -268.5266
   XY=             -0.0598   XZ=             -1.0585   YZ=             -1.2485

 Normal termination of Gaussian 16 at Sat Nov  5 11:34:54 2022.
