 Gaussian 16, Revision B.01,
 Gaussian 16:  ES64L-G16RevB.01 20-Dec-2017

 -------------------------------------------------------------------
 #p b3lyp/6-31g(d) 6D 10F nosymm GFInput td=(50-50,nstate=2) SCF=XQC
 -------------------------------------------------------------------

 ------------------------------
 Gaussian input prepared by ASE
 ------------------------------
 Symbolic Z-matrix:
 Charge =  0 Multiplicity = 1

                          Input orientation:
 ---------------------------------------------------------------------
 Center     Atomic      Atomic             Coordinates (Angstroms)
 Number     Number       Type             X           Y           Z
 ---------------------------------------------------------------------
      1          6           0       16.547288   -3.127357    1.065872
      2          6           0       15.211026   -2.507963    1.402108
      3          6           0       14.958790   -1.150154    1.151620
      4          6           0       13.731204   -0.569298    1.448584
      5          6           0       12.689361   -1.340142    1.995204
      6          7           0       11.440571   -0.745977    2.318502
      7          6           0       10.812252    0.167545    1.433412
      8          6           0        9.986416    1.183811    1.956798
      9          6           0        9.345863    2.087873    1.117138
     10          6           0        9.529704    2.000029   -0.266703
     11          6           0       10.355064    0.990191   -0.794348
     12          6           0       10.986480    0.076105    0.039974
     13          6           0       10.433606    1.060492   -2.322158
     14          6           0       11.868165    1.409081   -2.782061
     15          6           0        9.979671   -0.259523   -2.978539
     16          6           0        9.463854    2.211328   -2.622122
     17          6           0        9.005641    2.634107   -3.807586
     18          6           0        7.926245    3.713425   -3.884870
     19          6           0        6.604060    3.005282   -4.112804
     20          6           0        5.541341    2.994412   -3.291897
     21          6           0        4.269895    2.283584   -3.491500
     22          6           0        4.042231    1.384461   -4.555098
     23          6           0        2.821860    0.736647   -4.713903
     24          6           0        1.793283    0.976925   -3.796411
     25          6           0        2.002135    1.866059   -2.724044
     26          6           0        3.222275    2.507983   -2.573743
     27          6           0        0.750844    1.970657   -1.851244
     28          6           0        1.030156    1.494223   -0.408276
     29          6           0        0.196049    3.412498   -1.832692
     30          6           0       -0.198721    1.017014   -2.579343
     31          6           0       -1.503577    0.688453   -2.258011
     32          6           0       -2.226590   -0.224027   -3.061432
     33          6           0       -3.608059   -0.618944   -2.790089
     34          6           0       -4.406277   -0.173503   -1.794584
     35          6           0       -5.787767   -0.566618   -1.520230
     36          6           0       -6.484742   -1.539152   -2.271241
     37          6           0       -7.800087   -1.881792   -1.978898
     38          6           0       -8.454246   -1.252092   -0.914035
     39          6           0       -7.776485   -0.280615   -0.150196
     40          6           0       -6.465898    0.056015   -0.448088
     41          6           0       -8.679933    0.269651    0.954655
     42          6           0       -8.912198    1.788009    0.789500
     43          6           0       -8.100475   -0.026005    2.356095
     44          6           0       -9.964731   -0.523140    0.707866
     45          6           0      -11.165783   -0.448518    1.394813
     46          6           0      -12.243134   -1.272388    1.008898
     47          7           0      -13.467601   -1.201740    1.722056
     48          6           0      -14.708287   -1.460235    1.081489
     49          6           0      -15.708253   -2.206785    1.720310
     50          6           0      -16.938620   -2.420551    1.097493
     51          6           0      -17.211750   -1.923176   -0.180472
     52          6           0      -18.533181   -2.182449   -0.865182
     53          6           0      -16.202596   -1.179909   -0.812159
     54          6           0      -14.979106   -0.940486   -0.197159
     55          6           0      -13.426759   -1.099923    3.150208
     56          6           0      -12.688973   -2.041900    3.881854
     57          6           0      -12.620871   -1.971418    5.270780
     58          6           0      -13.304777   -0.958101    5.943886
     59          6           0      -14.036853   -0.020319    5.216469
     60          6           0      -14.108956   -0.059446    3.817779
     61          6           0      -14.885054    0.993487    3.065873
     62          6           0      -12.076353   -2.160542   -0.071529
     63          6           0      -10.872823   -2.220333   -0.770638
     64          6           0       -9.808544   -1.402672   -0.383492
     65          6           0       -1.576266   -0.780962   -4.183395
     66          6           0       -0.263299   -0.455324   -4.513426
     67          6           0        0.432251    0.449379   -3.708905
     68          6           0        7.976262    4.653398   -2.659359
     69          6           0        8.260163    3.945540   -1.355532
     70          6           0        8.997831    2.819436   -1.358455
     71          6           0       10.689052   -1.260332    3.424284
     72          6           0        9.438113   -1.848267    3.186998
     73          6           0        8.677443   -2.354267    4.237772
     74          6           0        9.171081   -2.286316    5.541282
     75          6           0       10.413957   -1.699783    5.777540
     76          6           0       11.192087   -1.169066    4.740373
     77          6           0       12.516624   -0.512419    5.041673
     78          6           0       12.929639   -2.698149    2.246532
     79          6           0       14.174463   -3.261150    1.961900
     80          1           0       17.379604   -2.502012    1.410541
     81          1           0       16.671048   -3.256120   -0.017834
     82          1           0       16.657120   -4.114262    1.527015
     83          1           0       15.747104   -0.528662    0.731387
     84          1           0       13.572026    0.488436    1.263828
     85          1           0        9.853327    1.253282    3.031584
     86          1           0        8.713419    2.861968    1.544674
     87          1           0       11.610376   -0.711983   -0.369856
     88          1           0       12.207704    2.349086   -2.334718
     89          1           0       11.906132    1.517392   -3.872300
     90          1           0       12.572426    0.619696   -2.493184
     91          1           0        8.962737   -0.522738   -2.670772
     92          1           0       10.647036   -1.083863   -2.700328
     93          1           0        9.993685   -0.173455   -4.071293
     94          1           0        9.304144    2.154132   -4.738256
     95          1           0        8.118486    4.326350   -4.778094
     96          1           0        6.568313    2.433189   -5.040501
     97          1           0        5.591019    3.570549   -2.369813
     98          1           0        4.838674    1.183385   -5.265365
     99          1           0        2.677948    0.048017   -5.542879
    100          1           0        3.387094    3.195447   -1.746026
    101          1           0        0.111914    1.511928    0.190335
    102          1           0        1.423888    0.472907   -0.399836
    103          1           0        1.762813    2.147288    0.080041
    104          1           0       -0.009425    3.768802   -2.847130
    105          1           0       -0.735909    3.461786   -1.257507
    106          1           0        0.914613    4.097831   -1.368188
    107          1           0       -1.975108    1.130063   -1.384080
    108          1           0       -4.007496   -1.351061   -3.490461
    109          1           0       -4.009707    0.567536   -1.101665
    110          1           0       -5.986077   -2.037252   -3.097262
    111          1           0       -8.308594   -2.634164   -2.576800
    112          1           0       -5.940571    0.806657    0.139832
    113          1           0       -7.970999    2.338263    0.904002
    114          1           0       -9.324276    2.018378   -0.198151
    115          1           0       -9.612187    2.157742    1.547841
    116          1           0       -7.147647    0.497000    2.498922
    117          1           0       -7.925049   -1.098027    2.491392
    118          1           0       -8.790257    0.309440    3.139215
    119          1           0      -11.293479    0.235460    2.228819
    120          1           0      -15.522668   -2.617692    2.707467
    121          1           0      -17.697346   -3.000325    1.618807
    122          1           0      -18.942799   -1.267755   -1.310384
    123          1           0      -18.429937   -2.915031   -1.676911
    124          1           0      -19.276325   -2.574552   -0.163263
    125          1           0      -16.384598   -0.763703   -1.801040
    126          1           0      -14.225395   -0.344322   -0.701833
    127          1           0      -12.169136   -2.829111    3.343854
    128          1           0      -12.045606   -2.709870    5.822630
    129          1           0      -13.263246   -0.892455    7.027713
    130          1           0      -14.555949    0.778606    5.741239
    131          1           0      -14.333649    1.341142    2.185877
    132          1           0      -15.089063    1.854810    3.709585
    133          1           0      -15.846277    0.608964    2.703134
    134          1           0      -12.898665   -2.807221   -0.358101
    135          1           0      -10.769603   -2.915303   -1.600348
    136          1           0       -2.123517   -1.484662   -4.806474
    137          1           0        0.205817   -0.903247   -5.385840
    138          1           0        7.047263    5.232848   -2.601176
    139          1           0        8.775453    5.394084   -2.830266
    140          1           0        7.939324    4.413650   -0.427051
    141          1           0        9.071132   -1.900665    2.166262
    142          1           0        7.710398   -2.807121    4.036599
    143          1           0        8.589825   -2.679780    6.370767
    144          1           0       10.790009   -1.632254    6.795946
    145          1           0       12.637920    0.416204    4.473983
    146          1           0       12.597397   -0.279598    6.108038
    147          1           0       13.361728   -1.158256    4.773095
    148          1           0       12.141286   -3.312927    2.668795
    149          1           0       14.333692   -4.316743    2.171519
 ---------------------------------------------------------------------

 SCF Done:  E(RB3LYP) =  -3085.90516350     A.U. after   15 cycles

 Excitation energies and oscillator strengths:

 Excited state symmetry could not be determined.
 Excited State   1:      Triplet-?Sym    1.9034 eV  651.37 nm  f=0.0000  <S**2>=2.000
     269 -> 274       -0.11322
     271 -> 274       -0.30428
     273 -> 274        0.57228
 This state for optimization and/or second-order correction.
 Total Energy, E(TD-HF/TD-DFT) =  -3085.83521320
 Copying the excited state density for this state as the 1-particle RhoCI density.

 Excited state symmetry could not be determined.
 Excited State   2:      Triplet-?Sym    2.1069 eV  588.48 nm  f=0.0000  <S**2>=2.000
     270 -> 275       -0.35619
     270 -> 276        0.10033
     272 -> 274        0.14429
     272 -> 275        0.50643
     272 -> 276       -0.16895

 Excited state symmetry could not be determined.
 Excited State   3:      Singlet-?Sym    2.7571 eV  449.69 nm  f=2.1194  <S**2>=0.000
     273 -> 274        0.69751

 Excited state symmetry could not be determined.
 Excited State   4:      Singlet-?Sym    2.9374 eV  422.09 nm  f=0.0095  <S**2>=0.000
     272 -> 274        0.69955

 Alpha  occ. eigenvalues --  -14.36009 -14.35933 -10.22709 -10.22634 -10.22419
 Alpha  occ. eigenvalues --  -10.22385 -10.22307 -10.22205 -10.20376 -10.20333
 Alpha  occ. eigenvalues --  -10.20074 -10.19722 -10.19709 -10.19599 -10.19423
 Alpha  occ. eigenvalues --  -10.19346 -10.19273 -10.18994 -10.18992 -10.18826
 Alpha  occ. eigenvalues --  -10.18752 -10.18744 -10.18725 -10.18702 -10.18696
 Alpha  occ. eigenvalues --  -10.18680 -10.18669 -10.18635 -10.18635 -10.18605
 Alpha  occ. eigenvalues --  -10.18595 -10.18593 -10.18589 -10.18567 -10.18548
 Alpha  occ. eigenvalues --  -10.18532 -10.18528 -10.18527 -10.18508 -10.18479
 Alpha  occ. eigenvalues --  -10.18472 -10.18452 -10.18446 -10.18438 -10.18437
 Alpha  occ. eigenvalues --  -10.18429 -10.18414 -10.18397 -10.18383 -10.18381
 Alpha  occ. eigenvalues --  -10.18352 -10.18352 -10.18352 -10.18349 -10.18316
 Alpha  occ. eigenvalues --  -10.18308 -10.18305 -10.18278 -10.18253 -10.18243
 Alpha  occ. eigenvalues --  -10.18228 -10.18218 -10.18152 -10.18145 -10.18118
 Alpha  occ. eigenvalues --  -10.18086 -10.18081 -10.18064 -10.18017 -10.17934
 Alpha  occ. eigenvalues --  -10.17831 -10.17789 -10.17743 -10.17709 -10.17673
 Alpha  occ. eigenvalues --  -10.17664 -10.17648 -10.17361 -10.17247  -0.95929
 Alpha  occ. eigenvalues --   -0.95859  -0.88346  -0.88266  -0.87563  -0.85387
 Alpha  occ. eigenvalues --   -0.85313  -0.84816  -0.84564  -0.84389  -0.83538
 Alpha  occ. eigenvalues --   -0.83029  -0.81672  -0.80833  -0.80479  -0.78881
 Alpha  occ. eigenvalues --   -0.78243  -0.77470  -0.76961  -0.76822  -0.76731
 Alpha  occ. eigenvalues --   -0.76516  -0.75812  -0.74692  -0.74222  -0.73866
 Alpha  occ. eigenvalues --   -0.73763  -0.73674  -0.73622  -0.73213  -0.72887
 Alpha  occ. eigenvalues --   -0.72765  -0.72593  -0.72283  -0.71410  -0.70079
 Alpha  occ. eigenvalues --   -0.68680  -0.68600  -0.68386  -0.68375  -0.68348
 Alpha  occ. eigenvalues --   -0.68052  -0.66881  -0.66595  -0.64470  -0.64076
 Alpha  occ. eigenvalues --   -0.63950  -0.63497  -0.62829  -0.61890  -0.61221
 Alpha  occ. eigenvalues --   -0.60397  -0.60075  -0.59947  -0.59797  -0.59259
 Alpha  occ. eigenvalues --   -0.58837  -0.58707  -0.58391  -0.57587  -0.57448
 Alpha  occ. eigenvalues --   -0.56882  -0.56704  -0.56493  -0.55762  -0.55342
 Alpha  occ. eigenvalues --   -0.54628  -0.53666  -0.52509  -0.52242  -0.51977
 Alpha  occ. eigenvalues --   -0.51111  -0.50798  -0.50572  -0.50482  -0.50147
 Alpha  occ. eigenvalues --   -0.49007  -0.48135  -0.47729  -0.47621  -0.47209
 Alpha  occ. eigenvalues --   -0.47023  -0.46966  -0.46706  -0.46144  -0.45839
 Alpha  occ. eigenvalues --   -0.45764  -0.45535  -0.45311  -0.44917  -0.44604
 Alpha  occ. eigenvalues --   -0.44442  -0.44335  -0.43974  -0.43726  -0.43623
 Alpha  occ. eigenvalues --   -0.43315  -0.43244  -0.43125  -0.43022  -0.42868
 Alpha  occ. eigenvalues --   -0.42728  -0.42662  -0.42618  -0.42474  -0.42352
 Alpha  occ. eigenvalues --   -0.42307  -0.42232  -0.42036  -0.41943  -0.41688
 Alpha  occ. eigenvalues --   -0.41650  -0.41593  -0.41533  -0.41503  -0.41255
 Alpha  occ. eigenvalues --   -0.41142  -0.41125  -0.40738  -0.40654  -0.40623
 Alpha  occ. eigenvalues --   -0.39894  -0.39010  -0.38861  -0.38839  -0.38658
 Alpha  occ. eigenvalues --   -0.38580  -0.38558  -0.38506  -0.38435  -0.38243
 Alpha  occ. eigenvalues --   -0.38151  -0.37846  -0.37659  -0.37330  -0.37273
 Alpha  occ. eigenvalues --   -0.37084  -0.36684  -0.36519  -0.36326  -0.36046
 Alpha  occ. eigenvalues --   -0.35956  -0.35856  -0.35579  -0.35420  -0.35269
 Alpha  occ. eigenvalues --   -0.35203  -0.34969  -0.34842  -0.34739  -0.34706
 Alpha  occ. eigenvalues --   -0.34586  -0.34448  -0.34172  -0.34123  -0.34083
 Alpha  occ. eigenvalues --   -0.34028  -0.33996  -0.33851  -0.33584  -0.33516
 Alpha  occ. eigenvalues --   -0.33323  -0.33311  -0.32908  -0.31667  -0.31585
 Alpha  occ. eigenvalues --   -0.31394  -0.31288  -0.31166  -0.30996  -0.30940
 Alpha  occ. eigenvalues --   -0.30026  -0.29818  -0.28581  -0.28240  -0.26418
 Alpha  occ. eigenvalues --   -0.25244  -0.25148  -0.24864  -0.24777  -0.24406
 Alpha  occ. eigenvalues --   -0.24322  -0.24271  -0.24191  -0.24008  -0.23961
 Alpha  occ. eigenvalues --   -0.23907  -0.23833  -0.23577  -0.21197  -0.20343
 Alpha  occ. eigenvalues --   -0.18778  -0.17456  -0.17063
 Alpha virt. eigenvalues --   -0.05769  -0.03768  -0.02489  -0.01137  -0.00944
 Alpha virt. eigenvalues --   -0.00788  -0.00697  -0.00516  -0.00151   0.00278
 Alpha virt. eigenvalues --    0.00525   0.00673   0.00844   0.01343   0.01440

 Mulliken charges:
               1
     1  C   -0.531042
     2  C    0.183409
     3  C   -0.191702
     4  C   -0.159260
     5  C    0.298275
     6  N   -0.659367
     7  C    0.306112
     8  C   -0.179473
     9  C   -0.200434
    10  C    0.087408
    11  C    0.091799
    12  C   -0.266736
    13  C   -0.051611
    14  C   -0.432505
    15  C   -0.438802
    16  C    0.153502
    17  C   -0.246405
    18  C   -0.157312
    19  C   -0.114336
    20  C   -0.167480
    21  C    0.186457
    22  C   -0.197260
    23  C   -0.192879
    24  C    0.080215
    25  C    0.107227
    26  C   -0.286321
    27  C   -0.060922
    28  C   -0.436760
    29  C   -0.436821
    30  C    0.106595
    31  C   -0.268035
    32  C    0.193039
    33  C   -0.200904
    34  C   -0.189169
    35  C    0.193846
    36  C   -0.195992
    37  C   -0.194795
    38  C    0.081193
    39  C    0.105218
    40  C   -0.288342
    41  C   -0.061835
    42  C   -0.437280
    43  C   -0.437259
    44  C    0.099880
    45  C   -0.259695
    46  C    0.306228
    47  N   -0.659019
    48  C    0.296841
    49  C   -0.178319
    50  C   -0.196076
    51  C    0.183370
    52  C   -0.531065
    53  C   -0.191429
    54  C   -0.159271
    55  C    0.180057
    56  C   -0.146662
    57  C   -0.147296
    58  C   -0.118230
    59  C   -0.204301
    60  C    0.176133
    61  C   -0.532258
    62  C   -0.190793
    63  C   -0.207011
    64  C    0.086596
    65  C   -0.214122
    66  C   -0.194692
    67  C    0.082650
    68  C   -0.317005
    69  C   -0.239916
    70  C    0.131852
    71  C    0.177997
    72  C   -0.146706
    73  C   -0.147058
    74  C   -0.118096
    75  C   -0.204029
    76  C    0.176417
    77  C   -0.532212
    78  C   -0.177801
    79  C   -0.196368
    80  H    0.157581
    81  H    0.162016
    82  H    0.154239
    83  H    0.122427
    84  H    0.142099
    85  H    0.139807
    86  H    0.129099
    87  H    0.141683
    88  H    0.150951
    89  H    0.141982
    90  H    0.143171
    91  H    0.156700
    92  H    0.142103
    93  H    0.140503
    94  H    0.118778
    95  H    0.136279
    96  H    0.122040
    97  H    0.125616
    98  H    0.124711
    99  H    0.127868
   100  H    0.120714
   101  H    0.143008
   102  H    0.158406
   103  H    0.144089
   104  H    0.157919
   105  H    0.142919
   106  H    0.143606
   107  H    0.124437
   108  H    0.124721
   109  H    0.123514
   110  H    0.126787
   111  H    0.127606
   112  H    0.119781
   113  H    0.143643
   114  H    0.156874
   115  H    0.144412
   116  H    0.143100
   117  H    0.156594
   118  H    0.147089
   119  H    0.137186
   120  H    0.143415
   121  H    0.122555
   122  H    0.157660
   123  H    0.162292
   124  H    0.154062
   125  H    0.122815
   126  H    0.142452
   127  H    0.142796
   128  H    0.131024
   129  H    0.127899
   130  H    0.124274
   131  H    0.166556
   132  H    0.149945
   133  H    0.176697
   134  H    0.143937
   135  H    0.129758
   136  H    0.124527
   137  H    0.128484
   138  H    0.143628
   139  H    0.150617
   140  H    0.120667
   141  H    0.143643
   142  H    0.131525
   143  H    0.127738
   144  H    0.123935
   145  H    0.166677
   146  H    0.149886
   147  H    0.176018
   148  H    0.143925
   149  H    0.122686
 Sum of Mulliken charges =  -0.00000

 Dipole moment (field-independent basis, Debye):
    X=              0.0787    Y=              0.0228    Z=              1.2457  Tot=              1.2483
 Quadrupole moment (field-independent basis, Debye-Ang):
   XX=           -393.2014   YY=           -449.1685   ZZ=           -434.6150
   XY=             -3.1698   XZ=             -9.2385   YZ=              6.7514

 Normal termination of Gaussian 16 at Sat Nov  5 11:36:03 2022.
