 Gaussian 16, Revision B.01,
 Gaussian 16:  ES64L-G16RevB.01 20-Dec-2017

 -----------------------------
 #p b3lyp/6-31g(d) opt SCF=XQC
 -----------------------------

 ------------------------------
 Gaussian input prepared by ASE
 ------------------------------
 Symbolic Z-matrix:
 Charge =  0 Multiplicity = 1

 SCF Done:  E(RB3LYP) =  -1825.19756020     A.U. after   16 cycles
 SCF Done:  E(RB3LYP) =  -1825.20618684     A.U. after   12 cycles
 SCF Done:  E(RB3LYP) =  -1825.20645658     A.U. after   12 cycles
 SCF Done:  E(RB3LYP) =  -1825.20654835     A.U. after   11 cycles
 SCF Done:  E(RB3LYP) =  -1825.20655937     A.U. after    9 cycles
 SCF Done:  E(RB3LYP) =  -1825.20656272     A.U. after    9 cycles
 SCF Done:  E(RB3LYP) =  -1825.20656296     A.U. after    7 cycles
 SCF Done:  E(RB3LYP) =  -1825.20656300     A.U. after    6 cycles
 Optimization completed.
    -- Stationary point found.

                         Standard orientation:
 ---------------------------------------------------------------------
 Center     Atomic      Atomic             Coordinates (Angstroms)
 Number     Number       Type             X           Y           Z
 ---------------------------------------------------------------------
      1          6           0        0.099547    7.562809   -0.813533
      2          6           0       -0.596634    6.985664    0.250331
      3          6           0       -0.623783    5.599905    0.405440
      4          6           0        0.033460    4.780622   -0.521103
      5          7           0        0.000076    3.367072   -0.372544
      6          6           0        1.114219    2.524990   -0.289491
      7          6           0        2.475382    2.841556   -0.297413
      8          6           0        3.387945    1.798891   -0.172635
      9          6           0        2.980255    0.450791   -0.037527
     10          6           0        3.982823   -0.651711    0.027505
     11          6           0        3.932121   -1.647495   -0.908931
     12          6           0        4.870880   -2.726743   -0.946617
     13          6           0        4.781393   -3.724400   -1.946125
     14          6           0        5.695077   -4.757574   -2.004023
     15          6           0        6.733920   -4.818271   -1.056172
     16          6           0        6.840205   -3.852877   -0.071047
     17          6           0        5.917556   -2.784025    0.017209
     18          6           0        5.979463   -1.751457    1.043694
     19          6           0        6.966862   -1.760974    2.056960
     20          6           0        7.000086   -0.800669    3.050393
     21          6           0        6.028011    0.213298    3.078126
     22          6           0        5.053528    0.256056    2.099816
     23          6           0        5.009305   -0.699931    1.055588
     24          6           0        1.612420    0.156755   -0.023797
     25          6           0        0.673806    1.186118   -0.144197
     26          6           0       -0.774715    1.220019   -0.142147
     27          6           0       -1.758638    0.232540   -0.043726
     28          6           0       -3.112724    0.587345   -0.087784
     29          6           0       -4.188875   -0.431910    0.080932
     30          6           0       -5.091157   -0.277338    1.097431
     31          6           0       -6.133883   -1.220838    1.361092
     32          6           0       -7.031909   -1.020234    2.436183
     33          6           0       -8.027461   -1.935815    2.712032
     34          6           0       -8.149831   -3.088596    1.913565
     35          6           0       -7.282084   -3.304543    0.858083
     36          6           0       -6.254075   -2.383407    0.547647
     37          6           0       -5.324645   -2.559625   -0.560769
     38          6           0       -5.404253   -3.669193   -1.435040
     39          6           0       -4.544604   -3.814670   -2.507350
     40          6           0       -3.566596   -2.837968   -2.759057
     41          6           0       -3.456546   -1.745492   -1.920722
     42          6           0       -4.307065   -1.582425   -0.799811
     43          6           0       -3.456286    1.950189   -0.238177
     44          6           0       -2.496871    2.953559   -0.339549
     45          6           0       -1.152581    2.579612   -0.281075
     46          6           0        0.723790    5.357710   -1.594447
     47          6           0        0.762584    6.745174   -1.730808
     48          1           0        0.125160    8.642843   -0.927078
     49          1           0       -1.110149    7.615190    0.971827
     50          1           0       -1.141202    5.146771    1.245302
     51          1           0        2.816288    3.866448   -0.399922
     52          1           0        4.449994    2.025109   -0.194914
     53          1           0        3.169223   -1.609968   -1.682806
     54          1           0        3.975139   -3.661034   -2.673273
     55          1           0        5.615439   -5.518307   -2.775784
     56          1           0        7.458291   -5.627305   -1.096759
     57          1           0        7.653157   -3.929525    0.642700
     58          1           0        7.717489   -2.543515    2.068015
     59          1           0        7.771788   -0.839489    3.814546
     60          1           0        6.036645    0.958119    3.869341
     61          1           0        4.295036    1.029920    2.132730
     62          1           0        1.286800   -0.872802    0.097453
     63          1           0       -1.476437   -0.809188    0.081267
     64          1           0       -5.001385    0.579131    1.761405
     65          1           0       -6.921198   -0.126733    3.046306
     66          1           0       -8.711258   -1.770563    3.540163
     67          1           0       -8.929452   -3.815142    2.126195
     68          1           0       -7.403763   -4.203734    0.264089
     69          1           0       -6.162133   -4.427514   -1.272427
     70          1           0       -4.635190   -4.678954   -3.159852
     71          1           0       -2.902322   -2.936185   -3.613434
     72          1           0       -2.711536   -0.985411   -2.126270
     73          1           0       -4.507823    2.217447   -0.290390
     74          1           0       -2.790115    3.989990   -0.469989
     75          1           0        1.214968    4.716213   -2.319486
     76          1           0        1.301469    7.186163   -2.564875
 ---------------------------------------------------------------------

 The electronic state is 1-A.
 Alpha  occ. eigenvalues --  -14.38596 -10.24299 -10.22726 -10.22722 -10.20433
 Alpha  occ. eigenvalues --  -10.20427 -10.20357 -10.20353 -10.20181 -10.19743
 Alpha  occ. eigenvalues --  -10.19740 -10.19644 -10.19637 -10.19613 -10.19608
 Alpha  occ. eigenvalues --  -10.19598 -10.19587 -10.19318 -10.19313 -10.19308
 Alpha  occ. eigenvalues --  -10.19303 -10.19176 -10.19130 -10.19125 -10.19078
 Alpha  occ. eigenvalues --  -10.19017 -10.18987 -10.18977 -10.18929 -10.18756
 Alpha  occ. eigenvalues --  -10.18756 -10.18715 -10.18712 -10.18675 -10.18675
 Alpha  occ. eigenvalues --  -10.18675 -10.18665 -10.18637 -10.18632 -10.18592
 Alpha  occ. eigenvalues --  -10.18581 -10.18544 -10.18532 -10.18405 -10.18401
 Alpha  occ. eigenvalues --  -10.18299 -10.18283  -0.99312  -0.87883  -0.87783
 Alpha  occ. eigenvalues --   -0.87270  -0.85154  -0.84774  -0.84074  -0.84051
 Alpha  occ. eigenvalues --   -0.81056  -0.80679  -0.78591  -0.77331  -0.76938
 Alpha  occ. eigenvalues --   -0.76117  -0.75800  -0.75653  -0.75061  -0.74260
 Alpha  occ. eigenvalues --   -0.72909  -0.72170  -0.71753  -0.71739  -0.70553
 Alpha  occ. eigenvalues --   -0.69969  -0.65251  -0.63453  -0.62618  -0.62558
 Alpha  occ. eigenvalues --   -0.62273  -0.61947  -0.61459  -0.60799  -0.60339
 Alpha  occ. eigenvalues --   -0.58612  -0.58036  -0.57780  -0.57451  -0.57054
 Alpha  occ. eigenvalues --   -0.54154  -0.53202  -0.52548  -0.52487  -0.52341
 Alpha  occ. eigenvalues --   -0.51492  -0.50750  -0.49514  -0.48501  -0.47769
 Alpha  occ. eigenvalues --   -0.47403  -0.47360  -0.47173  -0.47119  -0.46499
 Alpha  occ. eigenvalues --   -0.45252  -0.44842  -0.44239  -0.43612  -0.43425
 Alpha  occ. eigenvalues --   -0.43317  -0.43103  -0.43001  -0.42728  -0.42243
 Alpha  occ. eigenvalues --   -0.42187  -0.41803  -0.41710  -0.41646  -0.41535
 Alpha  occ. eigenvalues --   -0.41270  -0.41020  -0.39475  -0.39302  -0.39223
 Alpha  occ. eigenvalues --   -0.39138  -0.37947  -0.37870  -0.37173  -0.37029
 Alpha  occ. eigenvalues --   -0.36081  -0.35891  -0.35762  -0.35635  -0.35576
 Alpha  occ. eigenvalues --   -0.35306  -0.35243  -0.35055  -0.34575  -0.33922
 Alpha  occ. eigenvalues --   -0.33054  -0.32609  -0.32168  -0.31676  -0.31616
 Alpha  occ. eigenvalues --   -0.30731  -0.30459  -0.28099  -0.27836  -0.27746
 Alpha  occ. eigenvalues --   -0.26455  -0.26327  -0.25892  -0.25634  -0.24986
 Alpha  occ. eigenvalues --   -0.21960  -0.21908  -0.21760  -0.21364  -0.20236
 Alpha  occ. eigenvalues --   -0.19153
 Alpha virt. eigenvalues --   -0.03762  -0.03611  -0.03201  -0.02797  -0.02583
 Alpha virt. eigenvalues --   -0.01876  -0.01505  -0.00063   0.00845   0.01551
 Alpha virt. eigenvalues --    0.02937   0.03663   0.04272   0.04504   0.08333

 Mulliken charges:
               1
     1  C   -0.120875
     2  C   -0.142626
     3  C   -0.149040
     4  C    0.262676
     5  N   -0.738465
     6  C    0.317274
     7  C   -0.178785
     8  C   -0.185435
     9  C    0.049336
    10  C    0.035835
    11  C   -0.265155
    12  C    0.151657
    13  C   -0.204992
    14  C   -0.130355
    15  C   -0.138024
    16  C   -0.191719
    17  C    0.068564
    18  C    0.049051
    19  C   -0.190219
    20  C   -0.135970
    21  C   -0.128322
    22  C   -0.219936
    23  C    0.101005
    24  C   -0.248032
    25  C    0.065521
    26  C    0.066823
    27  C   -0.253119
    28  C    0.050514
    29  C    0.036149
    30  C   -0.266989
    31  C    0.152000
    32  C   -0.205065
    33  C   -0.130383
    34  C   -0.138069
    35  C   -0.191669
    36  C    0.068439
    37  C    0.049171
    38  C   -0.190133
    39  C   -0.135853
    40  C   -0.128407
    41  C   -0.219309
    42  C    0.101631
    43  C   -0.182245
    44  C   -0.179779
    45  C    0.318183
    46  C   -0.149198
    47  C   -0.142608
    48  H    0.136644
    49  H    0.139676
    50  H    0.152637
    51  H    0.142630
    52  H    0.140134
    53  H    0.132047
    54  H    0.129496
    55  H    0.128974
    56  H    0.128108
    57  H    0.132931
    58  H    0.132158
    59  H    0.127963
    60  H    0.128362
    61  H    0.147353
    62  H    0.138749
    63  H    0.144010
    64  H    0.131319
    65  H    0.128937
    66  H    0.128821
    67  H    0.128101
    68  H    0.133047
    69  H    0.132184
    70  H    0.128017
    71  H    0.128226
    72  H    0.147054
    73  H    0.134067
    74  H    0.142377
    75  H    0.152947
    76  H    0.139975
 Sum of Mulliken charges =  -0.00000

 Dipole moment (field-independent basis, Debye):
    X=              0.1234    Y=              2.4045    Z=             -0.2568  Tot=              2.4214
 Quadrupole moment (field-independent basis, Debye-Ang):
   XX=           -254.8873   YY=           -228.1547   ZZ=           -257.1211
   XY=             -0.0580   XZ=             -3.6863   YZ=              6.3622

 1\1\GINC-NODE68\FOpt\RB3LYP\6-31G(d)\C46H29N1\WYKGROUP\05-Nov-2022\0\\
 #p b3lyp/6-31g(d) opt SCF=XQC\\Gaussian input prepared by ASE\\0,1\C,0
 .1271600563,-7.5336434541,-1.1282914265\C,0.7940923817,-6.9823880726,-
 0.0324400479\C,0.7806569316,-5.6040584243,0.1800416982\C,0.1119891134,
 -4.7652631353,-0.7205041117\N,0.1040888186,-3.3587327832,-0.5133368252
 \C,-1.0340578502,-2.5516867541,-0.4103170784\C,-2.385653921,-2.9048361
 185,-0.4492363832\C,-3.3284186795,-1.8936671208,-0.2935984898\C,-2.960
 1963527,-0.541687861,-0.0976349211\C,-3.993875627,0.5292632278,-0.0004

 Normal termination of Gaussian 16 at Sat Nov  5 00:50:39 2022.
