 Gaussian 16, Revision B.01,
 Gaussian 16:  ES64L-G16RevB.01 20-Dec-2017

 -------------------------------------------------------------------
 #p b3lyp/6-31g(d) 6D 10F nosymm GFInput td=(50-50,nstate=2) SCF=XQC
 -------------------------------------------------------------------

 ------------------------------
 Gaussian input prepared by ASE
 ------------------------------
 Symbolic Z-matrix:
 Charge =  0 Multiplicity = 1

                          Input orientation:
 ---------------------------------------------------------------------
 Center     Atomic      Atomic             Coordinates (Angstroms)
 Number     Number       Type             X           Y           Z
 ---------------------------------------------------------------------
      1          6           0        0.127160   -7.533643   -1.128291
      2          6           0        0.794092   -6.982388   -0.032440
      3          6           0        0.780657   -5.604058    0.180042
      4          6           0        0.111989   -4.765263   -0.720504
      5          7           0        0.104089   -3.358733   -0.513337
      6          6           0       -1.034058   -2.551687   -0.410317
      7          6           0       -2.385654   -2.904836   -0.449236
      8          6           0       -3.328419   -1.893667   -0.293598
      9          6           0       -2.960196   -0.541688   -0.097635
     10          6           0       -3.993876    0.529263   -0.000406
     11          6           0       -3.959737    1.564154   -0.894220
     12          6           0       -4.927751    2.617900   -0.899731
     13          6           0       -4.854138    3.658349   -1.855969
     14          6           0       -5.795559    4.667607   -1.883243
     15          6           0       -6.847027    4.660329   -0.947474
     16          6           0       -6.938159    3.652241   -0.004496
     17          6           0       -5.987145    2.606333    0.051754
     18          6           0       -6.032541    1.530650    1.033868
     19          6           0       -7.031947    1.470944    2.033557
     20          6           0       -7.050293    0.469596    2.986008
     21          6           0       -6.050681   -0.517624    2.984707
     22          6           0       -5.063678   -0.492925    2.018400
     23          6           0       -5.033606    0.506524    1.015167
     24          6           0       -1.601371   -0.211099   -0.053755
     25          6           0       -0.632992   -1.208451   -0.204126
     26          6           0        0.815781   -1.202694   -0.184378
     27          6           0        1.770484   -0.193570   -0.032344
     28          6           0        3.134383   -0.508989   -0.073142
     29          6           0        4.179538    0.531477    0.151647
     30          6           0        5.073483    0.359541    1.172713
     31          6           0        6.086201    1.319481    1.488792
     32          6           0        6.976472    1.099016    2.566441
     33          6           0        7.942671    2.029272    2.892923
     34          6           0        8.042399    3.217190    2.144370
     35          6           0        7.181728    3.452991    1.087345
     36          6           0        6.183659    2.517738    0.725650
     37          6           0        5.263079    2.714371   -0.386712
     38          6           0        5.322185    3.861111   -1.213345
     39          6           0        4.471779    4.027453   -2.289983
     40          6           0        3.524533    3.035630   -2.594636
     41          6           0        3.434955    1.906621   -1.803602
     42          6           0        4.276142    1.720439   -0.679254
     43          6           0        3.517661   -1.854470   -0.275080
     44          6           0        2.587935   -2.878671   -0.430395
     45          6           0        1.233118   -2.544465   -0.374274
     46          6           0       -0.548982   -5.315906   -1.825746
     47          6           0       -0.547365   -6.697038   -2.019723
     48          1           0        0.133091   -8.608315   -1.286618
     49          1           0        1.316267   -7.627071    0.669183
     50          1           0        1.275070   -5.172242    1.044629
     51          1           0       -2.696543   -3.933535   -0.598419
     52          1           0       -4.383390   -2.147786   -0.339191
     53          1           0       -3.186828    1.579774   -1.658859
     54          1           0       -4.037734    3.647407   -2.574419
     55          1           0       -5.727915    5.461682   -2.621851
     56          1           0       -7.593171    5.450193   -0.964203
     57          1           0       -7.761467    3.676822    0.701025
     58          1           0       -7.804215    2.231481    2.066983
     59          1           0       -7.831921    0.455430    3.740871
     60          1           0       -6.048033   -1.294670    3.744344
     61          1           0       -4.284319   -1.246410    2.029363
     62          1           0       -1.306117    0.821061    0.114142
     63          1           0        1.457813    0.833931    0.131780
     64          1           0        4.999681   -0.525945    1.799552
     65          1           0        6.883423    0.178211    3.137677
     66          1           0        8.620798    1.848517    3.722477
     67          1           0        8.798807    3.955356    2.397049
     68          1           0        7.285386    4.379110    0.532603
     69          1           0        6.056577    4.632498   -1.009612
     70          1           0        4.546039    4.920289   -2.905028
     71          1           0        2.868108    3.151059   -3.452918
     72          1           0        2.713993    1.135615   -2.050132
     73          1           0        4.576805   -2.090403   -0.324403
     74          1           0        2.911560   -3.900353   -0.599597
     75          1           0       -1.049122   -4.658508   -2.530121
     76          1           0       -1.063643   -7.117554   -2.878302
 ---------------------------------------------------------------------

 SCF Done:  E(RB3LYP) =  -1825.20656166     A.U. after   16 cycles

 Excitation energies and oscillator strengths:

 Excited state symmetry could not be determined.
 Excited State   1:      Triplet-?Sym    2.6494 eV  467.97 nm  f=0.0000  <S**2>=2.000
     152 ->160         0.16571
     152 ->161        -0.14398
     154 ->157        -0.25959
     154 ->158        -0.14978
     155 ->157        -0.12898
     155 ->158        -0.32988
     156 ->157         0.36575
     156 ->158         0.13316
 This state for optimization and/or second-order correction.
 Total Energy, E(TD-HF/TD-DFT) =  -1825.10919696
 Copying the excited state density for this state as the 1-particle RhoCI density.

 Excited state symmetry could not be determined.
 Excited State   2:      Triplet-?Sym    2.6613 eV  465.88 nm  f=0.0000  <S**2>=2.000
     151 ->160         0.12606
     151 ->161         0.12209
     152 ->160        -0.11351
     153 ->157         0.12680
     153 ->158        -0.10792
     153 ->161        -0.10628
     154 ->158         0.19710
     155 ->157         0.38489
     155 ->158        -0.18805
     156 ->157         0.10629
     156 ->158        -0.32433

 Excited state symmetry could not be determined.
 Excited State   3:      Singlet-?Sym    3.7413 eV  331.40 nm  f=0.3110  <S**2>=0.000
     156 ->157         0.67161
     156 ->159        -0.12250

 Excited state symmetry could not be determined.
 Excited State   4:      Singlet-?Sym    3.7616 eV  329.60 nm  f=0.0020  <S**2>=0.000
     156 ->157         0.13632
     156 ->158         0.37874
     156 ->159         0.51498

 Alpha  occ. eigenvalues --  -14.38596 -10.24299 -10.22726 -10.22722 -10.20433
 Alpha  occ. eigenvalues --  -10.20427 -10.20357 -10.20353 -10.20181 -10.19743
 Alpha  occ. eigenvalues --  -10.19740 -10.19644 -10.19637 -10.19613 -10.19608
 Alpha  occ. eigenvalues --  -10.19598 -10.19586 -10.19318 -10.19313 -10.19308
 Alpha  occ. eigenvalues --  -10.19302 -10.19176 -10.19130 -10.19125 -10.19078
 Alpha  occ. eigenvalues --  -10.19017 -10.18987 -10.18977 -10.18929 -10.18756
 Alpha  occ. eigenvalues --  -10.18756 -10.18715 -10.18712 -10.18675 -10.18675
 Alpha  occ. eigenvalues --  -10.18675 -10.18665 -10.18637 -10.18632 -10.18592
 Alpha  occ. eigenvalues --  -10.18581 -10.18544 -10.18533 -10.18405 -10.18401
 Alpha  occ. eigenvalues --  -10.18299 -10.18283  -0.99312  -0.87883  -0.87783
 Alpha  occ. eigenvalues --   -0.87270  -0.85154  -0.84774  -0.84074  -0.84050
 Alpha  occ. eigenvalues --   -0.81056  -0.80679  -0.78591  -0.77331  -0.76938
 Alpha  occ. eigenvalues --   -0.76117  -0.75800  -0.75653  -0.75061  -0.74260
 Alpha  occ. eigenvalues --   -0.72909  -0.72170  -0.71753  -0.71739  -0.70553
 Alpha  occ. eigenvalues --   -0.69969  -0.65251  -0.63453  -0.62618  -0.62558
 Alpha  occ. eigenvalues --   -0.62273  -0.61947  -0.61459  -0.60799  -0.60339
 Alpha  occ. eigenvalues --   -0.58612  -0.58036  -0.57780  -0.57451  -0.57054
 Alpha  occ. eigenvalues --   -0.54154  -0.53202  -0.52548  -0.52487  -0.52341
 Alpha  occ. eigenvalues --   -0.51492  -0.50750  -0.49514  -0.48501  -0.47769
 Alpha  occ. eigenvalues --   -0.47403  -0.47360  -0.47173  -0.47119  -0.46499
 Alpha  occ. eigenvalues --   -0.45252  -0.44842  -0.44239  -0.43612  -0.43425
 Alpha  occ. eigenvalues --   -0.43317  -0.43103  -0.43001  -0.42728  -0.42243
 Alpha  occ. eigenvalues --   -0.42187  -0.41803  -0.41710  -0.41646  -0.41535
 Alpha  occ. eigenvalues --   -0.41270  -0.41020  -0.39475  -0.39302  -0.39223
 Alpha  occ. eigenvalues --   -0.39138  -0.37947  -0.37870  -0.37173  -0.37029
 Alpha  occ. eigenvalues --   -0.36082  -0.35891  -0.35762  -0.35635  -0.35576
 Alpha  occ. eigenvalues --   -0.35306  -0.35243  -0.35055  -0.34575  -0.33922
 Alpha  occ. eigenvalues --   -0.33054  -0.32609  -0.32168  -0.31676  -0.31616
 Alpha  occ. eigenvalues --   -0.30731  -0.30459  -0.28099  -0.27836  -0.27746
 Alpha  occ. eigenvalues --   -0.26455  -0.26327  -0.25892  -0.25634  -0.24986
 Alpha  occ. eigenvalues --   -0.21960  -0.21908  -0.21760  -0.21364  -0.20236
 Alpha  occ. eigenvalues --   -0.19153
 Alpha virt. eigenvalues --   -0.03762  -0.03611  -0.03201  -0.02797  -0.02583
 Alpha virt. eigenvalues --   -0.01876  -0.01505  -0.00063   0.00845   0.01551
 Alpha virt. eigenvalues --    0.02937   0.03663   0.04272   0.04504   0.08333

 Mulliken charges:
               1
     1  C   -0.120870
     2  C   -0.142625
     3  C   -0.149046
     4  C    0.262683
     5  N   -0.738473
     6  C    0.317297
     7  C   -0.178797
     8  C   -0.185433
     9  C    0.049325
    10  C    0.035865
    11  C   -0.265182
    12  C    0.151686
    13  C   -0.204987
    14  C   -0.130353
    15  C   -0.138015
    16  C   -0.191728
    17  C    0.068539
    18  C    0.049050
    19  C   -0.190224
    20  C   -0.135964
    21  C   -0.128318
    22  C   -0.219935
    23  C    0.101001
    24  C   -0.248025
    25  C    0.065509
    26  C    0.066826
    27  C   -0.253131
    28  C    0.050534
    29  C    0.036139
    30  C   -0.266978
    31  C    0.151980
    32  C   -0.205067
    33  C   -0.130381
    34  C   -0.138073
    35  C   -0.191670
    36  C    0.068457
    37  C    0.049166
    38  C   -0.190126
    39  C   -0.135856
    40  C   -0.128412
    41  C   -0.219310
    42  C    0.101637
    43  C   -0.182254
    44  C   -0.179784
    45  C    0.318194
    46  C   -0.149207
    47  C   -0.142608
    48  H    0.136644
    49  H    0.139676
    50  H    0.152636
    51  H    0.142630
    52  H    0.140135
    53  H    0.132048
    54  H    0.129495
    55  H    0.128971
    56  H    0.128106
    57  H    0.132931
    58  H    0.132159
    59  H    0.127962
    60  H    0.128360
    61  H    0.147351
    62  H    0.138749
    63  H    0.144012
    64  H    0.131319
    65  H    0.128937
    66  H    0.128821
    67  H    0.128102
    68  H    0.133047
    69  H    0.132184
    70  H    0.128018
    71  H    0.128227
    72  H    0.147053
    73  H    0.134067
    74  H    0.142379
    75  H    0.152948
    76  H    0.139976
 Sum of Mulliken charges =  -0.00000

 Dipole moment (field-independent basis, Debye):
    X=             -0.0531    Y=             -2.3943    Z=             -0.3573  Tot=              2.4214
 Quadrupole moment (field-independent basis, Debye-Ang):
   XX=           -254.9573   YY=           -227.6535   ZZ=           -257.4972
   XY=             -0.9030   XZ=              3.8530   YZ=             -5.0356

 Normal termination of Gaussian 16 at Sat Nov  5 10:35:43 2022.
