 Gaussian 16, Revision B.01,
 Gaussian 16:  ES64L-G16RevB.01 20-Dec-2017

 -----------------------------
 #p b3lyp/6-31g(d) opt SCF=XQC
 -----------------------------

 ------------------------------
 Gaussian input prepared by ASE
 ------------------------------
 Symbolic Z-matrix:
 Charge =  0 Multiplicity = 1

 SCF Done:  E(RB3LYP) =  -1977.61710850     A.U. after   16 cycles
 SCF Done:  E(RB3LYP) =  -1977.62757939     A.U. after   13 cycles
 SCF Done:  E(RB3LYP) =  -1977.62805241     A.U. after   12 cycles
 SCF Done:  E(RB3LYP) =  -1977.62816511     A.U. after   12 cycles
 SCF Done:  E(RB3LYP) =  -1977.62820268     A.U. after   10 cycles
 SCF Done:  E(RB3LYP) =  -1977.62822106     A.U. after   10 cycles
 SCF Done:  E(RB3LYP) =  -1977.62823179     A.U. after   10 cycles
 SCF Done:  E(RB3LYP) =  -1977.62823795     A.U. after   10 cycles
 SCF Done:  E(RB3LYP) =  -1977.62824362     A.U. after   10 cycles
 SCF Done:  E(RB3LYP) =  -1977.62824480     A.U. after    9 cycles
 SCF Done:  E(RB3LYP) =  -1977.62824489     A.U. after    7 cycles
 SCF Done:  E(RB3LYP) =  -1977.62824492     A.U. after    6 cycles
 SCF Done:  E(RB3LYP) =  -1977.62824494     A.U. after    6 cycles
 Optimization completed.
    -- Stationary point found.

                         Standard orientation:
 ---------------------------------------------------------------------
 Center     Atomic      Atomic             Coordinates (Angstroms)
 Number     Number       Type             X           Y           Z
 ---------------------------------------------------------------------
      1          6           0        7.381565    1.310252   -0.187041
      2          6           0        7.183829    0.966330   -1.667439
      3          6           0        6.647071   -0.464423   -1.972913
      4          6           0        7.676747   -1.508067   -1.497436
      5          6           0        6.513470   -0.610986   -3.508739
      6          6           0        5.264427   -0.669876   -1.325274
      7          6           0        4.199114    0.196492   -1.668519
      8          6           0        2.920197    0.075724   -1.134924
      9          6           0        2.689525   -0.949809   -0.215006
     10          6           0        3.722508   -1.845850    0.138509
     11          6           0        5.000619   -1.695667   -0.414791
     12          6           0        3.152208   -2.803631    1.063438
     13          6           0        3.675289   -3.900105    1.758070
     14          6           0        2.844847   -4.624199    2.608502
     15          6           0        1.499346   -4.256514    2.775107
     16          6           0        0.953846   -3.169048    2.095313
     17          6           0        1.788296   -2.454054    1.232337
     18          7           0        1.511306   -1.320532    0.452815
     19          6           0        0.262669   -0.660420    0.356233
     20          6           0        0.192511    0.726901    0.532212
     21          6           0       -1.035106    1.388262    0.410922
     22          7           0       -1.104342    2.788595    0.616229
     23          6           0       -1.678440    3.721149   -0.260339
     24          6           0       -2.270370    3.522163   -1.510225
     25          6           0       -2.745879    4.641919   -2.189954
     26          6           0       -2.631867    5.932133   -1.645962
     27          6           0       -2.029349    6.125821   -0.406404
     28          6           0       -1.543667    5.017640    0.296838
     29          6           0       -0.865097    4.863221    1.566741
     30          6           0       -0.474712    5.763293    2.564909
     31          6           0        0.153085    5.277813    3.708090
     32          6           0        0.385100    3.900999    3.864675
     33          6           0        0.007196    2.983977    2.885757
     34          6           0       -0.608108    3.479314    1.732872
     35          6           0       -2.197628    0.662538    0.124370
     36          6           0       -2.119904   -0.721193   -0.060784
     37          7           0       -3.296519   -1.458717   -0.362343
     38          6           0       -3.864393   -2.455984    0.439040
     39          6           0       -3.458178   -2.925267    1.690402
     40          6           0       -4.223359   -3.925531    2.286712
     41          6           0       -5.368892   -4.443208    1.658276
     42          6           0       -5.776625   -3.959961    0.418186
     43          6           0       -5.026159   -2.954827   -0.203029
     44          6           0       -5.164231   -2.226428   -1.447553
     45          6           0       -6.086682   -2.274054   -2.499315
     46          6           0       -5.916171   -1.426890   -3.590570
     47          6           0       -4.828245   -0.538786   -3.644014
     48          6           0       -3.895864   -0.470722   -2.610767
     49          6           0       -4.081581   -1.312875   -1.511983
     50          6           0       -0.894721   -1.385963    0.047794
     51          1           0        6.449079    1.198377    0.376508
     52          1           0        7.716248    2.348196   -0.077926
     53          1           0        8.137103    0.673145    0.285710
     54          1           0        6.501146    1.701478   -2.112767
     55          1           0        8.138664    1.085297   -2.198941
     56          1           0        8.646474   -1.310252   -1.968658
     57          1           0        7.826048   -1.489063   -0.413281
     58          1           0        7.375676   -2.523730   -1.778237
     59          1           0        5.828074    0.131010   -3.931932
     60          1           0        7.488778   -0.476921   -3.992939
     61          1           0        6.135338   -1.604514   -3.774989
     62          1           0        4.373930    0.995631   -2.382820
     63          1           0        2.132397    0.757237   -1.437974
     64          1           0        5.779186   -2.394352   -0.128853
     65          1           0        4.718780   -4.178940    1.637074
     66          1           0        3.239086   -5.478506    3.151239
     67          1           0        0.867047   -4.828901    3.448249
     68          1           0       -0.084816   -2.891546    2.238572
     69          1           0        1.089419    1.289281    0.763509
     70          1           0       -2.357931    2.531935   -1.944051
     71          1           0       -3.213316    4.510004   -3.161883
     72          1           0       -3.014656    6.784191   -2.200248
     73          1           0       -1.932808    7.125093    0.009944
     74          1           0       -0.665269    6.827064    2.449554
     75          1           0        0.462155    5.966520    4.489079
     76          1           0        0.867129    3.538584    4.768456
     77          1           0        0.181190    1.922238    3.023769
     78          1           0       -3.157848    1.163144    0.074210
     79          1           0       -2.584936   -2.516687    2.188809
     80          1           0       -3.927689   -4.308579    3.259604
     81          1           0       -5.943032   -5.223783    2.149058
     82          1           0       -6.669219   -4.354138   -0.060551
     83          1           0       -6.922725   -2.967719   -2.465465
     84          1           0       -6.626403   -1.454566   -4.411914
     85          1           0       -4.706926    0.107026   -4.509393
     86          1           0       -3.048074    0.204626   -2.665714
     87          1           0       -0.839843   -2.452899   -0.135679
 ---------------------------------------------------------------------

 The electronic state is 1-A.
 Alpha  occ. eigenvalues --  -14.39041 -14.38987 -14.38713 -10.25684 -10.25679
 Alpha  occ. eigenvalues --  -10.25493 -10.22996 -10.22962 -10.22905 -10.22831
 Alpha  occ. eigenvalues --  -10.22829 -10.22666 -10.21289 -10.21285 -10.21282
 Alpha  occ. eigenvalues --  -10.20003 -10.19362 -10.19288 -10.19267 -10.19261
 Alpha  occ. eigenvalues --  -10.19250 -10.19248 -10.19230 -10.19203 -10.19172
 Alpha  occ. eigenvalues --  -10.19171 -10.19170 -10.19158 -10.19145 -10.19129
 Alpha  occ. eigenvalues --  -10.19103 -10.19098 -10.19091 -10.19079 -10.19079
 Alpha  occ. eigenvalues --  -10.19078 -10.19069 -10.18970 -10.18878 -10.18718
 Alpha  occ. eigenvalues --  -10.18659 -10.18568 -10.18522 -10.18490 -10.18435
 Alpha  occ. eigenvalues --  -10.18433 -10.17849 -10.17220 -10.17162 -10.16831
 Alpha  occ. eigenvalues --   -0.99920  -0.99482  -0.99415  -0.89004  -0.85885
 Alpha  occ. eigenvalues --   -0.85661  -0.85028  -0.84718  -0.84611  -0.83666
 Alpha  occ. eigenvalues --   -0.81630  -0.79631  -0.79196  -0.77609  -0.76274
 Alpha  occ. eigenvalues --   -0.76237  -0.75259  -0.75167  -0.74901  -0.73238
 Alpha  occ. eigenvalues --   -0.72642  -0.72131  -0.71979  -0.71810  -0.71725
 Alpha  occ. eigenvalues --   -0.71503  -0.68279  -0.65946  -0.65910  -0.64886
 Alpha  occ. eigenvalues --   -0.62734  -0.62553  -0.62189  -0.60890  -0.60794
 Alpha  occ. eigenvalues --   -0.60590  -0.60493  -0.58016  -0.57874  -0.57729
 Alpha  occ. eigenvalues --   -0.57415  -0.57240  -0.54896  -0.54448  -0.52566
 Alpha  occ. eigenvalues --   -0.52301  -0.52019  -0.51866  -0.51503  -0.51193
 Alpha  occ. eigenvalues --   -0.49939  -0.49858  -0.49416  -0.48536  -0.46850
 Alpha  occ. eigenvalues --   -0.46061  -0.45817  -0.45726  -0.45655  -0.45539
 Alpha  occ. eigenvalues --   -0.44716  -0.44573  -0.44255  -0.44111  -0.43825
 Alpha  occ. eigenvalues --   -0.43500  -0.43431  -0.43093  -0.42998  -0.42941
 Alpha  occ. eigenvalues --   -0.42348  -0.42312  -0.42242  -0.41846  -0.41751
 Alpha  occ. eigenvalues --   -0.41674  -0.41550  -0.40811  -0.40159  -0.39839
 Alpha  occ. eigenvalues --   -0.39177  -0.38754  -0.37924  -0.37688  -0.36859
 Alpha  occ. eigenvalues --   -0.36832  -0.36798  -0.36588  -0.36531  -0.35783
 Alpha  occ. eigenvalues --   -0.35513  -0.35425  -0.35325  -0.34969  -0.34437
 Alpha  occ. eigenvalues --   -0.34390  -0.34228  -0.34104  -0.33927  -0.33832
 Alpha  occ. eigenvalues --   -0.33511  -0.32912  -0.32487  -0.31677  -0.31466
 Alpha  occ. eigenvalues --   -0.30720  -0.28325  -0.28152  -0.27970  -0.27338
 Alpha  occ. eigenvalues --   -0.27236  -0.25471  -0.25359  -0.25070  -0.21626
 Alpha  occ. eigenvalues --   -0.21523  -0.21394  -0.20661  -0.20280  -0.19987
 Alpha virt. eigenvalues --   -0.03527  -0.03477  -0.03038  -0.02961  -0.02896
 Alpha virt. eigenvalues --    0.00313   0.00406   0.00484   0.02164   0.03047
 Alpha virt. eigenvalues --    0.03222   0.03818   0.04062   0.04196   0.07744

 Mulliken charges:
               1
     1  C   -0.451513
     2  C   -0.246370
     3  C    0.016213
     4  C   -0.463527
     5  C   -0.442277
     6  C    0.170437
     7  C   -0.203053
     8  C   -0.175916
     9  C    0.314837
    10  C    0.069493
    11  C   -0.279090
    12  C    0.063583
    13  C   -0.198336
    14  C   -0.143310
    15  C   -0.145928
    16  C   -0.172893
    17  C    0.305206
    18  N   -0.756315
    19  C    0.284987
    20  C   -0.199378
    21  C    0.280420
    22  N   -0.749948
    23  C    0.307621
    24  C   -0.172800
    25  C   -0.145511
    26  C   -0.143307
    27  C   -0.196715
    28  C    0.062243
    29  C    0.059310
    30  C   -0.196250
    31  C   -0.143621
    32  C   -0.141121
    33  C   -0.175487
    34  C    0.312707
    35  C   -0.184438
    36  C    0.251374
    37  N   -0.739473
    38  C    0.312181
    39  C   -0.178500
    40  C   -0.142848
    41  C   -0.144041
    42  C   -0.196004
    43  C    0.061321
    44  C    0.061545
    45  C   -0.196069
    46  C   -0.144017
    47  C   -0.143089
    48  C   -0.177926
    49  C    0.311867
    50  C   -0.185513
    51  H    0.155880
    52  H    0.141049
    53  H    0.143129
    54  H    0.129395
    55  H    0.126971
    56  H    0.140590
    57  H    0.149460
    58  H    0.145092
    59  H    0.140933
    60  H    0.137435
    61  H    0.146659
    62  H    0.127572
    63  H    0.140865
    64  H    0.128616
    65  H    0.131901
    66  H    0.126484
    67  H    0.128722
    68  H    0.143130
    69  H    0.175869
    70  H    0.143734
    71  H    0.129154
    72  H    0.127009
    73  H    0.132132
    74  H    0.132004
    75  H    0.127022
    76  H    0.130683
    77  H    0.141989
    78  H    0.173722
    79  H    0.143244
    80  H    0.127899
    81  H    0.126240
    82  H    0.131738
    83  H    0.131726
    84  H    0.126210
    85  H    0.127751
    86  H    0.143078
    87  H    0.174154
 Sum of Mulliken charges =  -0.00000

 Dipole moment (field-independent basis, Debye):
    X=              0.5947    Y=              0.2251    Z=             -0.1152  Tot=              0.6463
 Quadrupole moment (field-independent basis, Debye-Ang):
   XX=           -279.2276   YY=           -277.5609   ZZ=           -278.1993
   XY=              1.5505   XZ=              4.1695   YZ=             -8.2029

 1\1\GINC-NODE92\FOpt\RB3LYP\6-31G(d)\C47H37N3\WYKGROUP\05-Nov-2022\0\\
 #p b3lyp/6-31g(d) opt SCF=XQC\\Gaussian input prepared by ASE\\0,1\C,6
 .4634947376,-2.7399932811,0.4781788667\C,6.4344903566,-1.9567567123,1.
 7952437836\C,6.2370733402,-0.4158667969,1.6721056267\C,7.4360348888,0.
 1937058679,0.9194998853\C,6.2315680788,0.1845935196,3.099519325\C,4.89
 40992637,-0.0986519727,0.9871640405\C,3.6904411027,-0.5722430924,1.561
 8120708\C,2.4373149541,-0.3249588968,1.010936035\C,2.3768401171,0.4233
 764516,-0.1669916389\C,3.5547326232,0.9289629135,-0.76017509\C,4.80195

 Normal termination of Gaussian 16 at Sat Nov  5 01:19:52 2022.
