 Gaussian 16, Revision B.01,
 Gaussian 16:  ES64L-G16RevB.01 20-Dec-2017

 -------------------------------------------------------------------
 #p b3lyp/6-31g(d) 6D 10F nosymm GFInput td=(50-50,nstate=2) SCF=XQC
 -------------------------------------------------------------------

 ------------------------------
 Gaussian input prepared by ASE
 ------------------------------
 Symbolic Z-matrix:
 Charge =  0 Multiplicity = 1

                          Input orientation:
 ---------------------------------------------------------------------
 Center     Atomic      Atomic             Coordinates (Angstroms)
 Number     Number       Type             X           Y           Z
 ---------------------------------------------------------------------
      1          6           0        6.463495   -2.739993    0.478179
      2          6           0        6.434490   -1.956757    1.795244
      3          6           0        6.237073   -0.415867    1.672106
      4          6           0        7.436035    0.193706    0.919500
      5          6           0        6.231568    0.184594    3.099519
      6          6           0        4.894099   -0.098652    0.987164
      7          6           0        3.690441   -0.572243    1.561812
      8          6           0        2.437315   -0.324959    1.010936
      9          6           0        2.376840    0.423376   -0.166992
     10          6           0        3.554733    0.928963   -0.760175
     11          6           0        4.801953    0.659983   -0.181940
     12          6           0        3.148342    1.688456   -1.924691
     13          6           0        3.851524    2.398437   -2.904408
     14          6           0        3.145890    3.019006   -3.931129
     15          6           0        1.745247    2.929132   -3.989801
     16          6           0        1.021244    2.228365   -3.026983
     17          6           0        1.733501    1.618935   -1.990866
     18          7           0        1.267401    0.843463   -0.918185
     19          6           0       -0.085640    0.533514   -0.640013
     20          6           0       -0.462643   -0.794846   -0.407898
     21          6           0       -1.793963   -1.103670   -0.105626
     22          7           0       -2.174642   -2.452661    0.102175
     23          6           0       -2.881306   -2.946928    1.208495
     24          6           0       -3.339685   -2.276077    2.345174
     25          6           0       -4.002399   -3.022604    3.317542
     26          6           0       -4.201368   -4.405439    3.170027
     27          6           0       -3.730903   -5.070791    2.041748
     28          6           0       -3.062186   -4.343975    1.050255
     29          6           0       -2.444674   -4.710107   -0.207355
     30          6           0       -2.318033   -5.918945   -0.901288
     31          6           0       -1.671223   -5.929081   -2.133447
     32          6           0       -1.158894   -4.740598   -2.680249
     33          6           0       -1.270897   -3.524170   -2.009592
     34          6           0       -1.907057   -3.523275   -0.765244
     35          6           0       -2.753916   -0.086252   -0.045680
     36          6           0       -2.369752    1.239664   -0.267943
     37          7           0       -3.339998    2.275477   -0.197096
     38          6           0       -3.728043    3.106171   -1.254736
     39          6           0       -3.307273    3.099802   -2.586674
     40          6           0       -3.874554    4.035258   -3.449651
     41          6           0       -4.841867    4.951381   -3.002224
     42          6           0       -5.267800    4.941877   -1.677049
     43          6           0       -4.714396    4.012197   -0.788881
     44          6           0       -4.929846    3.715062    0.612461
     45          6           0       -5.754944    4.262477    1.601874
     46          6           0       -5.704405    3.742382    2.892046
     47          6           0       -4.831394    2.686175    3.204210
     48          6           0       -3.999881    2.122707    2.238468
     49          6           0       -4.066776    2.639393    0.942474
     50          6           0       -1.039301    1.555803   -0.559040
     51          1           0        5.544334   -2.586769   -0.097408
     52          1           0        6.560211   -3.813847    0.674982
     53          1           0        7.308093   -2.447758   -0.155452
     54          1           0        5.638189   -2.364463    2.431244
     55          1           0        7.371966   -2.130638    2.342290
     56          1           0        8.367435   -0.074090    1.431682
     57          1           0        7.511662   -0.163643   -0.112308
     58          1           0        7.377722    1.287778    0.893631
     59          1           0        5.429809   -0.235149    3.716297
     60          1           0        7.182887   -0.021306    3.605727
     61          1           0        6.092501    1.271099    3.065806
     62          1           0        3.732602   -1.154994    2.477254
     63          1           0        1.541428   -0.699369    1.494808
     64          1           0        5.693566    1.057309   -0.654428
     65          1           0        4.935924    2.459921   -2.864942
     66          1           0        3.680697    3.574723   -4.695975
     67          1           0        1.210944    3.414044   -4.802162
     68          1           0       -0.059514    2.160757   -3.088128
     69          1           0        0.276829   -1.584995   -0.463215
     70          1           0       -3.186043   -1.210142    2.474011
     71          1           0       -4.370705   -2.520636    4.208005
     72          1           0       -4.723829   -4.958348    3.945327
     73          1           0       -3.876673   -6.142230    1.932292
     74          1           0       -2.725227   -6.836275   -0.484244
     75          1           0       -1.565269   -6.861224   -2.680868
     76          1           0       -0.666068   -4.765385   -3.648249
     77          1           0       -0.881661   -2.611441   -2.447806
     78          1           0       -3.794380   -0.324860    0.143124
     79          1           0       -2.574060    2.382954   -2.942240
     80          1           0       -3.563152    4.051777   -4.490527
     81          1           0       -5.263696    5.669065   -3.699927
     82          1           0       -6.024164    5.644048   -1.336230
     83          1           0       -6.422992    5.086616    1.365666
     84          1           0       -6.340911    4.158732    3.667491
     85          1           0       -4.799280    2.301090    4.219764
     86          1           0       -3.315169    1.318998    2.489628
     87          1           0       -0.745540    2.590788   -0.691467
 ---------------------------------------------------------------------

 SCF Done:  E(RB3LYP) =  -1977.62824243     A.U. after   16 cycles

 Excitation energies and oscillator strengths:

 Excited state symmetry could not be determined.
 Excited State   1:      Triplet-?Sym    3.1527 eV  393.26 nm  f=0.0000  <S**2>=2.000
     159 ->182         0.10782
     164 ->174        -0.11971
     164 ->175         0.10221
     167 ->172        -0.14415
     167 ->174         0.42548
     167 ->175        -0.37882
     169 ->178         0.12479
     170 ->178        -0.18088
 This state for optimization and/or second-order correction.
 Total Energy, E(TD-HF/TD-DFT) =  -1977.51238197
 Copying the excited state density for this state as the 1-particle RhoCI density.

 Excited state symmetry could not be determined.
 Excited State   2:      Triplet-?Sym    3.2014 eV  387.28 nm  f=0.0000  <S**2>=2.000
     160 ->171        -0.21846
     161 ->172        -0.21572
     169 ->171         0.21936
     169 ->172         0.33914
     170 ->171         0.33708
     170 ->172        -0.25115

 Excited state symmetry could not be determined.
 Excited State   3:      Singlet-?Sym    3.8397 eV  322.90 nm  f=0.0205  <S**2>=0.000
     169 ->171        -0.29615
     169 ->172         0.25793
     170 ->171         0.29765
     170 ->172         0.50213

 Excited state symmetry could not be determined.
 Excited State   4:      Singlet-?Sym    4.0060 eV  309.50 nm  f=0.1666  <S**2>=0.000
     168 ->171         0.63788
     169 ->171        -0.23818
     170 ->171        -0.17237

 Alpha  occ. eigenvalues --  -14.39041 -14.38987 -14.38713 -10.25684 -10.25679
 Alpha  occ. eigenvalues --  -10.25493 -10.22996 -10.22961 -10.22905 -10.22831
 Alpha  occ. eigenvalues --  -10.22830 -10.22666 -10.21289 -10.21285 -10.21282
 Alpha  occ. eigenvalues --  -10.20003 -10.19362 -10.19288 -10.19267 -10.19261
 Alpha  occ. eigenvalues --  -10.19250 -10.19248 -10.19230 -10.19203 -10.19172
 Alpha  occ. eigenvalues --  -10.19171 -10.19170 -10.19158 -10.19145 -10.19129
 Alpha  occ. eigenvalues --  -10.19103 -10.19098 -10.19091 -10.19079 -10.19079
 Alpha  occ. eigenvalues --  -10.19078 -10.19069 -10.18970 -10.18878 -10.18719
 Alpha  occ. eigenvalues --  -10.18659 -10.18568 -10.18522 -10.18490 -10.18435
 Alpha  occ. eigenvalues --  -10.18433 -10.17849 -10.17220 -10.17162 -10.16831
 Alpha  occ. eigenvalues --   -0.99920  -0.99482  -0.99415  -0.89004  -0.85885
 Alpha  occ. eigenvalues --   -0.85661  -0.85028  -0.84718  -0.84611  -0.83666
 Alpha  occ. eigenvalues --   -0.81630  -0.79631  -0.79196  -0.77609  -0.76274
 Alpha  occ. eigenvalues --   -0.76237  -0.75259  -0.75167  -0.74901  -0.73238
 Alpha  occ. eigenvalues --   -0.72642  -0.72131  -0.71979  -0.71810  -0.71725
 Alpha  occ. eigenvalues --   -0.71503  -0.68279  -0.65946  -0.65910  -0.64886
 Alpha  occ. eigenvalues --   -0.62734  -0.62553  -0.62189  -0.60890  -0.60794
 Alpha  occ. eigenvalues --   -0.60590  -0.60493  -0.58016  -0.57874  -0.57729
 Alpha  occ. eigenvalues --   -0.57415  -0.57240  -0.54896  -0.54448  -0.52566
 Alpha  occ. eigenvalues --   -0.52301  -0.52019  -0.51866  -0.51503  -0.51193
 Alpha  occ. eigenvalues --   -0.49939  -0.49858  -0.49416  -0.48536  -0.46850
 Alpha  occ. eigenvalues --   -0.46061  -0.45817  -0.45726  -0.45655  -0.45539
 Alpha  occ. eigenvalues --   -0.44716  -0.44573  -0.44255  -0.44111  -0.43825
 Alpha  occ. eigenvalues --   -0.43500  -0.43431  -0.43093  -0.42998  -0.42941
 Alpha  occ. eigenvalues --   -0.42348  -0.42312  -0.42242  -0.41846  -0.41751
 Alpha  occ. eigenvalues --   -0.41674  -0.41550  -0.40811  -0.40159  -0.39839
 Alpha  occ. eigenvalues --   -0.39177  -0.38754  -0.37924  -0.37688  -0.36859
 Alpha  occ. eigenvalues --   -0.36832  -0.36798  -0.36588  -0.36531  -0.35783
 Alpha  occ. eigenvalues --   -0.35513  -0.35425  -0.35325  -0.34969  -0.34437
 Alpha  occ. eigenvalues --   -0.34390  -0.34228  -0.34104  -0.33927  -0.33832
 Alpha  occ. eigenvalues --   -0.33511  -0.32912  -0.32487  -0.31677  -0.31466
 Alpha  occ. eigenvalues --   -0.30720  -0.28325  -0.28152  -0.27970  -0.27338
 Alpha  occ. eigenvalues --   -0.27236  -0.25471  -0.25359  -0.25070  -0.21626
 Alpha  occ. eigenvalues --   -0.21523  -0.21394  -0.20661  -0.20280  -0.19987
 Alpha virt. eigenvalues --   -0.03527  -0.03477  -0.03038  -0.02961  -0.02896
 Alpha virt. eigenvalues --    0.00313   0.00406   0.00484   0.02164   0.03047
 Alpha virt. eigenvalues --    0.03222   0.03818   0.04062   0.04196   0.07744

 Mulliken charges:
               1
     1  C   -0.451519
     2  C   -0.246355
     3  C    0.016208
     4  C   -0.463533
     5  C   -0.442276
     6  C    0.170423
     7  C   -0.203056
     8  C   -0.175905
     9  C    0.314797
    10  C    0.069515
    11  C   -0.279074
    12  C    0.063587
    13  C   -0.198336
    14  C   -0.143313
    15  C   -0.145925
    16  C   -0.172891
    17  C    0.305194
    18  N   -0.756306
    19  C    0.284978
    20  C   -0.199368
    21  C    0.280401
    22  N   -0.749947
    23  C    0.307626
    24  C   -0.172810
    25  C   -0.145509
    26  C   -0.143305
    27  C   -0.196720
    28  C    0.062243
    29  C    0.059312
    30  C   -0.196254
    31  C   -0.143616
    32  C   -0.141122
    33  C   -0.175491
    34  C    0.312715
    35  C   -0.184415
    36  C    0.251331
    37  N   -0.739468
    38  C    0.312161
    39  C   -0.178493
    40  C   -0.142845
    41  C   -0.144048
    42  C   -0.196006
    43  C    0.061340
    44  C    0.061534
    45  C   -0.196058
    46  C   -0.144021
    47  C   -0.143093
    48  C   -0.177915
    49  C    0.311871
    50  C   -0.185480
    51  H    0.155879
    52  H    0.141049
    53  H    0.143129
    54  H    0.129394
    55  H    0.126970
    56  H    0.140592
    57  H    0.149462
    58  H    0.145091
    59  H    0.140932
    60  H    0.137435
    61  H    0.146659
    62  H    0.127575
    63  H    0.140863
    64  H    0.128615
    65  H    0.131900
    66  H    0.126484
    67  H    0.128721
    68  H    0.143131
    69  H    0.175871
    70  H    0.143737
    71  H    0.129155
    72  H    0.127009
    73  H    0.132132
    74  H    0.132003
    75  H    0.127022
    76  H    0.130682
    77  H    0.141990
    78  H    0.173723
    79  H    0.143241
    80  H    0.127899
    81  H    0.126241
    82  H    0.131738
    83  H    0.131726
    84  H    0.126210
    85  H    0.127752
    86  H    0.143076
    87  H    0.174153
 Sum of Mulliken charges =  -0.00000

 Dipole moment (field-independent basis, Debye):
    X=              0.5384    Y=             -0.3102    Z=              0.1778  Tot=              0.6463
 Quadrupole moment (field-independent basis, Debye-Ang):
   XX=           -281.0011   YY=           -280.8956   ZZ=           -273.6752
   XY=             -2.8537   XZ=             -5.1836   YZ=             -6.0003

 Normal termination of Gaussian 16 at Sat Nov  5 10:34:59 2022.
