 Gaussian 16, Revision B.01,
 Gaussian 16:  ES64L-G16RevB.01 20-Dec-2017

 -----------------------------
 #p b3lyp/6-31g(d) opt SCF=XQC
 -----------------------------

 ------------------------------
 Gaussian input prepared by ASE
 ------------------------------
 Symbolic Z-matrix:
 Charge =  0 Multiplicity = 1

 SCF Done:  E(RB3LYP) =  -3570.87936352     A.U. after   16 cycles
 SCF Done:  E(RB3LYP) =  -3570.89898021     A.U. after   12 cycles
 SCF Done:  E(RB3LYP) =  -3570.89977677     A.U. after   12 cycles
 SCF Done:  E(RB3LYP) =  -3570.90012208     A.U. after   12 cycles
 SCF Done:  E(RB3LYP) =  -3570.90019189     A.U. after   11 cycles
 SCF Done:  E(RB3LYP) =  -3570.90023270     A.U. after   12 cycles
 SCF Done:  E(RB3LYP) =  -3570.90023586     A.U. after    9 cycles
 SCF Done:  E(RB3LYP) =  -3570.90023669     A.U. after    9 cycles
 SCF Done:  E(RB3LYP) =  -3570.90023705     A.U. after    9 cycles
 SCF Done:  E(RB3LYP) =  -3570.90023747     A.U. after    9 cycles
 SCF Done:  E(RB3LYP) =  -3570.90023780     A.U. after    9 cycles
 SCF Done:  E(RB3LYP) =  -3570.90023792     A.U. after    7 cycles
 SCF Done:  E(RB3LYP) =  -3570.90023799     A.U. after    7 cycles
 SCF Done:  E(RB3LYP) =  -3570.90023803     A.U. after    7 cycles
 SCF Done:  E(RB3LYP) =  -3570.90023806     A.U. after    7 cycles
 SCF Done:  E(RB3LYP) =  -3570.90023807     A.U. after    6 cycles
 Optimization completed on the basis of negligible forces.
    -- Stationary point found.

                         Standard orientation:
 ---------------------------------------------------------------------
 Center     Atomic      Atomic             Coordinates (Angstroms)
 Number     Number       Type             X           Y           Z
 ---------------------------------------------------------------------
      1          6           0        9.118845   -7.082258   -2.468380
      2          6           0        9.629658   -6.290027   -1.438484
      3          6           0        8.956410   -5.137236   -1.037385
      4          6           0        7.758342   -4.744809   -1.659704
      5          6           0        7.041859   -3.517615   -1.234673
      6          6           0        5.638722   -3.452333   -1.216366
      7          6           0        4.976984   -2.302628   -0.814520
      8          6           0        5.689393   -1.155328   -0.409091
      9          6           0        7.096534   -1.196403   -0.419058
     10          6           0        7.733120   -2.370663   -0.830683
     11          6           0        7.967270    0.001133    0.000082
     12          6           0        8.853310    0.418947   -1.185921
     13          6           0        8.272180    0.847305   -2.389135
     14          6           0        9.043594    1.232564   -3.479451
     15          6           0       10.439741    1.196266   -3.385811
     16          6           0       11.042192    0.776701   -2.207399
     17          6           0       10.248711    0.392006   -1.119582
     18          8           0       10.942803   -0.006670   -0.002489
     19          6           0       10.248570   -0.397987    1.117108
     20          6           0       11.041900   -0.784283    2.204474
     21          6           0       10.439295   -1.197229    3.385143
     22          6           0        9.043145   -1.225143    3.481559
     23          6           0        8.271883   -0.838350    2.391681
     24          6           0        8.853166   -0.416701    1.186173
     25          6           0        7.095978    1.198255    0.418933
     26          6           0        7.732056    2.372441    0.831587
     27          6           0        7.040296    3.519213    1.235213
     28          6           0        7.756224    4.746319    1.661428
     29          6           0        7.254991    5.553299    2.697740
     30          6           0        7.924841    6.708698    3.097187
     31          6           0        9.115683    7.083583    2.472384
     32          6           0        9.627638    6.291777    1.442729
     33          6           0        8.954906    5.139076    1.040503
     34          6           0        5.637173    3.453834    1.215372
     35          6           0        4.975934    2.304223    0.812464
     36          6           0        5.688854    1.157060    0.407475
     37          7           0        4.999739    0.000933   -0.001415
     38          6           0        3.564322    0.000606   -0.001392
     39          6           0        2.858623    0.392189   -1.142943
     40          6           0        1.465610    0.391881   -1.140935
     41          6           0        0.742505    0.000092   -0.001369
     42          6           0       -0.742505   -0.000139   -0.001338
     43          6           0       -1.465725    0.391411    1.138244
     44          6           0       -2.858730    0.391269    1.140277
     45          6           0       -3.564322   -0.000545   -0.001268
     46          7           0       -4.999739   -0.000761   -0.001249
     47          6           0       -5.688941   -1.156898    0.407483
     48          6           0       -4.976101   -2.304110    0.812456
     49          6           0       -5.637418   -3.453726    1.215231
     50          6           0       -7.040543   -3.519047    1.234948
     51          6           0       -7.756560   -4.746152    1.661018
     52          6           0       -8.955214   -5.138808    1.039974
     53          6           0       -9.628028   -6.291508    1.442063
     54          6           0       -9.116186   -7.083416    2.471696
     55          6           0       -7.925374   -6.708631    3.096617
     56          6           0       -7.255442   -5.553232    2.697308
     57          6           0       -7.732226   -2.372219    0.831341
     58          6           0       -7.096069   -1.198033    0.418818
     59          6           0       -7.967271   -0.000795    0.000027
     60          6           0       -8.853449   -0.418603   -1.185872
     61          6           0       -8.272450   -0.845202   -2.389775
     62          6           0       -9.043985   -1.230849   -3.479867
     63          6           0      -10.440124   -1.196734   -3.385297
     64          6           0      -11.042447   -0.778903   -2.206204
     65          6           0      -10.248845   -0.393801   -1.118617
     66          8           0      -10.942816    0.002951   -0.000766
     67          6           0      -10.248445    0.396180    1.118077
     68          6           0      -11.041653    0.782059    2.205680
     69          6           0      -10.438907    1.196722    3.385675
     70          6           0       -9.042739    1.226814    3.481163
     71          6           0       -8.271599    0.840422    2.391055
     72          6           0       -8.853027    0.417034    1.186227
     73          6           0       -7.096444    1.196628   -0.419164
     74          6           0       -7.732951    2.370888   -0.830920
     75          6           0       -7.041613    3.517786   -1.234925
     76          6           0       -7.758007    4.744981   -1.660103
     77          6           0       -7.257809    5.552283   -2.696665
     78          6           0       -7.928090    6.707773   -3.095125
     79          6           0       -9.118342    7.082429   -2.469062
     80          6           0       -9.629272    6.290298   -1.439147
     81          6           0       -8.956106    5.137507   -1.037908
     82          6           0       -5.638477    3.452448   -1.216487
     83          6           0       -4.976817    2.302747   -0.814511
     84          6           0       -5.689306    1.155492   -0.409075
     85          6           0       -2.858674   -0.392152   -1.142845
     86          6           0       -1.465663   -0.391896   -1.140883
     87          6           0        1.465777   -0.391459    1.138180
     88          6           0        2.858781   -0.391265    1.140168
     89          6           0        7.258264   -5.552210   -2.696247
     90          6           0        7.928627   -6.707700   -3.094567
     91          1           0        9.642791   -7.981924   -2.779762
     92          1           0       10.551137   -6.575192   -0.937334
     93          1           0        9.349095   -4.545564   -0.215100
     94          1           0        5.053424   -4.324116   -1.494727
     95          1           0        3.893998   -2.294100   -0.801765
     96          1           0        8.818913   -2.377162   -0.857546
     97          1           0        7.188211    0.874970   -2.459827
     98          1           0        8.562841    1.558826   -4.397056
     99          1           0       11.055747    1.493830   -4.229792
    100          1           0       12.121516    0.735203   -2.099583
    101          1           0       12.121238   -0.749149    2.094551
    102          1           0       11.055189   -1.496029    4.228769
    103          1           0        8.562278   -1.546115    4.400968
    104          1           0        7.187909   -0.859425    2.464546
    105          1           0        8.817823    2.378915    0.859547
    106          1           0        6.344992    5.256664    3.212213
    107          1           0        7.520327    7.311863    3.906067
    108          1           0        9.639229    7.983177    2.784647
    109          1           0       10.549614    6.577206    0.942646
    110          1           0        9.348489    4.547750    0.218399
    111          1           0        5.051522    4.325497    1.493373
    112          1           0        3.892964    2.295640    0.798526
    113          1           0        3.408356    0.705191   -2.025627
    114          1           0        0.932056    0.724761   -2.026457
    115          1           0       -0.932262    0.724456    2.023759
    116          1           0       -3.408537    0.704097    2.022978
    117          1           0       -3.893130   -2.295567    0.798612
    118          1           0       -5.051825   -4.325430    1.493222
    119          1           0       -9.348711   -4.547400    0.217888
    120          1           0      -10.549980   -6.576857    0.941890
    121          1           0       -9.639796   -7.983009    2.783852
    122          1           0       -7.520949   -7.311874    3.905483
    123          1           0       -6.345469   -5.256675    3.211872
    124          1           0       -8.817994   -2.378676    0.859225
    125          1           0       -7.188486   -0.871150   -2.461192
    126          1           0       -8.563333   -1.555725   -4.398017
    127          1           0      -11.056225   -1.494611   -4.229099
    128          1           0      -12.121763   -0.739060   -2.097681
    129          1           0      -12.121008    0.745271    2.096464
    130          1           0      -11.054705    1.495199    4.229486
    131          1           0       -8.561760    1.549158    4.400034
    132          1           0       -7.187612    0.863209    2.463195
    133          1           0       -8.818742    2.377403   -0.857863
    134          1           0       -6.348299    5.255833   -3.212107
    135          1           0       -7.524383    7.311189   -3.904221
    136          1           0       -9.642224    7.982094   -2.780554
    137          1           0      -10.550778    6.575542   -0.938092
    138          1           0       -9.348880    4.545916   -0.215608
    139          1           0       -5.053122    4.324192   -1.494853
    140          1           0       -3.893833    2.294181   -0.801658
    141          1           0       -3.408447   -0.705125   -2.025515
    142          1           0       -0.932150   -0.724784   -2.026426
    143          1           0        0.932355   -0.724536    2.023707
    144          1           0        3.408628   -0.704089    2.022846
    145          1           0        6.348783   -5.255837   -3.211785
    146          1           0        7.525012   -7.311194   -3.903651
 ---------------------------------------------------------------------

 The electronic state is 1-A.
 Alpha  occ. eigenvalues --  -19.19450 -19.19450 -14.37806 -14.37806 -10.24976
 Alpha  occ. eigenvalues --  -10.24976 -10.24976 -10.24975 -10.24285 -10.24285
 Alpha  occ. eigenvalues --  -10.23626 -10.23626 -10.23625 -10.23624 -10.22611
 Alpha  occ. eigenvalues --  -10.22611 -10.22170 -10.22141 -10.21147 -10.21147
 Alpha  occ. eigenvalues --  -10.21146 -10.21146 -10.21062 -10.21062 -10.21062
 Alpha  occ. eigenvalues --  -10.21062 -10.19746 -10.19746 -10.19746 -10.19746
 Alpha  occ. eigenvalues --  -10.19634 -10.19634 -10.19633 -10.19633 -10.19388
 Alpha  occ. eigenvalues --  -10.19387 -10.19387 -10.19386 -10.19136 -10.19136
 Alpha  occ. eigenvalues --  -10.19135 -10.19135 -10.19022 -10.19021 -10.19020
 Alpha  occ. eigenvalues --  -10.19019 -10.18984 -10.18984 -10.18984 -10.18984
 Alpha  occ. eigenvalues --  -10.18849 -10.18849 -10.18847 -10.18847 -10.18810
 Alpha  occ. eigenvalues --  -10.18810 -10.18810 -10.18809 -10.18723 -10.18723
 Alpha  occ. eigenvalues --  -10.18722 -10.18721 -10.18599 -10.18599 -10.18598
 Alpha  occ. eigenvalues --  -10.18597 -10.18556 -10.18556 -10.18555 -10.18555
 Alpha  occ. eigenvalues --  -10.18542 -10.18542 -10.18541 -10.18541 -10.18510
 Alpha  occ. eigenvalues --  -10.18509 -10.18509 -10.18508 -10.18418 -10.18418
 Alpha  occ. eigenvalues --  -10.18417 -10.18417 -10.18387 -10.18387 -10.18386
 Alpha  occ. eigenvalues --  -10.18385 -10.18304 -10.18303 -10.18302 -10.18302
 Alpha  occ. eigenvalues --   -1.08694  -1.08694  -0.98001  -0.97996  -0.88849
 Alpha  occ. eigenvalues --   -0.87854  -0.87161  -0.86429  -0.86429  -0.85973
 Alpha  occ. eigenvalues --   -0.85973  -0.85928  -0.85482  -0.85464  -0.84279
 Alpha  occ. eigenvalues --   -0.84279  -0.83715  -0.83442  -0.80979  -0.80944
 Alpha  occ. eigenvalues --   -0.79416  -0.77763  -0.77763  -0.77097  -0.76456
 Alpha  occ. eigenvalues --   -0.76404  -0.76404  -0.76382  -0.75614  -0.74793
 Alpha  occ. eigenvalues --   -0.74793  -0.74766  -0.74529  -0.74529  -0.74315
 Alpha  occ. eigenvalues --   -0.73883  -0.73731  -0.73713  -0.73713  -0.73254
 Alpha  occ. eigenvalues --   -0.72520  -0.72439  -0.72219  -0.72219  -0.70635
 Alpha  occ. eigenvalues --   -0.69909  -0.66975  -0.66565  -0.65412  -0.64301
 Alpha  occ. eigenvalues --   -0.63802  -0.63712  -0.63711  -0.63631  -0.63631
 Alpha  occ. eigenvalues --   -0.62839  -0.61850  -0.61777  -0.61017  -0.61017
 Alpha  occ. eigenvalues --   -0.60251  -0.60192  -0.60054  -0.59466  -0.59465
 Alpha  occ. eigenvalues --   -0.59422  -0.58915  -0.58470  -0.58470  -0.58403
 Alpha  occ. eigenvalues --   -0.57894  -0.57894  -0.56288  -0.56246  -0.54921
 Alpha  occ. eigenvalues --   -0.54805  -0.54804  -0.54262  -0.54155  -0.54154
 Alpha  occ. eigenvalues --   -0.54146  -0.53531  -0.52058  -0.51420  -0.51209
 Alpha  occ. eigenvalues --   -0.51209  -0.50946  -0.50042  -0.50037  -0.49662
 Alpha  occ. eigenvalues --   -0.47911  -0.47893  -0.47561  -0.47385  -0.47116
 Alpha  occ. eigenvalues --   -0.47063  -0.47048  -0.46750  -0.46629  -0.46312
 Alpha  occ. eigenvalues --   -0.46305  -0.46182  -0.46001  -0.46001  -0.45720
 Alpha  occ. eigenvalues --   -0.45681  -0.45419  -0.44746  -0.44739  -0.44475
 Alpha  occ. eigenvalues --   -0.44229  -0.44168  -0.43847  -0.43777  -0.43668
 Alpha  occ. eigenvalues --   -0.43624  -0.43577  -0.43333  -0.43328  -0.43321
 Alpha  occ. eigenvalues --   -0.43000  -0.42975  -0.42944  -0.42632  -0.42426
 Alpha  occ. eigenvalues --   -0.42394  -0.42347  -0.41839  -0.41743  -0.41518
 Alpha  occ. eigenvalues --   -0.41517  -0.41453  -0.41398  -0.41142  -0.40727
 Alpha  occ. eigenvalues --   -0.40713  -0.40002  -0.39929  -0.39908  -0.39862
 Alpha  occ. eigenvalues --   -0.38815  -0.38778  -0.38703  -0.38492  -0.38474
 Alpha  occ. eigenvalues --   -0.37966  -0.37956  -0.37797  -0.37797  -0.37514
 Alpha  occ. eigenvalues --   -0.37070  -0.37041  -0.37031  -0.37020  -0.36506
 Alpha  occ. eigenvalues --   -0.36492  -0.36359  -0.36153  -0.35711  -0.35496
 Alpha  occ. eigenvalues --   -0.35466  -0.35293  -0.35238  -0.35031  -0.34992
 Alpha  occ. eigenvalues --   -0.34983  -0.34916  -0.34076  -0.34040  -0.33834
 Alpha  occ. eigenvalues --   -0.33829  -0.33632  -0.33629  -0.33333  -0.33329
 Alpha  occ. eigenvalues --   -0.33311  -0.33283  -0.32537  -0.32521  -0.31777
 Alpha  occ. eigenvalues --   -0.31760  -0.31543  -0.31538  -0.29203  -0.27710
 Alpha  occ. eigenvalues --   -0.27688  -0.27373  -0.27359  -0.26691  -0.26670
 Alpha  occ. eigenvalues --   -0.25434  -0.25434  -0.24910  -0.24886  -0.24534
 Alpha  occ. eigenvalues --   -0.24482  -0.24482  -0.24476  -0.24476  -0.24407
 Alpha  occ. eigenvalues --   -0.24349  -0.24101  -0.24089  -0.22879  -0.22879
 Alpha  occ. eigenvalues --   -0.22184  -0.22184  -0.20880  -0.20880  -0.18270
 Alpha  occ. eigenvalues --   -0.18255
 Alpha virt. eigenvalues --   -0.05221  -0.03440  -0.03396  -0.02625  -0.02303
 Alpha virt. eigenvalues --   -0.01641  -0.01637  -0.01326  -0.01326  -0.00676
 Alpha virt. eigenvalues --   -0.00670  -0.00598  -0.00583   0.00301   0.00384

 Mulliken charges:
               1
     1  C   -0.127781
     2  C   -0.134608
     3  C   -0.175511
     4  C    0.089941
     5  C    0.099218
     6  C   -0.187379
     7  C   -0.192367
     8  C    0.311042
     9  C    0.120110
    10  C   -0.259466
    11  C   -0.175693
    12  C    0.134065
    13  C   -0.184365
    14  C   -0.133613
    15  C   -0.134001
    16  C   -0.184595
    17  C    0.296645
    18  O   -0.582421
    19  C    0.296623
    20  C   -0.184616
    21  C   -0.133999
    22  C   -0.133606
    23  C   -0.184319
    24  C    0.133977
    25  C    0.119355
    26  C   -0.259222
    27  C    0.099165
    28  C    0.089972
    29  C   -0.175792
    30  C   -0.134069
    31  C   -0.127781
    32  C   -0.134607
    33  C   -0.175510
    34  C   -0.187359
    35  C   -0.192402
    36  C    0.311044
    37  N   -0.748562
    38  C    0.189940
    39  C   -0.125708
    40  C   -0.189380
    41  C    0.099446
    42  C    0.099446
    43  C   -0.189391
    44  C   -0.125649
    45  C    0.189940
    46  N   -0.748562
    47  C    0.311044
    48  C   -0.192393
    49  C   -0.187365
    50  C    0.099179
    51  C    0.089964
    52  C   -0.175510
    53  C   -0.134607
    54  C   -0.127781
    55  C   -0.134069
    56  C   -0.175790
    57  C   -0.259286
    58  C    0.119553
    59  C   -0.175692
    60  C    0.134047
    61  C   -0.184355
    62  C   -0.133611
    63  C   -0.134000
    64  C   -0.184600
    65  C    0.296637
    66  O   -0.582420
    67  C    0.296628
    68  C   -0.184610
    69  C   -0.134000
    70  C   -0.133608
    71  C   -0.184329
    72  C    0.133995
    73  C    0.119914
    74  C   -0.259402
    75  C    0.099204
    76  C    0.089949
    77  C   -0.175786
    78  C   -0.134071
    79  C   -0.127781
    80  C   -0.134608
    81  C   -0.175510
    82  C   -0.187374
    83  C   -0.192376
    84  C    0.311042
    85  C   -0.125701
    86  C   -0.189383
    87  C   -0.189393
    88  C   -0.125642
    89  C   -0.175784
    90  C   -0.134071
    91  H    0.126974
    92  H    0.128980
    93  H    0.137127
    94  H    0.131246
    95  H    0.143824
    96  H    0.141824
    97  H    0.135113
    98  H    0.128546
    99  H    0.132397
   100  H    0.141521
   101  H    0.141518
   102  H    0.132399
   103  H    0.128550
   104  H    0.135089
   105  H    0.141692
   106  H    0.127735
   107  H    0.127411
   108  H    0.126982
   109  H    0.128989
   110  H    0.137117
   111  H    0.131256
   112  H    0.143843
   113  H    0.150200
   114  H    0.143698
   115  H    0.143698
   116  H    0.150203
   117  H    0.143838
   118  H    0.131254
   119  H    0.137119
   120  H    0.128987
   121  H    0.126980
   122  H    0.127409
   123  H    0.127736
   124  H    0.141726
   125  H    0.135110
   126  H    0.128547
   127  H    0.132398
   128  H    0.141520
   129  H    0.141519
   130  H    0.132399
   131  H    0.128549
   132  H    0.135092
   133  H    0.141789
   134  H    0.127739
   135  H    0.127406
   136  H    0.126976
   137  H    0.128982
   138  H    0.137124
   139  H    0.131248
   140  H    0.143828
   141  H    0.150201
   142  H    0.143700
   143  H    0.143700
   144  H    0.150205
   145  H    0.127740
   146  H    0.127405
 Sum of Mulliken charges =  -0.00000

 Dipole moment (field-independent basis, Debye):
    X=              0.0000    Y=              0.0021    Z=              0.0020  Tot=              0.0029
 Quadrupole moment (field-independent basis, Debye-Ang):
   XX=           -521.4547   YY=           -502.3712   ZZ=           -483.9083
   XY=              0.0197   XZ=              0.0057   YZ=             -0.0001

 Normal termination of Gaussian 16 at Sat Nov  5 02:58:58 2022.
