 Gaussian 16, Revision B.01,
 Gaussian 16:  ES64L-G16RevB.01 20-Dec-2017

 -------------------------------------------------------------------
 #p b3lyp/6-31g(d) 6D 10F nosymm GFInput td=(50-50,nstate=2) SCF=XQC
 -------------------------------------------------------------------

 ------------------------------
 Gaussian input prepared by ASE
 ------------------------------
 Symbolic Z-matrix:
 Charge =  0 Multiplicity = 1

                          Input orientation:
 ---------------------------------------------------------------------
 Center     Atomic      Atomic             Coordinates (Angstroms)
 Number     Number       Type             X           Y           Z
 ---------------------------------------------------------------------
      1          6           0        8.793949    5.011358   -6.079353
      2          6           0        9.338385    3.771651   -5.738823
      3          6           0        8.717195    2.968750   -4.783550
      4          6           0        7.539005    3.387724   -4.140921
      5          6           0        6.877942    2.534826   -3.123293
      6          6           0        5.479151    2.473012   -3.009489
      7          6           0        4.869319    1.670710   -2.057850
      8          6           0        5.632120    0.886532   -1.168246
      9          6           0        7.035991    0.931836   -1.262732
     10          6           0        7.619604    1.751800   -2.232587
     11          6           0        7.959203    0.118992   -0.338116
     12          6           0        8.865009    1.084979    0.444587
     13          6           0        8.305641    2.041181    1.305814
     14          6           0        9.095323    2.928166    2.028278
     15          6           0       10.488266    2.875066    1.900995
     16          6           0       11.069368    1.939087    1.056069
     17          6           0       10.257671    1.053894    0.335978
     18          8           0       10.931357    0.168805   -0.471095
     19          6           0       10.218459   -0.742094   -1.213138
     20          6           0       10.991886   -1.602510   -2.002097
     21          6           0       10.369453   -2.561053   -2.790393
     22          6           0        8.973318   -2.661623   -2.792030
     23          6           0        8.221963   -1.798716   -2.002632
     24          6           0        8.823527   -0.820523   -1.196291
     25          6           0        7.142143   -0.719532    0.660372
     26          6           0        7.829893   -1.521360    1.575612
     27          6           0        7.189934   -2.324703    2.525151
     28          6           0        7.959819   -3.157210    3.481296
     29          6           0        7.493895   -4.423420    3.876292
     30          6           0        8.214555   -5.205608    4.777422
     31          6           0        9.422053   -4.742150    5.302949
     32          6           0        9.899362   -3.487498    4.919191
     33          6           0        9.175949   -2.703746    4.021706
     34          6           0        5.785323   -2.303469    2.531267
     35          6           0        5.073531   -1.520033    1.636416
     36          6           0        5.734612   -0.714961    0.686108
     37          7           0        4.994688    0.075998   -0.211442
     38          6           0        3.560719    0.054589   -0.150654
     39          6           0        2.875155    0.964865    0.659216
     40          6           0        1.483545    0.942236    0.717492
     41          6           0        0.741753    0.012478   -0.031028
     42          6           0       -0.741755   -0.009716    0.031956
     43          6           0       -1.448334   -1.224362    0.012283
     44          6           0       -2.839929   -1.247075    0.070705
     45          6           0       -3.560716   -0.051911    0.151665
     46          7           0       -4.994681   -0.073356    0.212557
     47          6           0       -5.735951   -0.043936   -0.982587
     48          6           0       -5.076199    0.006745   -2.227737
     49          6           0       -5.789309    0.039760   -3.415831
     50          6           0       -7.193980    0.024129   -3.424059
     51          6           0       -7.965266    0.062807   -4.690403
     52          6           0       -9.179451    0.766089   -4.778684
     53          6           0       -9.904184    0.800692   -5.968909
     54          6           0       -9.430163    0.137336   -7.102271
     55          6           0       -8.224623   -0.563175   -7.031695
     56          6           0       -7.502652   -0.601392   -5.839847
     57          6           0       -7.832616   -0.027369   -2.180666
     58          6           0       -7.143518   -0.060617   -0.965091
     59          6           0       -7.959193   -0.118994    0.338375
     60          6           0       -8.861485    1.124229    0.418980
     61          6           0       -8.298464    2.409399    0.435507
     62          6           0       -9.084928    3.553409    0.506285
     63          6           0      -10.478252    3.432001    0.563034
     64          6           0      -11.062932    2.172808    0.548288
     65          6           0      -10.254445    1.031661    0.476974
     66          8           0      -10.931537   -0.164198    0.468805
     67          6           0      -10.221862   -1.338899    0.397903
     68          6           0      -10.998533   -2.504117    0.394850
     69          6           0      -10.379516   -3.744944    0.325533
     70          6           0       -8.983560   -3.823908    0.259348
     71          6           0       -8.228954   -2.656500    0.263774
     72          6           0       -8.827029   -1.389052    0.333104
     73          6           0       -7.034605   -0.150965    1.568008
     74          6           0       -7.616872   -0.204021    2.837544
     75          6           0       -6.873892   -0.234453    4.022280
     76          6           0       -7.533556   -0.295455    5.349354
     77          6           0       -6.995864    0.383918    6.456482
     78          6           0       -7.612736    0.324798    7.705152
     79          6           0       -8.785843   -0.412406    7.876544
     80          6           0       -9.333562   -1.091266    6.786408
     81          6           0       -8.713690   -1.035671    5.539115
     82          6           0       -5.475161   -0.206843    3.895051
     83          6           0       -4.866644   -0.153231    2.650854
     84          6           0       -5.630771   -0.124321    1.466166
     85          6           0       -2.871691    1.164350    0.172759
     86          6           0       -1.480090    1.183300    0.112989
     87          6           0        1.444876   -0.895681   -0.840888
     88          6           0        2.836466   -0.876734   -0.900725
     89          6           0        7.004618    4.639299   -4.493604
     90          6           0        7.622800    5.440550   -5.452275
     91          1           0        9.277267    5.636407   -6.825405
     92          1           0       10.245293    3.422384   -6.225776
     93          1           0        9.134899    1.993580   -4.549036
     94          1           0        4.855561    3.040546   -3.694402
     95          1           0        3.787802    1.639503   -2.008461
     96          1           0        8.704039    1.795451   -2.275075
     97          1           0        7.224133    2.080723    1.403424
     98          1           0        8.631187    3.656981    2.686286
     99          1           0       11.118364    3.562176    2.458821
    100          1           0       12.145555    1.869928    0.932273
    101          1           0       12.071878   -1.496733   -1.975342
    102          1           0       10.969946   -3.228926   -3.401677
    103          1           0        8.477050   -3.408449   -3.404840
    104          1           0        7.138031   -1.875160   -2.002622
    105          1           0        8.914802   -1.533489    1.525243
    106          1           0        6.570653   -4.808364    3.451775
    107          1           0        7.836411   -6.184416    5.061442
    108          1           0        9.985156   -5.352299    6.004027
    109          1           0       10.834041   -3.111702    5.327534
    110          1           0        9.543728   -1.717090    3.753980
    111          1           0        5.239151   -2.888168    3.266041
    112          1           0        3.991298   -1.520156    1.679600
    113          1           0        3.439804    1.681415    1.248313
    114          1           0        0.966910    1.637970    1.372229
    115          1           0       -0.901757   -2.162263   -0.022846
    116          1           0       -3.376427   -2.191233    0.063901
    117          1           0       -3.993924    0.032758   -2.260846
    118          1           0       -5.244053    0.106616   -4.353004
    119          1           0       -9.544610    1.310820   -3.912453
    120          1           0      -10.837296    1.356516   -6.013118
    121          1           0       -9.994291    0.165895   -8.030614
    122          1           0       -7.849061   -1.091125   -7.904591
    123          1           0       -6.581023   -1.174875   -5.789938
    124          1           0       -8.917613   -0.067260   -2.150605
    125          1           0       -7.216665    2.501595    0.391218
    126          1           0       -8.618004    4.533929    0.517725
    127          1           0      -11.105860    4.317023    0.619219
    128          1           0      -12.139519    2.041068    0.591801
    129          1           0      -12.078279   -2.405186    0.446315
    130          1           0      -10.982525   -4.648649    0.322339
    131          1           0       -8.489948   -4.789771    0.204357
    132          1           0       -7.145154   -2.715738    0.212579
    133          1           0       -8.701222   -0.197564    2.899630
    134          1           0       -6.099856    0.985440    6.329544
    135          1           0       -7.180982    0.865007    8.543895
    136          1           0       -9.268138   -0.457302    8.849300
    137          1           0      -10.242036   -1.675492    6.908666
    138          1           0       -9.134010   -1.592316    4.706104
    139          1           0       -4.850658   -0.255820    4.782555
    140          1           0       -3.785169   -0.145861    2.592108
    141          1           0       -3.433660    2.092058    0.226222
    142          1           0       -0.960770    2.137157    0.102857
    143          1           0        0.895612   -1.607335   -1.450394
    144          1           0        3.370286   -1.576869   -1.536459
    145          1           0        6.110223    4.998071   -3.991496
    146          1           0        7.193624    6.407560   -5.702129
 ---------------------------------------------------------------------

 SCF Done:  E(RB3LYP) =  -3570.90023924     A.U. after   16 cycles

 Excitation energies and oscillator strengths:

 Excited state symmetry could not be determined.
 Excited State   1:      Triplet-?Sym    2.8111 eV  441.05 nm  f=0.0000  <S**2>=2.000
     300 -> 304        0.42871
     301 -> 303        0.41730
     301 -> 305       -0.14164
 This state for optimization and/or second-order correction.
 Total Energy, E(TD-HF/TD-DFT) =  -3570.79693236
 Copying the excited state density for this state as the 1-particle RhoCI density.

 Excited state symmetry could not be determined.
 Excited State   2:      Triplet-?Sym    2.8111 eV  441.05 nm  f=0.0000  <S**2>=2.000
     300 -> 303        0.41576
     300 -> 305       -0.14139
     301 -> 304        0.43024

 Excited state symmetry could not be determined.
 Excited State   3:      Singlet-?Sym    2.9888 eV  414.83 nm  f=0.0000  <S**2>=0.000
     301 -> 302        0.69892

 Excited state symmetry could not be determined.
 Excited State   4:      Singlet-?Sym    2.9933 eV  414.20 nm  f=0.0002  <S**2>=0.000
     300 -> 302        0.69886

 Alpha  occ. eigenvalues --  -19.19450 -19.19450 -14.37806 -14.37806 -10.24976
 Alpha  occ. eigenvalues --  -10.24976 -10.24976 -10.24976 -10.24285 -10.24285
 Alpha  occ. eigenvalues --  -10.23627 -10.23626 -10.23625 -10.23624 -10.22611
 Alpha  occ. eigenvalues --  -10.22611 -10.22170 -10.22141 -10.21147 -10.21147
 Alpha  occ. eigenvalues --  -10.21146 -10.21146 -10.21062 -10.21062 -10.21062
 Alpha  occ. eigenvalues --  -10.21062 -10.19746 -10.19746 -10.19746 -10.19745
 Alpha  occ. eigenvalues --  -10.19634 -10.19634 -10.19633 -10.19633 -10.19388
 Alpha  occ. eigenvalues --  -10.19387 -10.19386 -10.19386 -10.19136 -10.19136
 Alpha  occ. eigenvalues --  -10.19135 -10.19135 -10.19022 -10.19021 -10.19020
 Alpha  occ. eigenvalues --  -10.19019 -10.18984 -10.18984 -10.18984 -10.18984
 Alpha  occ. eigenvalues --  -10.18849 -10.18849 -10.18847 -10.18847 -10.18810
 Alpha  occ. eigenvalues --  -10.18810 -10.18810 -10.18809 -10.18723 -10.18723
 Alpha  occ. eigenvalues --  -10.18722 -10.18721 -10.18599 -10.18599 -10.18598
 Alpha  occ. eigenvalues --  -10.18597 -10.18556 -10.18556 -10.18555 -10.18554
 Alpha  occ. eigenvalues --  -10.18542 -10.18542 -10.18541 -10.18541 -10.18510
 Alpha  occ. eigenvalues --  -10.18509 -10.18509 -10.18508 -10.18418 -10.18418
 Alpha  occ. eigenvalues --  -10.18417 -10.18417 -10.18387 -10.18387 -10.18386
 Alpha  occ. eigenvalues --  -10.18385 -10.18304 -10.18303 -10.18302 -10.18302
 Alpha  occ. eigenvalues --   -1.08694  -1.08694  -0.98001  -0.97996  -0.88849
 Alpha  occ. eigenvalues --   -0.87854  -0.87161  -0.86429  -0.86429  -0.85973
 Alpha  occ. eigenvalues --   -0.85973  -0.85928  -0.85482  -0.85464  -0.84279
 Alpha  occ. eigenvalues --   -0.84279  -0.83715  -0.83442  -0.80979  -0.80944
 Alpha  occ. eigenvalues --   -0.79416  -0.77763  -0.77763  -0.77097  -0.76456
 Alpha  occ. eigenvalues --   -0.76404  -0.76404  -0.76382  -0.75614  -0.74793
 Alpha  occ. eigenvalues --   -0.74793  -0.74766  -0.74529  -0.74529  -0.74315
 Alpha  occ. eigenvalues --   -0.73883  -0.73731  -0.73713  -0.73713  -0.73254
 Alpha  occ. eigenvalues --   -0.72520  -0.72439  -0.72219  -0.72219  -0.70635
 Alpha  occ. eigenvalues --   -0.69909  -0.66975  -0.66565  -0.65412  -0.64301
 Alpha  occ. eigenvalues --   -0.63802  -0.63712  -0.63711  -0.63631  -0.63631
 Alpha  occ. eigenvalues --   -0.62839  -0.61850  -0.61777  -0.61017  -0.61017
 Alpha  occ. eigenvalues --   -0.60251  -0.60192  -0.60054  -0.59466  -0.59465
 Alpha  occ. eigenvalues --   -0.59422  -0.58915  -0.58470  -0.58470  -0.58403
 Alpha  occ. eigenvalues --   -0.57894  -0.57893  -0.56288  -0.56246  -0.54921
 Alpha  occ. eigenvalues --   -0.54805  -0.54804  -0.54262  -0.54155  -0.54154
 Alpha  occ. eigenvalues --   -0.54146  -0.53532  -0.52058  -0.51420  -0.51209
 Alpha  occ. eigenvalues --   -0.51209  -0.50946  -0.50042  -0.50037  -0.49662
 Alpha  occ. eigenvalues --   -0.47911  -0.47893  -0.47561  -0.47385  -0.47116
 Alpha  occ. eigenvalues --   -0.47063  -0.47048  -0.46750  -0.46629  -0.46312
 Alpha  occ. eigenvalues --   -0.46305  -0.46182  -0.46001  -0.46001  -0.45720
 Alpha  occ. eigenvalues --   -0.45681  -0.45419  -0.44746  -0.44739  -0.44475
 Alpha  occ. eigenvalues --   -0.44229  -0.44168  -0.43847  -0.43777  -0.43668
 Alpha  occ. eigenvalues --   -0.43624  -0.43577  -0.43333  -0.43328  -0.43321
 Alpha  occ. eigenvalues --   -0.43000  -0.42975  -0.42944  -0.42632  -0.42426
 Alpha  occ. eigenvalues --   -0.42394  -0.42347  -0.41839  -0.41743  -0.41518
 Alpha  occ. eigenvalues --   -0.41518  -0.41453  -0.41398  -0.41142  -0.40727
 Alpha  occ. eigenvalues --   -0.40713  -0.40002  -0.39929  -0.39908  -0.39862
 Alpha  occ. eigenvalues --   -0.38815  -0.38778  -0.38703  -0.38492  -0.38474
 Alpha  occ. eigenvalues --   -0.37966  -0.37956  -0.37797  -0.37797  -0.37514
 Alpha  occ. eigenvalues --   -0.37070  -0.37041  -0.37031  -0.37020  -0.36506
 Alpha  occ. eigenvalues --   -0.36492  -0.36359  -0.36153  -0.35711  -0.35496
 Alpha  occ. eigenvalues --   -0.35466  -0.35293  -0.35238  -0.35031  -0.34992
 Alpha  occ. eigenvalues --   -0.34983  -0.34916  -0.34076  -0.34040  -0.33834
 Alpha  occ. eigenvalues --   -0.33829  -0.33632  -0.33629  -0.33333  -0.33329
 Alpha  occ. eigenvalues --   -0.33311  -0.33283  -0.32537  -0.32521  -0.31777
 Alpha  occ. eigenvalues --   -0.31760  -0.31543  -0.31538  -0.29203  -0.27710
 Alpha  occ. eigenvalues --   -0.27688  -0.27373  -0.27359  -0.26691  -0.26670
 Alpha  occ. eigenvalues --   -0.25434  -0.25434  -0.24910  -0.24886  -0.24534
 Alpha  occ. eigenvalues --   -0.24482  -0.24482  -0.24476  -0.24476  -0.24407
 Alpha  occ. eigenvalues --   -0.24349  -0.24101  -0.24089  -0.22879  -0.22879
 Alpha  occ. eigenvalues --   -0.22185  -0.22184  -0.20880  -0.20880  -0.18270
 Alpha  occ. eigenvalues --   -0.18255
 Alpha virt. eigenvalues --   -0.05221  -0.03440  -0.03396  -0.02625  -0.02303
 Alpha virt. eigenvalues --   -0.01641  -0.01637  -0.01326  -0.01326  -0.00676
 Alpha virt. eigenvalues --   -0.00670  -0.00598  -0.00583   0.00301   0.00384

 Mulliken charges:
               1
     1  C   -0.127793
     2  C   -0.134593
     3  C   -0.175529
     4  C    0.089966
     5  C    0.099198
     6  C   -0.187373
     7  C   -0.192365
     8  C    0.311022
     9  C    0.120122
    10  C   -0.259465
    11  C   -0.175719
    12  C    0.134073
    13  C   -0.184372
    14  C   -0.133614
    15  C   -0.133996
    16  C   -0.184600
    17  C    0.296650
    18  O   -0.582414
    19  C    0.296611
    20  C   -0.184622
    21  C   -0.133996
    22  C   -0.133607
    23  C   -0.184318
    24  C    0.133990
    25  C    0.119382
    26  C   -0.259217
    27  C    0.099138
    28  C    0.089987
    29  C   -0.175796
    30  C   -0.134057
    31  C   -0.127792
    32  C   -0.134593
    33  C   -0.175517
    34  C   -0.187349
    35  C   -0.192399
    36  C    0.311002
    37  N   -0.748533
    38  C    0.189971
    39  C   -0.125722
    40  C   -0.189377
    41  C    0.099450
    42  C    0.099444
    43  C   -0.189389
    44  C   -0.125659
    45  C    0.189957
    46  N   -0.748526
    47  C    0.310990
    48  C   -0.192387
    49  C   -0.187354
    50  C    0.099139
    51  C    0.089986
    52  C   -0.175516
    53  C   -0.134594
    54  C   -0.127802
    55  C   -0.134042
    56  C   -0.175801
    57  C   -0.259279
    58  C    0.119588
    59  C   -0.175753
    60  C    0.134070
    61  C   -0.184358
    62  C   -0.133610
    63  C   -0.134000
    64  C   -0.184604
    65  C    0.296635
    66  O   -0.582414
    67  C    0.296622
    68  C   -0.184621
    69  C   -0.133989
    70  C   -0.133616
    71  C   -0.184336
    72  C    0.134026
    73  C    0.119948
    74  C   -0.259404
    75  C    0.099189
    76  C    0.089958
    77  C   -0.175788
    78  C   -0.134057
    79  C   -0.127794
    80  C   -0.134593
    81  C   -0.175523
    82  C   -0.187372
    83  C   -0.192377
    84  C    0.311013
    85  C   -0.125708
    86  C   -0.189379
    87  C   -0.189389
    88  C   -0.125653
    89  C   -0.175795
    90  C   -0.134055
    91  H    0.126973
    92  H    0.128979
    93  H    0.137125
    94  H    0.131245
    95  H    0.143825
    96  H    0.141826
    97  H    0.135114
    98  H    0.128546
    99  H    0.132397
   100  H    0.141521
   101  H    0.141519
   102  H    0.132399
   103  H    0.128550
   104  H    0.135087
   105  H    0.141693
   106  H    0.127734
   107  H    0.127409
   108  H    0.126982
   109  H    0.128987
   110  H    0.137113
   111  H    0.131255
   112  H    0.143843
   113  H    0.150199
   114  H    0.143697
   115  H    0.143699
   116  H    0.150204
   117  H    0.143838
   118  H    0.131254
   119  H    0.137120
   120  H    0.128985
   121  H    0.126980
   122  H    0.127406
   123  H    0.127736
   124  H    0.141728
   125  H    0.135108
   126  H    0.128547
   127  H    0.132398
   128  H    0.141520
   129  H    0.141519
   130  H    0.132398
   131  H    0.128548
   132  H    0.135094
   133  H    0.141790
   134  H    0.127737
   135  H    0.127405
   136  H    0.126976
   137  H    0.128980
   138  H    0.137127
   139  H    0.131248
   140  H    0.143833
   141  H    0.150204
   142  H    0.143699
   143  H    0.143699
   144  H    0.150204
   145  H    0.127739
   146  H    0.127403
 Sum of Mulliken charges =  -0.00000

 Dipole moment (field-independent basis, Debye):
    X=              0.0001    Y=             -0.0027    Z=              0.0012  Tot=              0.0030
 Quadrupole moment (field-independent basis, Debye-Ang):
   XX=           -521.4136   YY=           -486.3591   ZZ=           -499.9617
   XY=             -0.2718   XZ=              0.8379   YZ=              6.2721

 Normal termination of Gaussian 16 at Sat Nov  5 12:03:27 2022.
