 Gaussian 16, Revision B.01,
 Gaussian 16:  ES64L-G16RevB.01 20-Dec-2017

 -----------------------------
 #p b3lyp/6-31g(d) opt SCF=XQC
 -----------------------------

 ------------------------------
 Gaussian input prepared by ASE
 ------------------------------
 Symbolic Z-matrix:
 Charge =  0 Multiplicity = 1

 SCF Done:  E(RB3LYP) =  -2990.47204110     A.U. after   16 cycles
 SCF Done:  E(RB3LYP) =  -2990.48462948     A.U. after   13 cycles
 SCF Done:  E(RB3LYP) =  -2990.48397701     A.U. after   13 cycles
 SCF Done:  E(RB3LYP) =  -2990.49149064     A.U. after   12 cycles
 SCF Done:  E(RB3LYP) =  -2990.49285007     A.U. after   12 cycles
 SCF Done:  E(RB3LYP) =  -2990.11437891     A.U. after   17 cycles
 SCF Done:  E(RB3LYP) =  -2990.48407189     A.U. after   13 cycles
 SCF Done:  E(RB3LYP) =  -2990.49286208     A.U. after    9 cycles
 SCF Done:  E(RB3LYP) =  -2990.33271623     A.U. after   15 cycles
 SCF Done:  E(RB3LYP) =  -2990.49088722     A.U. after   13 cycles
 SCF Done:  E(RB3LYP) =  -2990.49360572     A.U. after   11 cycles
 SCF Done:  E(RB3LYP) =  -2990.49367454     A.U. after   10 cycles
 SCF Done:  E(RB3LYP) =  -2990.49368569     A.U. after   10 cycles
 SCF Done:  E(RB3LYP) =  -2990.49368703     A.U. after    9 cycles
 SCF Done:  E(RB3LYP) =  -2990.49368749     A.U. after    7 cycles
 SCF Done:  E(RB3LYP) =  -2990.49368776     A.U. after    7 cycles
 SCF Done:  E(RB3LYP) =  -2990.49368786     A.U. after    7 cycles
 SCF Done:  E(RB3LYP) =  -2990.49368790     A.U. after    6 cycles
 SCF Done:  E(RB3LYP) =  -2990.49368792     A.U. after    6 cycles
 SCF Done:  E(RB3LYP) =  -2990.49368793     A.U. after    6 cycles
 Optimization completed.
    -- Stationary point found.

                         Standard orientation:
 ---------------------------------------------------------------------
 Center     Atomic      Atomic             Coordinates (Angstroms)
 Number     Number       Type             X           Y           Z
 ---------------------------------------------------------------------
      1          6           0       -0.190617   -2.216896    3.561016
      2          6           0        0.911390   -2.736770    2.883115
      3          6           0        0.968400   -2.647229    1.495598
      4          6           0       -0.055992   -2.044444    0.746309
      5          6           0        0.055963   -2.044369   -0.746569
      6          6           0       -0.968430   -2.647070   -1.495925
      7          6           0       -0.911411   -2.736472   -2.883451
      8          6           0        0.190605   -2.216540   -3.561292
      9          6           0        1.223380   -1.628534   -2.837437
     10          6           0        1.185242   -1.533202   -1.434942
     11          6           0        2.364099   -0.914236   -0.755522
     12          6           0        2.237738    0.122673    0.181117
     13          6           0        3.372554    0.682856    0.775154
     14          7           0        3.237956    1.730975    1.726426
     15          6           0        3.683762    1.690075    3.052399
     16          6           0        4.251533    0.629981    3.763768
     17          6           0        4.592641    0.853748    5.096062
     18          6           0        4.370389    2.098509    5.709979
     19          6           0        3.795720    3.147373    4.997789
     20          6           0        3.445074    2.950576    3.656934
     21          6           0        2.840114    3.793135    2.646012
     22          6           0        2.407970    5.124323    2.628091
     23          6           0        1.884743    5.651542    1.450599
     24          6           0        1.790446    4.861441    0.291450
     25          6           0        2.209816    3.532698    0.283041
     26          6           0        2.728559    3.008768    1.469262
     27          6           0        4.649070    0.210489    0.452702
     28          6           0        4.786736   -0.817469   -0.484002
     29          7           0        6.077430   -1.295828   -0.828475
     30          6           0        6.499587   -2.630942   -0.777244
     31          6           0        5.803504   -3.769300   -0.361747
     32          6           0        6.476737   -4.989053   -0.390000
     33          6           0        7.812866   -5.078481   -0.815692
     34          6           0        8.505304   -3.939303   -1.215751
     35          6           0        7.852470   -2.701434   -1.196395
     36          6           0        8.264668   -1.351099   -1.518331
     37          6           0        9.458377   -0.794459   -1.992130
     38          6           0        9.521963    0.576087   -2.225217
     39          6           0        8.401248    1.392364   -1.995983
     40          6           0        7.201336    0.864043   -1.524091
     41          6           0        7.148267   -0.510782   -1.278741
     42          6           0        3.650037   -1.366887   -1.087833
     43          6           0       -1.185265   -1.533340    1.434739
     44          6           0       -2.364125   -0.914297    0.755395
     45          6           0       -2.237767    0.122689   -0.181160
     46          6           0       -3.372586    0.682951   -0.775120
     47          7           0       -3.237988    1.731148   -1.726300
     48          6           0       -3.684033    1.690466   -3.052202
     49          6           0       -4.252134    0.630558   -3.763586
     50          6           0       -4.593422    0.854527   -5.095800
     51          6           0       -4.371026    2.099304   -5.709630
     52          6           0       -3.796023    3.147979   -4.997432
     53          6           0       -3.445188    2.950975   -3.656656
     54          6           0       -2.839870    3.793310   -2.645763
     55          6           0       -2.407446    5.124407   -2.627799
     56          6           0       -1.883895    5.651407   -1.450353
     57          6           0       -1.789557    4.861181   -0.291294
     58          6           0       -2.209204    3.532526   -0.282932
     59          6           0       -2.728266    3.008809   -1.469109
     60          6           0       -4.649103    0.210583   -0.452670
     61          6           0       -4.786764   -0.817459    0.483942
     62          7           0       -6.077460   -1.295819    0.828406
     63          6           0       -7.148263   -0.510794    1.278787
     64          6           0       -7.201289    0.864007    1.524282
     65          6           0       -8.401174    1.392310    1.996265
     66          6           0       -9.521902    0.576038    2.225447
     67          6           0       -9.458359   -0.794485    1.992216
     68          6           0       -8.264678   -1.351107    1.518323
     69          6           0       -7.852524   -2.701419    1.196234
     70          6           0       -8.505387   -3.939274    1.215480
     71          6           0       -7.812989   -5.078427    0.815282
     72          6           0       -6.476870   -4.988988    0.389561
     73          6           0       -5.803609   -3.769249    0.361414
     74          6           0       -6.499651   -2.630917    0.777049
     75          6           0       -3.650062   -1.366956    1.087697
     76          6           0       -1.223392   -1.628811    2.837225
     77          1           0       -0.247268   -2.266703    4.644694
     78          1           0        1.721230   -3.212254    3.429418
     79          1           0        1.819081   -3.066621    0.967494
     80          1           0       -1.819117   -3.066508   -0.967868
     81          1           0       -1.721252   -3.211893   -3.429807
     82          1           0        0.247263   -2.266241   -4.644975
     83          1           0        2.077357   -1.212100   -3.364130
     84          1           0        1.258985    0.492648    0.465134
     85          1           0        4.418762   -0.335527    3.297433
     86          1           0        5.038635    0.046195    5.670346
     87          1           0        4.648803    2.240672    6.750300
     88          1           0        3.619519    4.107266    5.476351
     89          1           0        2.487670    5.739747    3.520520
     90          1           0        1.550868    6.685085    1.423737
     91          1           0        1.376212    5.288790   -0.616806
     92          1           0        2.136252    2.929621   -0.616147
     93          1           0        5.523352    0.639164    0.929720
     94          1           0        4.774450   -3.709177   -0.023253
     95          1           0        5.954564   -5.887933   -0.073552
     96          1           0        8.308748   -6.044823   -0.828064
     97          1           0        9.541918   -4.007911   -1.535209
     98          1           0       10.322485   -1.426602   -2.179378
     99          1           0       10.443327    1.020020   -2.591107
    100          1           0        8.467050    2.459144   -2.191540
    101          1           0        6.339319    1.501823   -1.359355
    102          1           0        3.770346   -2.161340   -1.816732
    103          1           0       -1.259011    0.492660   -0.465174
    104          1           0       -4.419474   -0.334967   -3.297327
    105          1           0       -5.039672    0.047119   -5.670089
    106          1           0       -4.649589    2.241629   -6.749889
    107          1           0       -3.619705    4.107884   -5.475927
    108          1           0       -2.487182    5.739929   -3.520156
    109          1           0       -1.549797    6.684877   -1.423457
    110          1           0       -1.375066    5.288359    0.616925
    111          1           0       -2.135614    2.929358    0.616193
    112          1           0       -5.523393    0.639325   -0.929612
    113          1           0       -6.339261    1.501781    1.359586
    114          1           0       -8.466942    2.459071    2.191935
    115          1           0      -10.443244    1.019956    2.591412
    116          1           0      -10.322477   -1.426626    2.179424
    117          1           0       -9.541994   -4.007890    1.534962
    118          1           0       -8.308895   -6.044758    0.827569
    119          1           0       -5.954729   -5.887849    0.073004
    120          1           0       -4.774563   -3.709115    0.022897
    121          1           0       -3.770371   -2.161471    1.816527
    122          1           0       -2.077361   -1.212421    3.363966
 ---------------------------------------------------------------------

 The electronic state is 1-A.
 Alpha  occ. eigenvalues --  -14.38683 -14.38683 -14.38288 -14.38288 -10.24976
 Alpha  occ. eigenvalues --  -10.24976 -10.24818 -10.24818 -10.22767 -10.22766
 Alpha  occ. eigenvalues --  -10.22688 -10.22688 -10.22453 -10.22453 -10.22445
 Alpha  occ. eigenvalues --  -10.22445 -10.22052 -10.22052 -10.21395 -10.21393
 Alpha  occ. eigenvalues --  -10.21319 -10.21294 -10.20840 -10.20840 -10.20708
 Alpha  occ. eigenvalues --  -10.20708 -10.20701 -10.20700 -10.19977 -10.19977
 Alpha  occ. eigenvalues --  -10.19942 -10.19941 -10.19898 -10.19898 -10.19865
 Alpha  occ. eigenvalues --  -10.19865 -10.19182 -10.19182 -10.19082 -10.19082
 Alpha  occ. eigenvalues --  -10.19031 -10.19031 -10.19029 -10.19029 -10.19006
 Alpha  occ. eigenvalues --  -10.19006 -10.19003 -10.19003 -10.18954 -10.18954
 Alpha  occ. eigenvalues --  -10.18877 -10.18877 -10.18862 -10.18862 -10.18837
 Alpha  occ. eigenvalues --  -10.18837 -10.18828 -10.18828 -10.18776 -10.18776
 Alpha  occ. eigenvalues --  -10.18755 -10.18755 -10.18740 -10.18740 -10.18735
 Alpha  occ. eigenvalues --  -10.18735 -10.18596 -10.18596 -10.18412 -10.18412
 Alpha  occ. eigenvalues --  -10.18305 -10.18305 -10.18157 -10.18157 -10.18129
 Alpha  occ. eigenvalues --  -10.18129  -0.99441  -0.99441  -0.99058  -0.99057
 Alpha  occ. eigenvalues --   -0.89243  -0.88616  -0.87395  -0.85865  -0.85327
 Alpha  occ. eigenvalues --   -0.85323  -0.84508  -0.84507  -0.84266  -0.84237
 Alpha  occ. eigenvalues --   -0.83720  -0.83716  -0.79735  -0.79587  -0.79232
 Alpha  occ. eigenvalues --   -0.79202  -0.78325  -0.77084  -0.76971  -0.75787
 Alpha  occ. eigenvalues --   -0.75786  -0.75150  -0.75136  -0.74857  -0.74855
 Alpha  occ. eigenvalues --   -0.74163  -0.73922  -0.72849  -0.72185  -0.72071
 Alpha  occ. eigenvalues --   -0.71726  -0.71719  -0.71504  -0.71441  -0.71426
 Alpha  occ. eigenvalues --   -0.71365  -0.65610  -0.65401  -0.65246  -0.65194
 Alpha  occ. eigenvalues --   -0.64236  -0.63758  -0.62447  -0.62220  -0.61919
 Alpha  occ. eigenvalues --   -0.61265  -0.60685  -0.60495  -0.60450  -0.60246
 Alpha  occ. eigenvalues --   -0.60236  -0.59702  -0.58004  -0.57675  -0.57618
 Alpha  occ. eigenvalues --   -0.57436  -0.57319  -0.56983  -0.56925  -0.56861
 Alpha  occ. eigenvalues --   -0.54593  -0.54045  -0.52272  -0.51995  -0.51978
 Alpha  occ. eigenvalues --   -0.51744  -0.51730  -0.51400  -0.51376  -0.51329
 Alpha  occ. eigenvalues --   -0.51311  -0.50058  -0.49784  -0.49527  -0.49427
 Alpha  occ. eigenvalues --   -0.49423  -0.49073  -0.49019  -0.47236  -0.47070
 Alpha  occ. eigenvalues --   -0.45842  -0.45719  -0.45524  -0.45523  -0.45417
 Alpha  occ. eigenvalues --   -0.45405  -0.45304  -0.45226  -0.45053  -0.45029
 Alpha  occ. eigenvalues --   -0.43838  -0.43820  -0.43745  -0.43652  -0.43446
 Alpha  occ. eigenvalues --   -0.43427  -0.43268  -0.43200  -0.43175  -0.43116
 Alpha  occ. eigenvalues --   -0.42723  -0.42607  -0.42572  -0.42130  -0.42127
 Alpha  occ. eigenvalues --   -0.41893  -0.41890  -0.41619  -0.41588  -0.41549
 Alpha  occ. eigenvalues --   -0.41507  -0.41382  -0.41268  -0.39403  -0.39141
 Alpha  occ. eigenvalues --   -0.39134  -0.38880  -0.38441  -0.38279  -0.37965
 Alpha  occ. eigenvalues --   -0.37200  -0.36820  -0.36640  -0.36625  -0.36540
 Alpha  occ. eigenvalues --   -0.36532  -0.36374  -0.36275  -0.36245  -0.36107
 Alpha  occ. eigenvalues --   -0.35438  -0.35313  -0.35277  -0.35183  -0.35004
 Alpha  occ. eigenvalues --   -0.34954  -0.34385  -0.34125  -0.34102  -0.33902
 Alpha  occ. eigenvalues --   -0.33878  -0.33731  -0.33726  -0.33472  -0.33470
 Alpha  occ. eigenvalues --   -0.32890  -0.32887  -0.32169  -0.32053  -0.28588
 Alpha  occ. eigenvalues --   -0.28200  -0.28096  -0.27951  -0.27817  -0.27721
 Alpha  occ. eigenvalues --   -0.27498  -0.26850  -0.26608  -0.25437  -0.25286
 Alpha  occ. eigenvalues --   -0.25232  -0.25094  -0.24990  -0.24255  -0.23156
 Alpha  occ. eigenvalues --   -0.21425  -0.21425  -0.21369  -0.20966  -0.20146
 Alpha  occ. eigenvalues --   -0.20140  -0.19998  -0.19948
 Alpha virt. eigenvalues --   -0.04871  -0.03671  -0.02868  -0.02837  -0.02836
 Alpha virt. eigenvalues --   -0.02817  -0.02782  -0.02573  -0.02377  -0.00308
 Alpha virt. eigenvalues --    0.00424   0.00516   0.00519   0.00670   0.00788

 Mulliken charges:
               1
     1  C   -0.125402
     2  C   -0.127955
     3  C   -0.165894
     4  C    0.023542
     5  C    0.023542
     6  C   -0.165892
     7  C   -0.127954
     8  C   -0.125403
     9  C   -0.180849
    10  C    0.046235
    11  C    0.040960
    12  C   -0.178845
    13  C    0.257068
    14  N   -0.737991
    15  C    0.314595
    16  C   -0.174778
    17  C   -0.142012
    18  C   -0.144680
    19  C   -0.197228
    20  C    0.058795
    21  C    0.061444
    22  C   -0.197758
    23  C   -0.150559
    24  C   -0.140480
    25  C   -0.178835
    26  C    0.311541
    27  C   -0.184530
    28  C    0.279064
    29  N   -0.745748
    30  C    0.311544
    31  C   -0.176889
    32  C   -0.142732
    33  C   -0.144113
    34  C   -0.196907
    35  C    0.060017
    36  C    0.059744
    37  C   -0.196661
    38  C   -0.144056
    39  C   -0.141417
    40  C   -0.176478
    41  C    0.312248
    42  C   -0.198266
    43  C    0.046236
    44  C    0.040963
    45  C   -0.178860
    46  C    0.257105
    47  N   -0.738003
    48  C    0.314594
    49  C   -0.174780
    50  C   -0.142012
    51  C   -0.144679
    52  C   -0.197228
    53  C    0.058794
    54  C    0.061442
    55  C   -0.197757
    56  C   -0.150558
    57  C   -0.140480
    58  C   -0.178840
    59  C    0.311540
    60  C   -0.184547
    61  C    0.279063
    62  N   -0.745747
    63  C    0.312248
    64  C   -0.176478
    65  C   -0.141417
    66  C   -0.144056
    67  C   -0.196661
    68  C    0.059743
    69  C    0.060017
    70  C   -0.196907
    71  C   -0.144113
    72  C   -0.142731
    73  C   -0.176889
    74  C    0.311544
    75  C   -0.198270
    76  C   -0.180850
    77  H    0.138949
    78  H    0.136505
    79  H    0.143000
    80  H    0.143000
    81  H    0.136506
    82  H    0.138949
    83  H    0.142723
    84  H    0.162613
    85  H    0.137518
    86  H    0.126875
    87  H    0.124300
    88  H    0.129958
    89  H    0.129744
    90  H    0.123002
    91  H    0.136859
    92  H    0.139320
    93  H    0.172088
    94  H    0.137949
    95  H    0.127515
    96  H    0.125612
    97  H    0.131370
    98  H    0.130851
    99  H    0.125900
   100  H    0.130183
   101  H    0.142484
   102  H    0.158948
   103  H    0.162616
   104  H    0.137522
   105  H    0.126876
   106  H    0.124301
   107  H    0.129959
   108  H    0.129743
   109  H    0.123001
   110  H    0.136868
   111  H    0.139321
   112  H    0.172090
   113  H    0.142484
   114  H    0.130183
   115  H    0.125900
   116  H    0.130850
   117  H    0.131370
   118  H    0.125612
   119  H    0.127515
   120  H    0.137949
   121  H    0.158947
   122  H    0.142724
 Sum of Mulliken charges =  -0.00000

 Dipole moment (field-independent basis, Debye):
    X=              0.0002    Y=             -1.6234    Z=             -0.0003  Tot=              1.6234
 Quadrupole moment (field-independent basis, Debye-Ang):
   XX=           -432.5173   YY=           -409.0987   ZZ=           -416.5640
   XY=              0.0012   XZ=             -2.1780   YZ=             -0.0007

 1\1\GINC-NODE60\FOpt\RB3LYP\6-31G(d)\C72H46N4\WYKGROUP\05-Nov-2022\0\\
 #p b3lyp/6-31g(d) opt SCF=XQC\\Gaussian input prepared by ASE\\0,1\C,0
 .3613849581,-3.3968279999,-2.4385729291\C,1.3394291865,-2.5213515382,-
 2.9089010498\C,1.1770716892,-1.1509069789,-2.7300351916\C,0.0507107985
 ,-0.6131656889,-2.0848156821\C,-0.0745560091,0.8755231365,-1.988209491
 2\C,-1.2079483729,1.4907428472,-2.5459626446\C,-1.371340999,2.87268871
 8,-2.5456675732\C,-0.387222714,3.6813349324,-1.9783573601\C,0.75033355
 62,3.0935092559,-1.4335916482\C,0.9347685624,1.69941644,-1.4288493859\

 Normal termination of Gaussian 16 at Sat Nov  5 03:54:34 2022.
