 Gaussian 16, Revision B.01,
 Gaussian 16:  ES64L-G16RevB.01 20-Dec-2017

 -------------------------------------------------------------------
 #p b3lyp/6-31g(d) 6D 10F nosymm GFInput td=(50-50,nstate=2) SCF=XQC
 -------------------------------------------------------------------

 ------------------------------
 Gaussian input prepared by ASE
 ------------------------------
 Symbolic Z-matrix:
 Charge =  0 Multiplicity = 1

                          Input orientation:
 ---------------------------------------------------------------------
 Center     Atomic      Atomic             Coordinates (Angstroms)
 Number     Number       Type             X           Y           Z
 ---------------------------------------------------------------------
      1          6           0        0.361385   -3.396828   -2.438573
      2          6           0        1.339429   -2.521352   -2.908901
      3          6           0        1.177072   -1.150907   -2.730035
      4          6           0        0.050711   -0.613166   -2.084816
      5          6           0       -0.074556    0.875523   -1.988209
      6          6           0       -1.207948    1.490743   -2.545963
      7          6           0       -1.371341    2.872689   -2.545668
      8          6           0       -0.387223    3.681335   -1.978357
      9          6           0        0.750334    3.093509   -1.433592
     10          6           0        0.934769    1.699416   -1.428849
     11          6           0        2.209731    1.176470   -0.849686
     12          6           0        2.238950    0.167000    0.124255
     13          6           0        3.456596   -0.274999    0.650055
     14          7           0        3.480057   -1.300908    1.634205
     15          6           0        4.129470   -2.534385    1.510053
     16          6           0        4.796297   -3.077543    0.408904
     17          6           0        5.344869   -4.350789    0.548001
     18          6           0        5.229635   -5.070764    1.749698
     19          6           0        4.555803   -4.527165    2.839664
     20          6           0        3.996617   -3.248722    2.727989
     21          6           0        3.244485   -2.402307    3.631164
     22          6           0        2.822696   -2.538416    4.958831
     23          6           0        2.123120   -1.494706    5.558396
     24          6           0        1.842309   -0.316703    4.844093
     25          6           0        2.247339   -0.156826    3.520503
     26          6           0        2.943884   -1.210056    2.923639
     27          6           0        4.663378    0.274759    0.205038
     28          6           0        4.645365    1.285504   -0.759916
     29          7           0        5.862634    1.859586   -1.209433
     30          6           0        6.279799    1.961546   -2.543205
     31          6           0        5.651469    1.515254   -3.708990
     32          6           0        6.304671    1.727798   -4.921421
     33          6           0        7.556240    2.364111   -4.977393
     34          6           0        8.183414    2.794563   -3.811800
     35          6           0        7.549055    2.592847   -2.580627
     36          6           0        7.913083    2.888480   -1.210576
     37          6           0        9.020186    3.508203   -0.619357
     38          6           0        9.054136    3.659909    0.763612
     39          6           0        7.988475    3.204535    1.558507
     40          6           0        6.875110    2.583892    0.995642
     41          6           0        6.853457    2.422040   -0.392339
     42          6           0        3.424374    1.736165   -1.274353
     43          6           0       -0.952644   -1.502762   -1.624036
     44          6           0       -2.220387   -1.059392   -0.967771
     45          6           0       -2.237516   -0.183187    0.127861
     46          6           0       -3.448627    0.186784    0.720169
     47          7           0       -3.459865    1.077981    1.827967
     48          6           0       -4.109979    2.316590    1.870701
     49          6           0       -4.789481    2.995853    0.856260
     50          6           0       -5.335610    4.240239    1.163961
     51          6           0       -5.205720    4.800278    2.446615
     52          6           0       -4.519340    4.122026    3.449825
     53          6           0       -3.962274    2.868980    3.168524
     54          6           0       -3.199979    1.914450    3.946741
     55          6           0       -2.762402    1.879595    5.275817
     56          6           0       -2.056374    0.768283    5.728281
     57          6           0       -1.784739   -0.308141    4.865552
     58          6           0       -2.205529   -0.297364    3.537276
     59          6           0       -2.908483    0.823049    3.088670
     60          6           0       -4.660914   -0.302305    0.222418
     61          6           0       -4.654884   -1.180927   -0.864344
     62          7           0       -5.877729   -1.693562   -1.369554
     63          6           0       -6.859356   -2.356949   -0.619852
     64          6           0       -6.864930   -2.695512    0.736062
     65          6           0       -7.972099   -3.384094    1.227617
     66          6           0       -9.047290   -3.734581    0.393364
     67          6           0       -9.029369   -3.406715   -0.959024
     68          6           0       -7.928793   -2.715413   -1.478743
     69          6           0       -7.580562   -2.246206   -2.803710
     70          6           0       -8.229387   -2.288835   -4.043103
     71          6           0       -7.615544   -1.711944   -5.151090
     72          6           0       -6.362948   -1.087090   -5.028565
     73          6           0       -5.695492   -1.031304   -3.806588
     74          6           0       -6.310501   -1.623929   -2.700429
     75          6           0       -3.440305   -1.560942   -1.446530
     76          6           0       -0.769311   -2.884592   -1.809698
     77          1           0        0.476333   -4.470381   -2.558239
     78          1           0        2.222612   -2.901156   -3.414972
     79          1           0        1.931196   -0.469196   -3.110834
     80          1           0       -1.966973    0.862945   -3.002245
     81          1           0       -2.260072    3.313610   -2.988519
     82          1           0       -0.502745    4.761283   -1.957991
     83          1           0        1.512804    3.720676   -0.980380
     84          1           0        1.319519   -0.291263    0.470878
     85          1           0        4.882138   -2.529616   -0.523859
     86          1           0        5.871267   -4.794330   -0.292851
     87          1           0        5.669706   -6.060980    1.825868
     88          1           0        4.463001   -5.088197    3.765997
     89          1           0        3.045946   -3.444696    5.515915
     90          1           0        1.795219   -1.587363    6.590045
     91          1           0        1.292303    0.485351    5.327156
     92          1           0        2.029152    0.756293    2.976203
     93          1           0        5.604516   -0.084655    0.605985
     94          1           0        4.689171    1.015263   -3.675300
     95          1           0        5.833814    1.391204   -5.841088
     96          1           0        8.038306    2.516711   -5.938743
     97          1           0        9.156136    3.277537   -3.855147
     98          1           0        9.840171    3.869836   -1.234332
     99          1           0        9.908707    4.137511    1.234216
    100          1           0        8.028772    3.339118    2.635936
    101          1           0        6.053667    2.244409    1.617700
    102          1           0        3.423408    2.524412   -2.019732
    103          1           0       -1.313773    0.227556    0.519644
    104          1           0       -4.886691    2.571989   -0.137988
    105          1           0       -5.871667    4.787452    0.393212
    106          1           0       -5.644272    5.772140    2.654337
    107          1           0       -4.415231    4.559726    4.439291
    108          1           0       -2.978507    2.706751    5.947113
    109          1           0       -1.716209    0.728203    6.759342
    110          1           0       -1.229509   -1.164993    5.235241
    111          1           0       -1.994351   -1.132954    2.877846
    112          1           0       -5.597053    0.001973    0.677098
    113          1           0       -6.036039   -2.437979    1.386901
    114          1           0       -7.999919   -3.655794    2.279280
    115          1           0       -9.896656   -4.269268    0.808756
    116          1           0       -9.856735   -3.687121   -1.605698
    117          1           0       -9.202897   -2.763019   -4.136694
    118          1           0       -8.108903   -1.740352   -6.118385
    119          1           0       -5.902609   -0.634947   -5.902891
    120          1           0       -4.732505   -0.539014   -3.720270
    121          1           0       -3.448602   -2.247081   -2.286808
    122          1           0       -1.526916   -3.565287   -1.431823
 ---------------------------------------------------------------------

 SCF Done:  E(RB3LYP) =  -2990.49369587     A.U. after   16 cycles

 Excitation energies and oscillator strengths:

 Excited state symmetry could not be determined.
 Excited State   1:      Triplet-?Sym    3.1708 eV  391.02 nm  f=0.0000  <S**2>=2.000
     244 -> 255        0.13443
     245 -> 254       -0.23978
     248 -> 262       -0.31857
     249 -> 256        0.12232
     249 -> 259        0.35094
     250 -> 255       -0.10147
     252 -> 268        0.14366
     253 -> 267       -0.14869
 This state for optimization and/or second-order correction.
 Total Energy, E(TD-HF/TD-DFT) =  -2990.37717141
 Copying the excited state density for this state as the 1-particle RhoCI density.

 Excited state symmetry could not be determined.
 Excited State   2:      Triplet-?Sym    3.1750 eV  390.50 nm  f=0.0000  <S**2>=2.000
     244 -> 255        0.18723
     245 -> 254       -0.33233
     245 -> 261       -0.11255
     248 -> 262        0.22852
     249 -> 259       -0.25371
     250 -> 255       -0.13901
     251 -> 256       -0.11328
     252 -> 268       -0.10045
     253 -> 254        0.12834
     253 -> 267        0.10505

 Excited state symmetry could not be determined.
 Excited State   3:      Singlet-?Sym    3.6003 eV  344.37 nm  f=0.0134  <S**2>=0.000
     251 -> 254       -0.11975
     252 -> 255       -0.11474
     253 -> 254        0.67580

 Excited state symmetry could not be determined.
 Excited State   4:      Singlet-?Sym    3.6164 eV  342.84 nm  f=0.0195  <S**2>=0.000
     250 -> 254       -0.13828
     252 -> 254        0.67045
     253 -> 255       -0.12862

 Alpha  occ. eigenvalues --  -14.38683 -14.38683 -14.38288 -14.38288 -10.24976
 Alpha  occ. eigenvalues --  -10.24976 -10.24818 -10.24818 -10.22767 -10.22766
 Alpha  occ. eigenvalues --  -10.22688 -10.22688 -10.22453 -10.22453 -10.22445
 Alpha  occ. eigenvalues --  -10.22445 -10.22052 -10.22052 -10.21395 -10.21393
 Alpha  occ. eigenvalues --  -10.21319 -10.21294 -10.20840 -10.20840 -10.20708
 Alpha  occ. eigenvalues --  -10.20708 -10.20701 -10.20701 -10.19978 -10.19977
 Alpha  occ. eigenvalues --  -10.19942 -10.19942 -10.19898 -10.19898 -10.19865
 Alpha  occ. eigenvalues --  -10.19865 -10.19182 -10.19182 -10.19082 -10.19082
 Alpha  occ. eigenvalues --  -10.19031 -10.19031 -10.19029 -10.19029 -10.19006
 Alpha  occ. eigenvalues --  -10.19006 -10.19003 -10.19003 -10.18954 -10.18954
 Alpha  occ. eigenvalues --  -10.18877 -10.18877 -10.18863 -10.18862 -10.18837
 Alpha  occ. eigenvalues --  -10.18837 -10.18828 -10.18828 -10.18776 -10.18776
 Alpha  occ. eigenvalues --  -10.18755 -10.18755 -10.18740 -10.18740 -10.18735
 Alpha  occ. eigenvalues --  -10.18735 -10.18596 -10.18596 -10.18412 -10.18412
 Alpha  occ. eigenvalues --  -10.18305 -10.18305 -10.18157 -10.18157 -10.18129
 Alpha  occ. eigenvalues --  -10.18129  -0.99441  -0.99441  -0.99058  -0.99057
 Alpha  occ. eigenvalues --   -0.89243  -0.88616  -0.87395  -0.85866  -0.85327
 Alpha  occ. eigenvalues --   -0.85323  -0.84508  -0.84507  -0.84266  -0.84237
 Alpha  occ. eigenvalues --   -0.83720  -0.83716  -0.79735  -0.79587  -0.79232
 Alpha  occ. eigenvalues --   -0.79202  -0.78325  -0.77084  -0.76971  -0.75787
 Alpha  occ. eigenvalues --   -0.75786  -0.75150  -0.75136  -0.74857  -0.74855
 Alpha  occ. eigenvalues --   -0.74163  -0.73922  -0.72849  -0.72185  -0.72071
 Alpha  occ. eigenvalues --   -0.71726  -0.71719  -0.71504  -0.71441  -0.71426
 Alpha  occ. eigenvalues --   -0.71365  -0.65610  -0.65401  -0.65246  -0.65194
 Alpha  occ. eigenvalues --   -0.64236  -0.63758  -0.62447  -0.62220  -0.61919
 Alpha  occ. eigenvalues --   -0.61265  -0.60685  -0.60495  -0.60450  -0.60246
 Alpha  occ. eigenvalues --   -0.60236  -0.59702  -0.58004  -0.57675  -0.57618
 Alpha  occ. eigenvalues --   -0.57436  -0.57319  -0.56983  -0.56925  -0.56861
 Alpha  occ. eigenvalues --   -0.54593  -0.54045  -0.52272  -0.51995  -0.51978
 Alpha  occ. eigenvalues --   -0.51744  -0.51730  -0.51400  -0.51376  -0.51329
 Alpha  occ. eigenvalues --   -0.51311  -0.50058  -0.49784  -0.49527  -0.49427
 Alpha  occ. eigenvalues --   -0.49423  -0.49073  -0.49019  -0.47236  -0.47070
 Alpha  occ. eigenvalues --   -0.45842  -0.45719  -0.45524  -0.45523  -0.45417
 Alpha  occ. eigenvalues --   -0.45405  -0.45304  -0.45226  -0.45053  -0.45029
 Alpha  occ. eigenvalues --   -0.43838  -0.43820  -0.43745  -0.43652  -0.43446
 Alpha  occ. eigenvalues --   -0.43427  -0.43268  -0.43200  -0.43175  -0.43116
 Alpha  occ. eigenvalues --   -0.42723  -0.42607  -0.42572  -0.42130  -0.42127
 Alpha  occ. eigenvalues --   -0.41893  -0.41890  -0.41619  -0.41588  -0.41549
 Alpha  occ. eigenvalues --   -0.41507  -0.41382  -0.41268  -0.39403  -0.39141
 Alpha  occ. eigenvalues --   -0.39134  -0.38881  -0.38442  -0.38279  -0.37965
 Alpha  occ. eigenvalues --   -0.37200  -0.36820  -0.36640  -0.36625  -0.36540
 Alpha  occ. eigenvalues --   -0.36532  -0.36374  -0.36275  -0.36245  -0.36107
 Alpha  occ. eigenvalues --   -0.35438  -0.35313  -0.35277  -0.35183  -0.35004
 Alpha  occ. eigenvalues --   -0.34954  -0.34385  -0.34125  -0.34102  -0.33902
 Alpha  occ. eigenvalues --   -0.33878  -0.33731  -0.33726  -0.33472  -0.33470
 Alpha  occ. eigenvalues --   -0.32890  -0.32887  -0.32169  -0.32053  -0.28589
 Alpha  occ. eigenvalues --   -0.28200  -0.28096  -0.27951  -0.27817  -0.27721
 Alpha  occ. eigenvalues --   -0.27499  -0.26850  -0.26608  -0.25437  -0.25286
 Alpha  occ. eigenvalues --   -0.25232  -0.25094  -0.24990  -0.24255  -0.23156
 Alpha  occ. eigenvalues --   -0.21425  -0.21425  -0.21369  -0.20966  -0.20146
 Alpha  occ. eigenvalues --   -0.20140  -0.19998  -0.19948
 Alpha virt. eigenvalues --   -0.04871  -0.03671  -0.02868  -0.02837  -0.02836
 Alpha virt. eigenvalues --   -0.02817  -0.02782  -0.02574  -0.02377  -0.00309
 Alpha virt. eigenvalues --    0.00424   0.00516   0.00519   0.00670   0.00788

 Mulliken charges:
               1
     1  C   -0.125395
     2  C   -0.127964
     3  C   -0.165904
     4  C    0.023531
     5  C    0.023542
     6  C   -0.165888
     7  C   -0.127968
     8  C   -0.125394
     9  C   -0.180846
    10  C    0.046232
    11  C    0.040961
    12  C   -0.178847
    13  C    0.257096
    14  N   -0.738040
    15  C    0.314618
    16  C   -0.174806
    17  C   -0.142012
    18  C   -0.144678
    19  C   -0.197230
    20  C    0.058800
    21  C    0.061442
    22  C   -0.197756
    23  C   -0.150561
    24  C   -0.140476
    25  C   -0.178848
    26  C    0.311564
    27  C   -0.184522
    28  C    0.279011
    29  N   -0.745734
    30  C    0.311554
    31  C   -0.176884
    32  C   -0.142728
    33  C   -0.144110
    34  C   -0.196917
    35  C    0.060021
    36  C    0.059741
    37  C   -0.196659
    38  C   -0.144054
    39  C   -0.141419
    40  C   -0.176478
    41  C    0.312249
    42  C   -0.198250
    43  C    0.046245
    44  C    0.040964
    45  C   -0.178870
    46  C    0.257118
    47  N   -0.738014
    48  C    0.314607
    49  C   -0.174801
    50  C   -0.142007
    51  C   -0.144677
    52  C   -0.197238
    53  C    0.058806
    54  C    0.061438
    55  C   -0.197754
    56  C   -0.150560
    57  C   -0.140475
    58  C   -0.178840
    59  C    0.311541
    60  C   -0.184543
    61  C    0.279040
    62  N   -0.745736
    63  C    0.312250
    64  C   -0.176485
    65  C   -0.141420
    66  C   -0.144054
    67  C   -0.196659
    68  C    0.059750
    69  C    0.059994
    70  C   -0.196898
    71  C   -0.144108
    72  C   -0.142736
    73  C   -0.176894
    74  C    0.311557
    75  C   -0.198254
    76  C   -0.180848
    77  H    0.138949
    78  H    0.136505
    79  H    0.143005
    80  H    0.142998
    81  H    0.136506
    82  H    0.138950
    83  H    0.142722
    84  H    0.162612
    85  H    0.137530
    86  H    0.126875
    87  H    0.124300
    88  H    0.129958
    89  H    0.129744
    90  H    0.122999
    91  H    0.136860
    92  H    0.139330
    93  H    0.172090
    94  H    0.137943
    95  H    0.127514
    96  H    0.125612
    97  H    0.131369
    98  H    0.130851
    99  H    0.125900
   100  H    0.130183
   101  H    0.142483
   102  H    0.158948
   103  H    0.162621
   104  H    0.137522
   105  H    0.126876
   106  H    0.124301
   107  H    0.129959
   108  H    0.129742
   109  H    0.122998
   110  H    0.136870
   111  H    0.139320
   112  H    0.172091
   113  H    0.142484
   114  H    0.130183
   115  H    0.125900
   116  H    0.130850
   117  H    0.131370
   118  H    0.125612
   119  H    0.127516
   120  H    0.137946
   121  H    0.158947
   122  H    0.142723
 Sum of Mulliken charges =  -0.00000

 Dipole moment (field-independent basis, Debye):
    X=             -0.0094    Y=              0.1046    Z=             -1.6200  Tot=              1.6234
 Quadrupole moment (field-independent basis, Debye-Ang):
   XX=           -432.7985   YY=           -416.2529   ZZ=           -409.1407
   XY=             -0.4269   XZ=              0.1119   YZ=             -0.4559

 Normal termination of Gaussian 16 at Sat Nov  5 13:12:14 2022.
