 Gaussian 16, Revision B.01,
 Gaussian 16:  ES64L-G16RevB.01 20-Dec-2017

 -------------------------------------------------------------------
 #p b3lyp/6-31g(d) 6D 10F nosymm GFInput td=(50-50,nstate=2) SCF=XQC
 -------------------------------------------------------------------

 ------------------------------
 Gaussian input prepared by ASE
 ------------------------------
 Symbolic Z-matrix:
 Charge =  0 Multiplicity = 1

                          Input orientation:
 ---------------------------------------------------------------------
 Center     Atomic      Atomic             Coordinates (Angstroms)
 Number     Number       Type             X           Y           Z
 ---------------------------------------------------------------------
      1          6           0        3.134741    8.282195    0.232612
      2          6           0        1.816442    8.690182    0.450661
      3          6           0        0.792234    7.748096    0.504327
      4          6           0        1.075747    6.382965    0.341332
      5          6           0       -0.013853    5.377822    0.397981
      6          7           0       -1.268070    5.820119    0.577473
      7          6           0       -2.220043    4.875184    0.619309
      8          6           0       -3.623734    5.311658    0.819032
      9          6           0       -3.934959    6.676221    0.926902
     10          6           0       -5.253265    7.083984    1.114534
     11          6           0       -6.276124    6.135989    1.198055
     12          6           0       -5.973746    4.776116    1.092451
     13          6           0       -4.656686    4.364820    0.903570
     14          7           0       -1.983606    3.560677    0.491584
     15          6           0       -0.699553    3.210761    0.318550
     16          6           0       -0.385071    1.767372    0.175341
     17          6           0        0.942114    1.348524    0.017572
     18          6           0        1.255703   -0.010602   -0.114186
     19          6           0        2.664589   -0.453856   -0.280628
     20          6           0        2.986441   -1.514310   -1.159566
     21          6           0        4.290987   -1.961594   -1.339869
     22          6           0        5.305407   -1.331763   -0.614258
     23          6           0        5.018236   -0.256103    0.263144
     24          6           0        3.698707    0.172690    0.425748
     25          6           0        6.282076    0.176067    0.823706
     26          6           0        6.641647    1.165817    1.745736
     27          6           0        7.981240    1.313979    2.093240
     28          6           0        8.961792    0.477590    1.532382
     29          6           0        8.631129   -0.514745    0.611840
     30          6           0        7.286068   -0.650393    0.257600
     31          7           0        6.683831   -1.565166   -0.615671
     32          6           0        7.357846   -2.562893   -1.371005
     33          6           0        6.986256   -3.907778   -1.248194
     34          6           0        7.643356   -4.882370   -1.998868
     35          6           0        8.684491   -4.527404   -2.858868
     36          6           0        9.060480   -3.187556   -2.972985
     37          6           0        8.395436   -2.204278   -2.240884
     38          6           0        0.205064   -0.941196   -0.093398
     39          6           0       -1.133912   -0.548397    0.058695
     40          6           0       -2.226802   -1.555482    0.081238
     41          6           0       -2.046765   -2.798571    0.731622
     42          6           0       -3.042457   -3.768848    0.771277
     43          6           0       -4.255033   -3.489194    0.135903
     44          6           0       -4.472841   -2.247129   -0.511538
     45          6           0       -3.455167   -1.290485   -0.536682
     46          6           0       -5.824229   -2.277477   -1.032232
     47          6           0       -6.597124   -1.370176   -1.766040
     48          6           0       -7.891701   -1.724948   -2.134044
     49          6           0       -8.416567   -2.980039   -1.780699
     50          6           0       -7.668980   -3.901280   -1.050018
     51          6           0       -6.374308   -3.534361   -0.672831
     52          7           0       -5.413431   -4.265652    0.037120
     53          6           0       -5.584841   -5.574754    0.563575
     54          6           0       -4.697368   -6.597639    0.205839
     55          6           0       -4.863108   -7.878268    0.732755
     56          6           0       -5.921881   -8.152277    1.600788
     57          6           0       -6.811638   -7.134064    1.948866
     58          6           0       -6.641489   -5.845901    1.442132
     59          6           0       -1.414010    0.817346    0.197293
     60          7           0        0.317914    4.084415    0.266934
     61          6           0        2.402713    5.980360    0.122916
     62          6           0        3.424280    6.925317    0.068638
     63          1           0        3.933035    9.018626    0.190254
     64          1           0        1.586710    9.744553    0.578900
     65          1           0       -0.234296    8.052910    0.672672
     66          1           0       -3.133115    7.402652    0.860867
     67          1           0       -5.483945    8.142792    1.195981
     68          1           0       -7.304508    6.455623    1.345221
     69          1           0       -6.765786    4.035044    1.158205
     70          1           0       -4.410330    3.312418    0.821470
     71          1           0        1.723657    2.097674   -0.023844
     72          1           0        2.191596   -1.977191   -1.737213
     73          1           0        4.509792   -2.764539   -2.036016
     74          1           0        3.469929    0.979920    1.116058
     75          1           0        5.882868    1.806326    2.187771
     76          1           0        8.272835    2.078854    2.807301
     77          1           0       10.001361    0.602891    1.823048
     78          1           0        9.392768   -1.162617    0.190755
     79          1           0        6.193800   -4.180915   -0.558386
     80          1           0        7.348594   -5.923484   -1.899717
     81          1           0        9.199375   -5.289883   -3.436442
     82          1           0        9.865443   -2.902136   -3.644686
     83          1           0        8.665783   -1.158154   -2.345388
     84          1           0        0.435204   -1.997480   -0.198200
     85          1           0       -1.108903   -2.992099    1.244142
     86          1           0       -2.882228   -4.705570    1.294817
     87          1           0       -3.607846   -0.346928   -1.053281
     88          1           0       -6.188529   -0.403430   -2.048605
     89          1           0       -8.501542   -1.029159   -2.703180
     90          1           0       -9.426315   -3.242211   -2.084944
     91          1           0       -8.078000   -4.871838   -0.789510
     92          1           0       -3.891708   -6.385104   -0.489982
     93          1           0       -4.169790   -8.666420    0.452108
     94          1           0       -6.052672   -9.152690    2.003451
     95          1           0       -7.634484   -7.337402    2.628711
     96          1           0       -7.314429   -5.044225    1.729971
     97          1           0       -2.432431    1.155405    0.346581
     98          1           0        2.615564    4.925117   -0.004121
     99          1           0        4.447933    6.603356   -0.102581
 ---------------------------------------------------------------------

 SCF Done:  E(RB3LYP) =  -2468.22208103     A.U. after   15 cycles

 Excitation energies and oscillator strengths:

 Excited state symmetry could not be determined.
 Excited State   1:      Triplet-?Sym    2.8220 eV  439.35 nm  f=0.0000  <S**2>=2.000
     197 -> 209        0.13083
     201 -> 208       -0.13122
     202 -> 209       -0.31020
     204 -> 209        0.10790
     206 -> 209        0.36992
     206 -> 213        0.10951
     207 -> 208        0.16205
     207 -> 210        0.12153
     207 -> 212       -0.19492
 This state for optimization and/or second-order correction.
 Total Energy, E(TD-HF/TD-DFT) =  -2468.11837486
 Copying the excited state density for this state as the 1-particle RhoCI density.

 Excited state symmetry could not be determined.
 Excited State   2:      Triplet-?Sym    2.8821 eV  430.18 nm  f=0.0000  <S**2>=2.000
     203 -> 209        0.16782
     205 -> 209        0.10282
     207 -> 209        0.65059

 Excited state symmetry could not be determined.
 Excited State   3:      Singlet-?Sym    3.0991 eV  400.07 nm  f=0.0342  <S**2>=0.000
     207 -> 209        0.70014

 Excited state symmetry could not be determined.
 Excited State   4:      Singlet-?Sym    3.1397 eV  394.89 nm  f=0.0137  <S**2>=0.000
     207 -> 208        0.69858

 Alpha  occ. eigenvalues --  -14.38281 -14.38281 -14.33142 -14.33112 -14.33111
 Alpha  occ. eigenvalues --  -10.27045 -10.27045 -10.27019 -10.24079 -10.24079
 Alpha  occ. eigenvalues --  -10.22429 -10.22429 -10.22400 -10.22400 -10.20248
 Alpha  occ. eigenvalues --  -10.20248 -10.20240 -10.20240 -10.20156 -10.20156
 Alpha  occ. eigenvalues --  -10.20146 -10.20146 -10.19999 -10.19999 -10.19682
 Alpha  occ. eigenvalues --  -10.19682 -10.19570 -10.19569 -10.19460 -10.19415
 Alpha  occ. eigenvalues --  -10.19415 -10.19092 -10.19092 -10.19027 -10.19027
 Alpha  occ. eigenvalues --  -10.19001 -10.19001 -10.18934 -10.18934 -10.18908
 Alpha  occ. eigenvalues --  -10.18908 -10.18902 -10.18902 -10.18813 -10.18813
 Alpha  occ. eigenvalues --  -10.18785 -10.18785 -10.18773 -10.18773 -10.18737
 Alpha  occ. eigenvalues --  -10.18728 -10.18728 -10.18723 -10.18723 -10.18712
 Alpha  occ. eigenvalues --  -10.18712 -10.18698 -10.18698 -10.18391 -10.18390
 Alpha  occ. eigenvalues --  -10.18096 -10.18096  -1.01456  -0.98996  -0.98996
 Alpha  occ. eigenvalues --   -0.90041  -0.90036  -0.87248  -0.87152  -0.86287
 Alpha  occ. eigenvalues --   -0.85106  -0.84956  -0.84766  -0.84086  -0.84042
 Alpha  occ. eigenvalues --   -0.83518  -0.79278  -0.78743  -0.77063  -0.76724
 Alpha  occ. eigenvalues --   -0.76187  -0.75813  -0.75754  -0.75459  -0.75379
 Alpha  occ. eigenvalues --   -0.75336  -0.74388  -0.74380  -0.74111  -0.73365
 Alpha  occ. eigenvalues --   -0.71538  -0.71532  -0.71089  -0.70311  -0.67242
 Alpha  occ. eigenvalues --   -0.67197  -0.65050  -0.64556  -0.62749  -0.62551
 Alpha  occ. eigenvalues --   -0.62158  -0.61686  -0.61414  -0.61319  -0.60711
 Alpha  occ. eigenvalues --   -0.60493  -0.59990  -0.58302  -0.58277  -0.57838
 Alpha  occ. eigenvalues --   -0.57653  -0.57431  -0.56561  -0.56202  -0.53923
 Alpha  occ. eigenvalues --   -0.53901  -0.53487  -0.53433  -0.51636  -0.51508
 Alpha  occ. eigenvalues --   -0.51326  -0.51069  -0.50702  -0.49923  -0.48604
 Alpha  occ. eigenvalues --   -0.48356  -0.47799  -0.47008  -0.47008  -0.46810
 Alpha  occ. eigenvalues --   -0.46123  -0.45706  -0.45678  -0.45063  -0.44976
 Alpha  occ. eigenvalues --   -0.44761  -0.44653  -0.44565  -0.44188  -0.43940
 Alpha  occ. eigenvalues --   -0.43624  -0.43386  -0.43383  -0.43340  -0.43285
 Alpha  occ. eigenvalues --   -0.42994  -0.42901  -0.42167  -0.42031  -0.41944
 Alpha  occ. eigenvalues --   -0.41888  -0.41678  -0.41441  -0.41435  -0.41294
 Alpha  occ. eigenvalues --   -0.41059  -0.41037  -0.38394  -0.38178  -0.37834
 Alpha  occ. eigenvalues --   -0.37778  -0.37617  -0.37536  -0.37074  -0.36923
 Alpha  occ. eigenvalues --   -0.36420  -0.36317  -0.36110  -0.36097  -0.35997
 Alpha  occ. eigenvalues --   -0.35824  -0.35601  -0.35344  -0.34827  -0.34809
 Alpha  occ. eigenvalues --   -0.34729  -0.34451  -0.34310  -0.34002  -0.33699
 Alpha  occ. eigenvalues --   -0.33652  -0.33137  -0.32960  -0.32635  -0.32421
 Alpha  occ. eigenvalues --   -0.32374  -0.31558  -0.28197  -0.27802  -0.26799
 Alpha  occ. eigenvalues --   -0.26264  -0.26237  -0.26135  -0.25922  -0.25681
 Alpha  occ. eigenvalues --   -0.25644  -0.25478  -0.25042  -0.25032  -0.24480
 Alpha  occ. eigenvalues --   -0.24205  -0.23613  -0.23348  -0.21126  -0.21076
 Alpha  occ. eigenvalues --   -0.19484  -0.19189
 Alpha virt. eigenvalues --   -0.06302  -0.06262  -0.02748  -0.02658  -0.02269
 Alpha virt. eigenvalues --   -0.01918  -0.01411  -0.01403  -0.01300  -0.01284
 Alpha virt. eigenvalues --    0.00137   0.00190   0.00593   0.01889   0.02739

 Mulliken charges:
               1
     1  C   -0.116133
     2  C   -0.140162
     3  C   -0.156670
     4  C    0.076512
     5  C    0.449121
     6  N   -0.540816
     7  C    0.449120
     8  C    0.076518
     9  C   -0.156671
    10  C   -0.140164
    11  C   -0.116135
    12  C   -0.140773
    13  C   -0.157585
    14  N   -0.542999
    15  C    0.454786
    16  C    0.080336
    17  C   -0.223757
    18  C    0.091052
    19  C    0.082253
    20  C   -0.193748
    21  C   -0.179864
    22  C    0.319742
    23  C    0.063916
    24  C   -0.256196
    25  C    0.058224
    26  C   -0.197179
    27  C   -0.145447
    28  C   -0.141571
    29  C   -0.176539
    30  C    0.311385
    31  N   -0.736456
    32  C    0.263353
    33  C   -0.148921
    34  C   -0.142686
    35  C   -0.121100
    36  C   -0.142711
    37  C   -0.148867
    38  C   -0.226677
    39  C    0.091053
    40  C    0.082265
    41  C   -0.193756
    42  C   -0.179862
    43  C    0.319739
    44  C    0.063909
    45  C   -0.256195
    46  C    0.058223
    47  C   -0.197189
    48  C   -0.145437
    49  C   -0.141567
    50  C   -0.176557
    51  C    0.311395
    52  N   -0.736445
    53  C    0.263379
    54  C   -0.148932
    55  C   -0.142689
    56  C   -0.121091
    57  C   -0.142713
    58  C   -0.148885
    59  C   -0.223766
    60  N   -0.542993
    61  C   -0.157582
    62  C   -0.140778
    63  H    0.133048
    64  H    0.132885
    65  H    0.160607
    66  H    0.160606
    67  H    0.132885
    68  H    0.133048
    69  H    0.134787
    70  H    0.163529
    71  H    0.162475
    72  H    0.133341
    73  H    0.141553
    74  H    0.138433
    75  H    0.132820
    76  H    0.124971
    77  H    0.127019
    78  H    0.139636
    79  H    0.152196
    80  H    0.138644
    81  H    0.135679
    82  H    0.139038
    83  H    0.152932
    84  H    0.132794
    85  H    0.133341
    86  H    0.141553
    87  H    0.138431
    88  H    0.132820
    89  H    0.124970
    90  H    0.127019
    91  H    0.139637
    92  H    0.152195
    93  H    0.138644
    94  H    0.135678
    95  H    0.139038
    96  H    0.152935
    97  H    0.162477
    98  H    0.163530
    99  H    0.134787
 Sum of Mulliken charges =  -0.00000

 Dipole moment (field-independent basis, Debye):
    X=              0.7324    Y=             -3.3617    Z=             -0.3335  Tot=              3.4567
 Quadrupole moment (field-independent basis, Debye-Ang):
   XX=           -294.3881   YY=           -293.3110   ZZ=           -352.4526
   XY=              1.4344   XZ=            -16.6249   YZ=              2.2371

 Normal termination of Gaussian 16 at Sat Nov  5 10:59:27 2022.
