 Gaussian 16, Revision B.01,
 Gaussian 16:  ES64L-G16RevB.01 20-Dec-2017

 -----------------------------
 #p b3lyp/6-31g(d) opt SCF=XQC
 -----------------------------

 ------------------------------
 Gaussian input prepared by ASE
 ------------------------------
 Symbolic Z-matrix:
 Charge =  0 Multiplicity = 1

 SCF Done:  E(RB3LYP) =  -2468.20985127     A.U. after   15 cycles
 SCF Done:  E(RB3LYP) =  -2468.22153579     A.U. after   12 cycles
 SCF Done:  E(RB3LYP) =  -2468.22194520     A.U. after   11 cycles
 SCF Done:  E(RB3LYP) =  -2468.22203984     A.U. after   11 cycles
 SCF Done:  E(RB3LYP) =  -2468.22207512     A.U. after   11 cycles
 SCF Done:  E(RB3LYP) =  -2468.22208227     A.U. after   10 cycles
 SCF Done:  E(RB3LYP) =  -2468.22208341     A.U. after    9 cycles
 SCF Done:  E(RB3LYP) =  -2468.22208406     A.U. after    9 cycles
 SCF Done:  E(RB3LYP) =  -2468.22208458     A.U. after    9 cycles
 SCF Done:  E(RB3LYP) =  -2468.22208468     A.U. after    7 cycles
 SCF Done:  E(RB3LYP) =  -2468.22208471     A.U. after    6 cycles
 Optimization completed.
    -- Stationary point found.

                         Standard orientation:
 ---------------------------------------------------------------------
 Center     Atomic      Atomic             Coordinates (Angstroms)
 Number     Number       Type             X           Y           Z
 ---------------------------------------------------------------------
      1          6           0       -4.839834    7.330274    0.318916
      2          6           0       -3.634114    8.027424    0.208779
      3          6           0       -2.429375    7.333426    0.128910
      4          6           0       -2.416735    5.930010    0.157060
      5          6           0       -1.134464    5.188832    0.072281
      6          7           0       -0.000003    5.902049    0.000014
      7          6           0        1.134460    5.188833   -0.072241
      8          6           0        2.416727    5.930012   -0.157055
      9          6           0        2.429366    7.333428   -0.128920
     10          6           0        3.634103    8.027427   -0.208819
     11          6           0        4.839822    7.330278   -0.318972
     12          6           0        4.834880    5.933515   -0.348474
     13          6           0        3.632080    5.236225   -0.267573
     14          7           0        1.183308    3.848027   -0.072229
     15          6           0       -0.000001    3.218954    0.000029
     16          6           0       -0.000000    1.734777    0.000021
     17          6           0       -1.209986    1.030999    0.048770
     18          6           0       -1.226924   -0.369936    0.044743
     19          6           0       -2.511657   -1.115598    0.095580
     20          6           0       -2.626712   -2.299920    0.860320
     21          6           0       -3.809235   -3.028730    0.930237
     22          6           0       -4.910337   -2.561135    0.208312
     23          6           0       -4.832460   -1.369522   -0.555454
     24          6           0       -3.631928   -0.657227   -0.608563
     25          6           0       -6.139893   -1.162930   -1.143868
     26          6           0       -6.673023   -0.187598   -1.994476
     27          6           0       -8.000314   -0.293821   -2.399734
     28          6           0       -8.795649   -1.369114   -1.967556
     29          6           0       -8.290119   -2.352943   -1.120216
     30          6           0       -6.960425   -2.234041   -0.706874
     31          7           0       -6.205031   -3.080333    0.114874
     32          6           0       -6.673049   -4.266344    0.743063
     33          6           0       -6.015765   -5.483682    0.524103
     34          6           0       -6.472115   -6.643160    1.150583
     35          6           0       -7.594120   -6.601542    1.980604
     36          6           0       -8.254312   -5.389196    2.190239
     37          6           0       -7.792722   -4.221379    1.583419
     38          6           0        0.000001   -1.050330    0.000008
     39          6           0        1.226925   -0.369934   -0.044722
     40          6           0        2.511658   -1.115595   -0.095565
     41          6           0        2.626715   -2.299910   -0.860316
     42          6           0        3.809238   -3.028718   -0.930240
     43          6           0        4.910340   -2.561129   -0.208311
     44          6           0        4.832462   -1.369522    0.555467
     45          6           0        3.631929   -0.657229    0.608582
     46          6           0        6.139895   -1.162935    1.143882
     47          6           0        6.673024   -0.187611    1.994499
     48          6           0        8.000315   -0.293836    2.399756
     49          6           0        8.795651   -1.369124    1.967569
     50          6           0        8.290122   -2.352946    1.120219
     51          6           0        6.960428   -2.234041    0.706878
     52          7           0        6.205035   -3.080327   -0.114877
     53          6           0        6.673053   -4.266331   -0.743078
     54          6           0        6.015771   -5.483672   -0.524130
     55          6           0        6.472122   -6.643143   -1.150622
     56          6           0        7.594128   -6.601516   -1.980642
     57          6           0        8.254318   -5.389167   -2.190265
     58          6           0        7.792726   -4.221357   -1.583434
     59          6           0        1.209986    1.031000   -0.048735
     60          7           0       -1.183310    3.848026    0.072275
     61          6           0       -3.632088    5.236222    0.267562
     62          6           0       -4.834891    5.933512    0.348432
     63          1           0       -5.779321    7.873229    0.381880
     64          1           0       -3.633297    9.113871    0.185282
     65          1           0       -1.487774    7.863619    0.043467
     66          1           0        1.487767    7.863621   -0.043464
     67          1           0        3.633286    9.113874   -0.185332
     68          1           0        5.779307    7.873232   -0.381960
     69          1           0        5.770066    5.386979   -0.435454
     70          1           0        3.616194    4.152622   -0.290701
     71          1           0       -2.135841    1.589964    0.112809
     72          1           0       -1.770872   -2.637401    1.437692
     73          1           0       -3.873109   -3.923146    1.541102
     74          1           0       -3.559447    0.242906   -1.212709
     75          1           0       -6.055845    0.638740   -2.337476
     76          1           0       -8.425651    0.457151   -3.059335
     77          1           0       -9.827184   -1.439482   -2.302033
     78          1           0       -8.907780   -3.185026   -0.798850
     79          1           0       -5.159912   -5.514836   -0.142958
     80          1           0       -5.956221   -7.583638    0.977406
     81          1           0       -7.951595   -7.507899    2.461021
     82          1           0       -9.124403   -5.346999    2.839680
     83          1           0       -8.286056   -3.271372    1.763677
     84          1           0        0.000001   -2.136462    0.000003
     85          1           0        1.770876   -2.637387   -1.437692
     86          1           0        3.873114   -3.923129   -1.541113
     87          1           0        3.559448    0.242898    1.212736
     88          1           0        6.055845    0.638724    2.337506
     89          1           0        8.425651    0.457131    3.059364
     90          1           0        9.827186   -1.439495    2.302045
     91          1           0        8.907784   -3.185026    0.798846
     92          1           0        5.159918   -5.514833    0.142930
     93          1           0        5.956230   -7.583623   -0.977454
     94          1           0        7.951603   -7.507868   -2.461068
     95          1           0        9.124409   -5.346963   -2.839705
     96          1           0        8.286060   -3.271348   -1.763682
     97          1           0        2.135841    1.589966   -0.112770
     98          1           0       -3.616202    4.152620    0.290700
     99          1           0       -5.770078    5.386976    0.435399
 ---------------------------------------------------------------------

 The electronic state is 1-A.
 Alpha  occ. eigenvalues --  -14.38281 -14.38281 -14.33142 -14.33112 -14.33111
 Alpha  occ. eigenvalues --  -10.27045 -10.27045 -10.27020 -10.24079 -10.24079
 Alpha  occ. eigenvalues --  -10.22429 -10.22429 -10.22400 -10.22400 -10.20248
 Alpha  occ. eigenvalues --  -10.20248 -10.20240 -10.20240 -10.20156 -10.20156
 Alpha  occ. eigenvalues --  -10.20146 -10.20146 -10.19999 -10.19999 -10.19682
 Alpha  occ. eigenvalues --  -10.19682 -10.19570 -10.19569 -10.19460 -10.19415
 Alpha  occ. eigenvalues --  -10.19415 -10.19092 -10.19092 -10.19027 -10.19027
 Alpha  occ. eigenvalues --  -10.19001 -10.19001 -10.18934 -10.18934 -10.18908
 Alpha  occ. eigenvalues --  -10.18908 -10.18902 -10.18902 -10.18813 -10.18813
 Alpha  occ. eigenvalues --  -10.18785 -10.18785 -10.18773 -10.18773 -10.18737
 Alpha  occ. eigenvalues --  -10.18728 -10.18728 -10.18723 -10.18723 -10.18712
 Alpha  occ. eigenvalues --  -10.18712 -10.18698 -10.18698 -10.18391 -10.18390
 Alpha  occ. eigenvalues --  -10.18096 -10.18096  -1.01456  -0.98996  -0.98996
 Alpha  occ. eigenvalues --   -0.90041  -0.90036  -0.87248  -0.87152  -0.86287
 Alpha  occ. eigenvalues --   -0.85106  -0.84956  -0.84766  -0.84086  -0.84042
 Alpha  occ. eigenvalues --   -0.83518  -0.79278  -0.78743  -0.77063  -0.76724
 Alpha  occ. eigenvalues --   -0.76187  -0.75813  -0.75754  -0.75459  -0.75379
 Alpha  occ. eigenvalues --   -0.75336  -0.74388  -0.74380  -0.74111  -0.73365
 Alpha  occ. eigenvalues --   -0.71538  -0.71532  -0.71089  -0.70311  -0.67242
 Alpha  occ. eigenvalues --   -0.67197  -0.65050  -0.64556  -0.62749  -0.62551
 Alpha  occ. eigenvalues --   -0.62158  -0.61686  -0.61414  -0.61319  -0.60711
 Alpha  occ. eigenvalues --   -0.60493  -0.59990  -0.58302  -0.58277  -0.57838
 Alpha  occ. eigenvalues --   -0.57653  -0.57431  -0.56561  -0.56202  -0.53923
 Alpha  occ. eigenvalues --   -0.53901  -0.53487  -0.53433  -0.51636  -0.51508
 Alpha  occ. eigenvalues --   -0.51326  -0.51069  -0.50702  -0.49923  -0.48604
 Alpha  occ. eigenvalues --   -0.48356  -0.47799  -0.47008  -0.47008  -0.46810
 Alpha  occ. eigenvalues --   -0.46123  -0.45706  -0.45678  -0.45063  -0.44976
 Alpha  occ. eigenvalues --   -0.44761  -0.44653  -0.44565  -0.44188  -0.43940
 Alpha  occ. eigenvalues --   -0.43624  -0.43386  -0.43383  -0.43340  -0.43285
 Alpha  occ. eigenvalues --   -0.42994  -0.42901  -0.42167  -0.42031  -0.41944
 Alpha  occ. eigenvalues --   -0.41888  -0.41678  -0.41441  -0.41435  -0.41294
 Alpha  occ. eigenvalues --   -0.41059  -0.41037  -0.38394  -0.38178  -0.37834
 Alpha  occ. eigenvalues --   -0.37778  -0.37617  -0.37536  -0.37074  -0.36923
 Alpha  occ. eigenvalues --   -0.36420  -0.36317  -0.36110  -0.36097  -0.35997
 Alpha  occ. eigenvalues --   -0.35824  -0.35601  -0.35344  -0.34827  -0.34809
 Alpha  occ. eigenvalues --   -0.34729  -0.34451  -0.34310  -0.34002  -0.33699
 Alpha  occ. eigenvalues --   -0.33652  -0.33137  -0.32960  -0.32635  -0.32421
 Alpha  occ. eigenvalues --   -0.32374  -0.31558  -0.28197  -0.27802  -0.26799
 Alpha  occ. eigenvalues --   -0.26264  -0.26237  -0.26135  -0.25922  -0.25681
 Alpha  occ. eigenvalues --   -0.25644  -0.25478  -0.25042  -0.25032  -0.24480
 Alpha  occ. eigenvalues --   -0.24205  -0.23613  -0.23348  -0.21126  -0.21076
 Alpha  occ. eigenvalues --   -0.19484  -0.19189
 Alpha virt. eigenvalues --   -0.06302  -0.06262  -0.02748  -0.02658  -0.02269
 Alpha virt. eigenvalues --   -0.01918  -0.01411  -0.01403  -0.01300  -0.01284
 Alpha virt. eigenvalues --    0.00137   0.00190   0.00593   0.01889   0.02739

 Mulliken charges:
               1
     1  C   -0.116133
     2  C   -0.140165
     3  C   -0.156664
     4  C    0.076506
     5  C    0.449110
     6  N   -0.540804
     7  C    0.449110
     8  C    0.076506
     9  C   -0.156664
    10  C   -0.140165
    11  C   -0.116133
    12  C   -0.140781
    13  C   -0.157572
    14  N   -0.542985
    15  C    0.454760
    16  C    0.080341
    17  C   -0.223751
    18  C    0.091033
    19  C    0.082270
    20  C   -0.193745
    21  C   -0.179871
    22  C    0.319747
    23  C    0.063930
    24  C   -0.256214
    25  C    0.058230
    26  C   -0.197188
    27  C   -0.145449
    28  C   -0.141560
    29  C   -0.176539
    30  C    0.311378
    31  N   -0.736465
    32  C    0.263344
    33  C   -0.148908
    34  C   -0.142693
    35  C   -0.121101
    36  C   -0.142708
    37  C   -0.148865
    38  C   -0.226667
    39  C    0.091033
    40  C    0.082270
    41  C   -0.193745
    42  C   -0.179871
    43  C    0.319747
    44  C    0.063930
    45  C   -0.256214
    46  C    0.058230
    47  C   -0.197188
    48  C   -0.145449
    49  C   -0.141560
    50  C   -0.176539
    51  C    0.311378
    52  N   -0.736465
    53  C    0.263344
    54  C   -0.148908
    55  C   -0.142693
    56  C   -0.121101
    57  C   -0.142708
    58  C   -0.148865
    59  C   -0.223751
    60  N   -0.542985
    61  C   -0.157572
    62  C   -0.140781
    63  H    0.133049
    64  H    0.132885
    65  H    0.160606
    66  H    0.160606
    67  H    0.132885
    68  H    0.133049
    69  H    0.134787
    70  H    0.163528
    71  H    0.162476
    72  H    0.133340
    73  H    0.141555
    74  H    0.138433
    75  H    0.132820
    76  H    0.124972
    77  H    0.127018
    78  H    0.139636
    79  H    0.152197
    80  H    0.138644
    81  H    0.135679
    82  H    0.139039
    83  H    0.152932
    84  H    0.132793
    85  H    0.133340
    86  H    0.141555
    87  H    0.138433
    88  H    0.132820
    89  H    0.124972
    90  H    0.127018
    91  H    0.139636
    92  H    0.152197
    93  H    0.138644
    94  H    0.135679
    95  H    0.139039
    96  H    0.152932
    97  H    0.162476
    98  H    0.163528
    99  H    0.134787
 Sum of Mulliken charges =  -0.00000

 Dipole moment (field-independent basis, Debye):
    X=              0.0000    Y=             -3.4567    Z=             -0.0000  Tot=              3.4567
 Quadrupole moment (field-independent basis, Debye-Ang):
   XX=           -292.7242   YY=           -292.8305   ZZ=           -354.0253
   XY=              0.0001   XZ=            -13.7699   YZ=             -0.0000

 1\1\GINC-NODE74\FOpt\RB3LYP\6-31G(d)\C57H37N5\WYKGROUP\05-Nov-2022\0\\
 #p b3lyp/6-31g(d) opt SCF=XQC\\Gaussian input prepared by ASE\\0,1\C,3
 .1347410577,8.282194976,0.2326117679\C,1.8164423042,8.6901824499,0.450
 6609491\C,0.7922343442,7.7480962278,0.5043269122\C,1.0757469916,6.3829
 652882,0.3413324005\C,-0.0138530935,5.3778221516,0.3979807223\N,-1.268
 0701876,5.820119099,0.5774731583\C,-2.2200425324,4.8751835697,0.619308
 5932\C,-3.6237343834,5.3116576274,0.8190323394\C,-3.9349586326,6.67622
 08618,0.9269015246\C,-5.2532649397,7.0839844441,1.1145335276\C,-6.2761

 Normal termination of Gaussian 16 at Sat Nov  5 01:12:49 2022.
