 Gaussian 16, Revision B.01,
 Gaussian 16:  ES64L-G16RevB.01 20-Dec-2017

 -----------------------------
 #p b3lyp/6-31g(d) opt SCF=XQC
 -----------------------------

 ------------------------------
 Gaussian input prepared by ASE
 ------------------------------
 Symbolic Z-matrix:
 Charge =  0 Multiplicity = 1

 SCF Done:  E(RB3LYP) =  -2012.11010198     A.U. after   16 cycles
 SCF Done:  E(RB3LYP) =  -2012.11947636     A.U. after   15 cycles
 SCF Done:  E(RB3LYP) =  -2012.11888191     A.U. after   15 cycles
 SCF Done:  E(RB3LYP) =  -2012.12213776     A.U. after   13 cycles
 SCF Done:  E(RB3LYP) =  -2012.12261580     A.U. after   12 cycles
 SCF Done:  E(RB3LYP) =  -2012.12271889     A.U. after   12 cycles
 SCF Done:  E(RB3LYP) =  -2012.12275348     A.U. after   11 cycles
 SCF Done:  E(RB3LYP) =  -2012.12277714     A.U. after   11 cycles
 SCF Done:  E(RB3LYP) =  -2012.12278780     A.U. after   10 cycles
 SCF Done:  E(RB3LYP) =  -2012.12279108     A.U. after    9 cycles
 SCF Done:  E(RB3LYP) =  -2012.12279199     A.U. after    9 cycles
 SCF Done:  E(RB3LYP) =  -2012.12279210     A.U. after    9 cycles
 SCF Done:  E(RB3LYP) =  -2012.12279211     A.U. after    6 cycles
 SCF Done:  E(RB3LYP) =  -2012.12279212     A.U. after    6 cycles
 Optimization completed.
    -- Stationary point found.

                         Standard orientation:
 ---------------------------------------------------------------------
 Center     Atomic      Atomic             Coordinates (Angstroms)
 Number     Number       Type             X           Y           Z
 ---------------------------------------------------------------------
      1          6           0        1.833215   -3.652476   -2.740718
      2          6           0        2.419501   -2.457264   -3.161700
      3          6           0        3.313566   -1.780769   -2.331975
      4          6           0        3.610787   -2.291452   -1.062178
      5          7           0        4.512754   -1.599079   -0.208485
      6          6           0        5.681933   -2.128916    0.349590
      7          6           0        6.247797   -3.396167    0.186133
      8          6           0        7.444589   -3.661957    0.848403
      9          6           0        8.069655   -2.691988    1.651202
     10          6           0        7.507594   -1.427648    1.800731
     11          6           0        6.305430   -1.133613    1.145957
     12          6           0        5.472892    0.046675    1.066529
     13          6           0        5.543517    1.328032    1.624799
     14          6           0        4.540987    2.249356    1.349678
     15          6           0        3.440677    1.922398    0.521348
     16          6           0        2.374763    2.923500    0.259823
     17          6           0        2.702338    4.289023    0.083312
     18          6           0        1.727146    5.244133   -0.173899
     19          6           0        0.385637    4.853768   -0.253217
     20          6           0       -0.852664    5.556490   -0.509993
     21          6           0       -1.169312    6.897658   -0.756513
     22          6           0       -2.500511    7.256397   -0.947319
     23          6           0       -3.517338    6.288346   -0.885876
     24          6           0       -3.229694    4.946549   -0.642451
     25          6           0       -1.890217    4.590125   -0.465792
     26          7           0       -1.330896    3.334776   -0.191668
     27          6           0       -2.047038    2.116223   -0.073030
     28          6           0       -1.918930    1.328072    1.078318
     29          6           0       -2.606339    0.121904    1.185028
     30          6           0       -3.465651   -0.296094    0.160468
     31          7           0       -4.182891   -1.514333    0.278468
     32          6           0       -5.030965   -1.867199    1.336465
     33          6           0       -5.389838   -1.132958    2.470188
     34          6           0       -6.280241   -1.719378    3.367321
     35          6           0       -6.807804   -3.002625    3.143483
     36          6           0       -6.457312   -3.723038    2.005434
     37          6           0       -5.564986   -3.156967    1.087475
     38          6           0       -5.014541   -3.603557   -0.175330
     39          6           0       -5.153954   -4.775041   -0.928543
     40          6           0       -4.452571   -4.900601   -2.124198
     41          6           0       -3.607538   -3.869175   -2.568208
     42          6           0       -3.450502   -2.692854   -1.837930
     43          6           0       -4.168928   -2.566841   -0.645771
     44          6           0       -3.609833    0.502212   -0.981887
     45          6           0       -2.890772    1.687928   -1.106471
     46          6           0        0.056485    3.488542   -0.063357
     47          6           0        1.032584    2.523311    0.182505
     48          6           0        3.362451    0.641792   -0.044873
     49          6           0        4.377351   -0.275668    0.226246
     50          6           0        3.016333   -3.485628   -0.635260
     51          6           0        2.138093   -4.165879   -1.478523
     52          1           0        1.142370   -4.180791   -3.391637
     53          1           0        2.192030   -2.054210   -4.144791
     54          1           0        3.791452   -0.863993   -2.663044
     55          1           0        5.775637   -4.147075   -0.438735
     56          1           0        7.903492   -4.640732    0.737503
     57          1           0        9.001421   -2.932189    2.155306
     58          1           0        7.996676   -0.675677    2.414570
     59          1           0        6.367979    1.598611    2.279382
     60          1           0        4.581629    3.233487    1.806015
     61          1           0        3.745278    4.587930    0.118129
     62          1           0        2.007751    6.283331   -0.324511
     63          1           0       -0.384790    7.648976   -0.793525
     64          1           0       -2.758238    8.293746   -1.140710
     65          1           0       -4.551820    6.589192   -1.027616
     66          1           0       -4.022632    4.208162   -0.585630
     67          1           0       -1.275075    1.661646    1.885713
     68          1           0       -2.482760   -0.499738    2.065980
     69          1           0       -4.996061   -0.137392    2.646121
     70          1           0       -6.572933   -1.168326    4.256936
     71          1           0       -7.498223   -3.432074    3.863747
     72          1           0       -6.874122   -4.711073    1.828101
     73          1           0       -5.799315   -5.577578   -0.580947
     74          1           0       -4.554926   -5.804109   -2.718495
     75          1           0       -3.061521   -3.988880   -3.500146
     76          1           0       -2.786841   -1.906790   -2.182607
     77          1           0       -4.283631    0.187347   -1.772294
     78          1           0       -2.983964    2.290422   -2.004344
     79          1           0        0.763910    1.483974    0.335993
     80          1           0        2.538900    0.382088   -0.701003
     81          1           0        3.238216   -3.866274    0.356920
     82          1           0        1.680292   -5.091651   -1.141152
 ---------------------------------------------------------------------

 The electronic state is 1-A.
 Alpha  occ. eigenvalues --  -14.38630 -14.38566 -14.38093 -10.24710 -10.24696
 Alpha  occ. eigenvalues --  -10.23937 -10.22727 -10.22696 -10.22657 -10.22636
 Alpha  occ. eigenvalues --  -10.22344 -10.22305 -10.21054 -10.21021 -10.20998
 Alpha  occ. eigenvalues --  -10.20962 -10.20135 -10.20112 -10.20035 -10.20034
 Alpha  occ. eigenvalues --  -10.19900 -10.19755 -10.19610 -10.19137 -10.19095
 Alpha  occ. eigenvalues --  -10.19069 -10.19052 -10.19042 -10.19029 -10.19026
 Alpha  occ. eigenvalues --  -10.19000 -10.18992 -10.18986 -10.18950 -10.18946
 Alpha  occ. eigenvalues --  -10.18905 -10.18885 -10.18813 -10.18801 -10.18714
 Alpha  occ. eigenvalues --  -10.18688 -10.18665 -10.18633 -10.18614 -10.18611
 Alpha  occ. eigenvalues --  -10.18436 -10.18357 -10.18311 -10.18186 -10.18031
 Alpha  occ. eigenvalues --  -10.18028  -0.99391  -0.99202  -0.98853  -0.88215
 Alpha  occ. eigenvalues --   -0.87057  -0.85854  -0.85231  -0.84523  -0.84020
 Alpha  occ. eigenvalues --   -0.83897  -0.83463  -0.79932  -0.78717  -0.77525
 Alpha  occ. eigenvalues --   -0.76965  -0.75925  -0.75773  -0.75257  -0.75121
 Alpha  occ. eigenvalues --   -0.74919  -0.74571  -0.73305  -0.73149  -0.71720
 Alpha  occ. eigenvalues --   -0.71353  -0.70705  -0.69833  -0.65933  -0.64788
 Alpha  occ. eigenvalues --   -0.63736  -0.63470  -0.62510  -0.62167  -0.61039
 Alpha  occ. eigenvalues --   -0.60809  -0.60328  -0.59659  -0.59135  -0.58080
 Alpha  occ. eigenvalues --   -0.57870  -0.57604  -0.57244  -0.56585  -0.54465
 Alpha  occ. eigenvalues --   -0.53831  -0.53307  -0.52294  -0.51765  -0.51243
 Alpha  occ. eigenvalues --   -0.50793  -0.50139  -0.49254  -0.48961  -0.48131
 Alpha  occ. eigenvalues --   -0.47065  -0.46866  -0.46608  -0.45920  -0.45637
 Alpha  occ. eigenvalues --   -0.45546  -0.45367  -0.44803  -0.44363  -0.44164
 Alpha  occ. eigenvalues --   -0.44097  -0.43762  -0.43562  -0.43338  -0.43211
 Alpha  occ. eigenvalues --   -0.43126  -0.42975  -0.42712  -0.42604  -0.42159
 Alpha  occ. eigenvalues --   -0.41966  -0.41785  -0.41455  -0.41252  -0.41136
 Alpha  occ. eigenvalues --   -0.40306  -0.38436  -0.38146  -0.37541  -0.37355
 Alpha  occ. eigenvalues --   -0.37244  -0.36686  -0.36525  -0.36443  -0.36155
 Alpha  occ. eigenvalues --   -0.35985  -0.35746  -0.35620  -0.35341  -0.34649
 Alpha  occ. eigenvalues --   -0.34154  -0.34003  -0.33750  -0.33626  -0.33574
 Alpha  occ. eigenvalues --   -0.33334  -0.33078  -0.32294  -0.31919  -0.28994
 Alpha  occ. eigenvalues --   -0.28073  -0.27203  -0.26866  -0.26645  -0.26145
 Alpha  occ. eigenvalues --   -0.26004  -0.25294  -0.25229  -0.24956  -0.22404
 Alpha  occ. eigenvalues --   -0.21453  -0.20637  -0.19751  -0.19648  -0.19571
 Alpha virt. eigenvalues --   -0.04178  -0.02918  -0.02859  -0.02317  -0.01675
 Alpha virt. eigenvalues --   -0.01464  -0.01191   0.00434   0.00495   0.00808
 Alpha virt. eigenvalues --    0.02375   0.02958   0.03547   0.03742   0.04186

 Mulliken charges:
               1
     1  C   -0.120728
     2  C   -0.143321
     3  C   -0.147583
     4  C    0.259716
     5  N   -0.739010
     6  C    0.315006
     7  C   -0.177700
     8  C   -0.141572
     9  C   -0.145140
    10  C   -0.196975
    11  C    0.057380
    12  C    0.067273
    13  C   -0.203075
    14  C   -0.196606
    15  C    0.083944
    16  C    0.084687
    17  C   -0.196093
    18  C   -0.203027
    19  C    0.067412
    20  C    0.057751
    21  C   -0.196946
    22  C   -0.144712
    23  C   -0.141485
    24  C   -0.178510
    25  C    0.314274
    26  N   -0.746172
    27  C    0.281068
    28  C   -0.165673
    29  C   -0.165708
    30  C    0.280958
    31  N   -0.738340
    32  C    0.311708
    33  C   -0.176787
    34  C   -0.141650
    35  C   -0.144374
    36  C   -0.196822
    37  C    0.060153
    38  C    0.059727
    39  C   -0.197048
    40  C   -0.144775
    41  C   -0.142506
    42  C   -0.176151
    43  C    0.311970
    44  C   -0.166110
    45  C   -0.166005
    46  C    0.318112
    47  C   -0.237774
    48  C   -0.237410
    49  C    0.318874
    50  C   -0.147725
    51  C   -0.142066
    52  H    0.135017
    53  H    0.138405
    54  H    0.153666
    55  H    0.139454
    56  H    0.126633
    57  H    0.123929
    58  H    0.129559
    59  H    0.131023
    60  H    0.128146
    61  H    0.129736
    62  H    0.131791
    63  H    0.130925
    64  H    0.125374
    65  H    0.128010
    66  H    0.138861
    67  H    0.161971
    68  H    0.160488
    69  H    0.139494
    70  H    0.128589
    71  H    0.125566
    72  H    0.130687
    73  H    0.130937
    74  H    0.124579
    75  H    0.125092
    76  H    0.139769
    77  H    0.158943
    78  H    0.159051
    79  H    0.143641
    80  H    0.143142
    81  H    0.152341
    82  H    0.140746
 Sum of Mulliken charges =  -0.00000

 Dipole moment (field-independent basis, Debye):
    X=             -1.0012    Y=             -0.9502    Z=             -0.9535  Tot=              1.6776
 Quadrupole moment (field-independent basis, Debye-Ang):
   XX=           -287.9390   YY=           -271.2665   ZZ=           -279.5595
   XY=             -0.0041   XZ=              2.0045   YZ=              3.7322

 1\1\GINC-NODE91\FOpt\RB3LYP\6-31G(d)\C48H31N3\WYKGROUP\05-Nov-2022\0\\
 #p b3lyp/6-31g(d) opt SCF=XQC\\Gaussian input prepared by ASE\\0,1\C,-
 2.2687206627,-3.5223817502,-2.4523834302\C,-2.8398337407,-3.4634869471
 ,-1.1796498641\C,-3.6169679095,-2.3670379617,-0.8064152601\C,-3.810257
 4397,-1.3100680642,-1.7047330604\N,-4.5921840585,-0.1850729859,-1.3243
 46755\C,-5.7231980151,0.2912160271,-1.9974818316\C,-6.3581957838,-0.21
 60399802,-3.1342820445\C,-7.4946687167,0.4474342446,-3.5923092127\C,-7
 .9939721583,1.5857039696,-2.9357487699\C,-7.3642542019,2.0793404866,-1

 Normal termination of Gaussian 16 at Sat Nov  5 01:16:16 2022.
