 Gaussian 16, Revision B.01,
 Gaussian 16:  ES64L-G16RevB.01 20-Dec-2017

 -------------------------------------------------------------------
 #p b3lyp/6-31g(d) 6D 10F nosymm GFInput td=(50-50,nstate=2) SCF=XQC
 -------------------------------------------------------------------

 ------------------------------
 Gaussian input prepared by ASE
 ------------------------------
 Symbolic Z-matrix:
 Charge =  0 Multiplicity = 1

                          Input orientation:
 ---------------------------------------------------------------------
 Center     Atomic      Atomic             Coordinates (Angstroms)
 Number     Number       Type             X           Y           Z
 ---------------------------------------------------------------------
      1          6           0       -2.268721   -3.522382   -2.452383
      2          6           0       -2.839834   -3.463487   -1.179650
      3          6           0       -3.616968   -2.367038   -0.806415
      4          6           0       -3.810257   -1.310068   -1.704733
      5          7           0       -4.592184   -0.185073   -1.324347
      6          6           0       -5.723198    0.291216   -1.997482
      7          6           0       -6.358196   -0.216040   -3.134282
      8          6           0       -7.494669    0.447434   -3.592309
      9          6           0       -7.993972    1.585704   -2.935749
     10          6           0       -7.364254    2.079340   -1.797062
     11          6           0       -6.220448    1.431568   -1.314901
     12          6           0       -5.348094    1.653669   -0.182568
     13          6           0       -5.306401    2.604639    0.843321
     14          6           0       -4.295817    2.540007    1.794182
     15          6           0       -3.297960    1.537059    1.748445
     16          6           0       -2.219476    1.504479    2.769515
     17          6           0       -2.501768    1.820794    4.119838
     18          6           0       -1.515096    1.786971    5.096940
     19          6           0       -0.206592    1.440525    4.741816
     20          6           0        1.030468    1.296237    5.478027
     21          6           0        1.380665    1.469583    6.822304
     22          6           0        2.701270    1.264687    7.211164
     23          6           0        3.675144    0.896283    6.267404
     24          6           0        3.353449    0.716707    4.923276
     25          6           0        2.023326    0.909969    4.541351
     26          7           0        1.438406    0.816713    3.271289
     27          6           0        2.107837    0.452372    2.075077
     28          6           0        2.058679    1.289168    0.952334
     29          6           0        2.698922    0.920771   -0.227976
     30          6           0        3.433838   -0.270274   -0.292571
     31          7           0        4.104311   -0.635229   -1.488288
     32          6           0        5.035808    0.151384   -2.178691
     33          6           0        5.536762    1.417397   -1.863279
     34          6           0        6.484128    1.972017   -2.721444
     35          6           0        6.929516    1.285265   -3.863875
     36          6           0        6.437084    0.018814   -4.164886
     37          6           0        5.484853   -0.561810   -3.319037
     38          6           0        4.793543   -1.834287   -3.318493
     39          6           0        4.805946   -2.939719   -4.176985
     40          6           0        3.985464   -4.027883   -3.894139
     41          6           0        3.147567   -4.016376   -2.765927
     42          6           0        3.115602   -2.928999   -1.895131
     43          6           0        3.952704   -1.845800   -2.176558
     44          6           0        3.500312   -1.097033    0.836635
     45          6           0        2.825933   -0.748705    2.003843
     46          6           0        0.078593    1.136671    3.387353
     47          6           0       -0.910545    1.156625    2.404452
     48          6           0       -3.332845    0.578053    0.725817
     49          6           0       -4.355949    0.641522   -0.219958
     50          6           0       -3.230394   -1.363929   -2.978526
     51          6           0       -2.470491   -2.472615   -3.350686
     52          1           0       -1.669440   -4.380627   -2.742824
     53          1           0       -2.692471   -4.279009   -0.476890
     54          1           0       -4.083853   -2.326494    0.172785
     55          1           0       -5.983659   -1.099146   -3.641336
     56          1           0       -8.005330    0.072409   -4.475186
     57          1           0       -8.881388    2.080565   -3.319952
     58          1           0       -7.756652    2.954259   -1.285203
     59          1           0       -6.049620    3.396360    0.890552
     60          1           0       -4.247563    3.294803    2.572876
     61          1           0       -3.521893    2.063431    4.400466
     62          1           0       -1.762658    2.015775    6.130245
     63          1           0        0.630503    1.765028    7.551203
     64          1           0        2.984604    1.394837    8.251692
     65          1           0        4.703018    0.750414    6.588260
     66          1           0        4.114501    0.443185    4.199965
     67          1           0        1.512845    2.225543    1.006859
     68          1           0        2.635075    1.557709   -1.104344
     69          1           0        5.206871    1.950660   -0.977860
     70          1           0        6.887127    2.956035   -2.497739
     71          1           0        7.667651    1.746703   -4.513581
     72          1           0        6.790071   -0.515776   -5.042955
     73          1           0        5.446034   -2.945378   -5.055412
     74          1           0        3.988577   -4.892454   -4.551785
     75          1           0        2.507745   -4.871749   -2.566087
     76          1           0        2.456875   -2.924022   -1.033041
     77          1           0        4.078417   -2.014558    0.793875
     78          1           0        2.857055   -1.404527    2.868012
     79          1           0       -0.674568    0.931758    1.370181
     80          1           0       -2.590199   -0.211465    0.689371
     81          1           0       -3.370312   -0.533143   -3.663189
     82          1           0       -2.023354   -2.508027   -4.340266
 ---------------------------------------------------------------------

 SCF Done:  E(RB3LYP) =  -2012.12279082     A.U. after   15 cycles

 Excitation energies and oscillator strengths:

 Excited state symmetry could not be determined.
 Excited State   1:      Triplet-?Sym    2.7912 eV  444.20 nm  f=0.0000  <S**2>=2.000
     165 ->176         0.16578
     168 ->171         0.15886
     168 ->180         0.10222
     169 ->171        -0.37960
     170 ->171         0.47530
 This state for optimization and/or second-order correction.
 Total Energy, E(TD-HF/TD-DFT) =  -2012.02021737
 Copying the excited state density for this state as the 1-particle RhoCI density.

 Excited state symmetry could not be determined.
 Excited State   2:      Triplet-?Sym    3.1921 eV  388.42 nm  f=0.0000  <S**2>=2.000
     165 ->171        -0.25316
     168 ->171         0.48844
     168 ->175         0.19058
     168 ->176        -0.21377
     168 ->180         0.10413
     169 ->176         0.11803
     170 ->176        -0.10567

 Excited state symmetry could not be determined.
 Excited State   3:      Singlet-?Sym    3.6982 eV  335.26 nm  f=0.1046  <S**2>=0.000
     167 ->171         0.11257
     168 ->171        -0.39458
     170 ->171         0.53207

 Excited state symmetry could not be determined.
 Excited State   4:      Singlet-?Sym    3.7274 eV  332.63 nm  f=0.0943  <S**2>=0.000
     167 ->171         0.15937
     168 ->171         0.47508
     169 ->171         0.38744
     170 ->171         0.24973

 Alpha  occ. eigenvalues --  -14.38630 -14.38566 -14.38093 -10.24710 -10.24697
 Alpha  occ. eigenvalues --  -10.23937 -10.22727 -10.22696 -10.22657 -10.22636
 Alpha  occ. eigenvalues --  -10.22344 -10.22305 -10.21054 -10.21021 -10.20997
 Alpha  occ. eigenvalues --  -10.20962 -10.20135 -10.20112 -10.20035 -10.20034
 Alpha  occ. eigenvalues --  -10.19900 -10.19755 -10.19610 -10.19137 -10.19095
 Alpha  occ. eigenvalues --  -10.19069 -10.19052 -10.19042 -10.19029 -10.19026
 Alpha  occ. eigenvalues --  -10.19000 -10.18992 -10.18986 -10.18950 -10.18946
 Alpha  occ. eigenvalues --  -10.18905 -10.18885 -10.18813 -10.18801 -10.18713
 Alpha  occ. eigenvalues --  -10.18687 -10.18665 -10.18633 -10.18614 -10.18611
 Alpha  occ. eigenvalues --  -10.18436 -10.18357 -10.18311 -10.18186 -10.18032
 Alpha  occ. eigenvalues --  -10.18027  -0.99391  -0.99202  -0.98853  -0.88215
 Alpha  occ. eigenvalues --   -0.87057  -0.85854  -0.85231  -0.84523  -0.84020
 Alpha  occ. eigenvalues --   -0.83896  -0.83463  -0.79932  -0.78717  -0.77525
 Alpha  occ. eigenvalues --   -0.76965  -0.75925  -0.75773  -0.75257  -0.75121
 Alpha  occ. eigenvalues --   -0.74919  -0.74571  -0.73305  -0.73149  -0.71720
 Alpha  occ. eigenvalues --   -0.71353  -0.70705  -0.69833  -0.65933  -0.64788
 Alpha  occ. eigenvalues --   -0.63736  -0.63470  -0.62510  -0.62167  -0.61039
 Alpha  occ. eigenvalues --   -0.60809  -0.60328  -0.59659  -0.59135  -0.58080
 Alpha  occ. eigenvalues --   -0.57870  -0.57604  -0.57244  -0.56585  -0.54465
 Alpha  occ. eigenvalues --   -0.53831  -0.53307  -0.52294  -0.51765  -0.51243
 Alpha  occ. eigenvalues --   -0.50793  -0.50139  -0.49254  -0.48961  -0.48131
 Alpha  occ. eigenvalues --   -0.47065  -0.46866  -0.46608  -0.45920  -0.45637
 Alpha  occ. eigenvalues --   -0.45546  -0.45367  -0.44803  -0.44363  -0.44164
 Alpha  occ. eigenvalues --   -0.44097  -0.43762  -0.43562  -0.43338  -0.43211
 Alpha  occ. eigenvalues --   -0.43126  -0.42975  -0.42712  -0.42604  -0.42159
 Alpha  occ. eigenvalues --   -0.41966  -0.41785  -0.41455  -0.41252  -0.41136
 Alpha  occ. eigenvalues --   -0.40306  -0.38437  -0.38146  -0.37541  -0.37355
 Alpha  occ. eigenvalues --   -0.37244  -0.36686  -0.36525  -0.36443  -0.36155
 Alpha  occ. eigenvalues --   -0.35985  -0.35746  -0.35620  -0.35341  -0.34649
 Alpha  occ. eigenvalues --   -0.34154  -0.34003  -0.33750  -0.33626  -0.33574
 Alpha  occ. eigenvalues --   -0.33334  -0.33078  -0.32294  -0.31919  -0.28994
 Alpha  occ. eigenvalues --   -0.28073  -0.27203  -0.26866  -0.26645  -0.26145
 Alpha  occ. eigenvalues --   -0.26004  -0.25294  -0.25229  -0.24956  -0.22404
 Alpha  occ. eigenvalues --   -0.21453  -0.20637  -0.19751  -0.19648  -0.19571
 Alpha virt. eigenvalues --   -0.04178  -0.02918  -0.02859  -0.02317  -0.01675
 Alpha virt. eigenvalues --   -0.01464  -0.01191   0.00434   0.00495   0.00808
 Alpha virt. eigenvalues --    0.02375   0.02958   0.03547   0.03742   0.04186

 Mulliken charges:
               1
     1  C   -0.120735
     2  C   -0.143317
     3  C   -0.147579
     4  C    0.259725
     5  N   -0.739011
     6  C    0.314993
     7  C   -0.177710
     8  C   -0.141557
     9  C   -0.145131
    10  C   -0.197008
    11  C    0.057427
    12  C    0.067238
    13  C   -0.203058
    14  C   -0.196600
    15  C    0.083929
    16  C    0.084701
    17  C   -0.196100
    18  C   -0.203035
    19  C    0.067424
    20  C    0.057732
    21  C   -0.196947
    22  C   -0.144706
    23  C   -0.141487
    24  C   -0.178521
    25  C    0.314291
    26  N   -0.746186
    27  C    0.281052
    28  C   -0.165670
    29  C   -0.165688
    30  C    0.280928
    31  N   -0.738339
    32  C    0.311723
    33  C   -0.176794
    34  C   -0.141655
    35  C   -0.144371
    36  C   -0.196815
    37  C    0.060128
    38  C    0.059713
    39  C   -0.197028
    40  C   -0.144773
    41  C   -0.142518
    42  C   -0.176148
    43  C    0.311985
    44  C   -0.166093
    45  C   -0.165976
    46  C    0.318108
    47  C   -0.237771
    48  C   -0.237401
    49  C    0.318872
    50  C   -0.147735
    51  C   -0.142054
    52  H    0.135016
    53  H    0.138404
    54  H    0.153664
    55  H    0.139453
    56  H    0.126630
    57  H    0.123928
    58  H    0.129559
    59  H    0.131023
    60  H    0.128145
    61  H    0.129735
    62  H    0.131791
    63  H    0.130926
    64  H    0.125374
    65  H    0.128011
    66  H    0.138862
    67  H    0.161969
    68  H    0.160488
    69  H    0.139495
    70  H    0.128590
    71  H    0.125566
    72  H    0.130688
    73  H    0.130935
    74  H    0.124578
    75  H    0.125095
    76  H    0.139764
    77  H    0.158940
    78  H    0.159048
    79  H    0.143642
    80  H    0.143142
    81  H    0.152341
    82  H    0.140744
 Sum of Mulliken charges =  -0.00000

 Dipole moment (field-independent basis, Debye):
    X=              0.8593    Y=             -1.3137    Z=             -0.5917  Tot=              1.6777
 Quadrupole moment (field-independent basis, Debye-Ang):
   XX=           -288.2084   YY=           -276.1990   ZZ=           -274.5958
   XY=             -0.4954   XZ=              1.4540   YZ=              5.2786

 Normal termination of Gaussian 16 at Sat Nov  5 11:21:02 2022.
