 Gaussian 16, Revision B.01,
 Gaussian 16:  ES64L-G16RevB.01 20-Dec-2017

 -----------------------------
 #p b3lyp/6-31g(d) opt SCF=XQC
 -----------------------------

 ------------------------------
 Gaussian input prepared by ASE
 ------------------------------
 Symbolic Z-matrix:
 Charge =  0 Multiplicity = 1

 SCF Done:  E(RB3LYP) =  -2461.75047247     A.U. after   15 cycles
 SCF Done:  E(RB3LYP) =  -2461.76541473     A.U. after   12 cycles
 SCF Done:  E(RB3LYP) =  -2461.76609055     A.U. after   11 cycles
 SCF Done:  E(RB3LYP) =  -2461.76615378     A.U. after   10 cycles
 SCF Done:  E(RB3LYP) =  -2461.76616498     A.U. after    9 cycles
 SCF Done:  E(RB3LYP) =  -2461.76616773     A.U. after    9 cycles
 SCF Done:  E(RB3LYP) =  -2461.76616871     A.U. after    8 cycles
 SCF Done:  E(RB3LYP) =  -2461.76616913     A.U. after    8 cycles
 SCF Done:  E(RB3LYP) =  -2461.76616932     A.U. after    7 cycles
 SCF Done:  E(RB3LYP) =  -2461.76616934     A.U. after    6 cycles
 Optimization completed.
    -- Stationary point found.

                         Standard orientation:
 ---------------------------------------------------------------------
 Center     Atomic      Atomic             Coordinates (Angstroms)
 Number     Number       Type             X           Y           Z
 ---------------------------------------------------------------------
      1          6           0       -0.526464   -1.831929    2.324067
      2          6           0       -0.503624   -1.725097    0.783081
      3          6           0       -0.290229   -0.254319    0.359902
      4          6           0        0.561705   -2.637929    0.173382
      5          6           0        1.932903   -2.615584    0.378126
      6          6           0        2.749188   -3.550417   -0.287709
      7          7           0        4.158750   -3.537042   -0.095978
      8          6           0        4.859120   -4.761801    0.083563
      9          6           0        4.325690   -5.774347    0.897414
     10          6           0        5.009077   -6.977634    1.061467
     11          6           0        6.239578   -7.187539    0.435232
     12          6           0        6.776450   -6.179180   -0.368073
     13          6           0        6.091977   -4.979460   -0.552899
     14          6           0        4.861928   -2.305301   -0.081148
     15          6           0        5.912807   -2.085344    0.824849
     16          6           0        6.601967   -0.877690    0.830254
     17          6           0        6.266996    0.166815   -0.049015
     18          6           0        6.998897    1.455570   -0.031831
     19          6           0        7.472829    2.010757    1.169406
     20          6           0        8.160740    3.219817    1.185431
     21          6           0        8.406348    3.935318    0.001478
     22          6           0        9.138921    5.225952    0.018796
     23          6           0        8.958046    6.146685    1.065446
     24          6           0        9.646533    7.358657    1.082418
     25          6           0       10.531707    7.679750    0.051658
     26          6           0       10.721779    6.776167   -0.995481
     27          6           0       10.034164    5.563684   -1.010970
     28          6           0        7.931756    3.381777   -1.199515
     29          6           0        7.246397    2.171273   -1.216025
     30          6           0        5.208358   -0.062486   -0.945179
     31          6           0        4.523403   -1.272235   -0.970930
     32          6           0        2.159369   -4.499150   -1.142597
     33          6           0        0.779144   -4.532751   -1.330550
     34          6           0       -0.026282   -3.597592   -0.676127
     35          6           0       -1.475408   -3.389363   -0.683017
     36          6           0       -2.505383   -4.060949   -1.346082
     37          6           0       -3.822006   -3.639765   -1.170930
     38          6           0       -4.128501   -2.561915   -0.320706
     39          7           0       -5.479195   -2.151918   -0.142126
     40          6           0       -6.496262   -3.129998    0.036044
     41          6           0       -7.735424   -2.997938   -0.611583
     42          6           0       -8.730148   -3.956495   -0.428044
     43          6           0       -8.503939   -5.069078    0.385178
     44          6           0       -7.269049   -5.208026    1.022436
     45          6           0       -6.274461   -4.245695    0.859515
     46          6           0       -5.808159   -0.772966   -0.138244
     47          6           0       -5.181198    0.119406   -1.023698
     48          6           0       -5.498219    1.473095   -1.007403
     49          6           0       -6.462148    1.994388   -0.126629
     50          6           0       -6.807550    3.435594   -0.125069
     51          6           0       -5.804290    4.420330   -0.370893
     52          6           0       -6.104356    5.761013   -0.372958
     53          6           0       -7.427229    6.218058   -0.129559
     54          6           0       -7.772982    7.595018   -0.123427
     55          6           0       -9.069050    7.995526    0.114185
     56          6           0      -10.079957    7.032664    0.356471
     57          6           0       -9.775738    5.690083    0.358170
     58          6           0       -8.447039    5.243273    0.119675
     59          6           0       -8.103062    3.867424    0.112094
     60          6           0       -7.086033    1.090356    0.751105
     61          6           0       -6.765448   -0.262172    0.754704
     62          6           0       -3.088411   -1.893675    0.353888
     63          6           0       -1.777174   -2.301720    0.162197
     64          1           0       -0.676763   -2.867675    2.645137
     65          1           0       -1.336039   -1.222767    2.742439
     66          1           0        0.417740   -1.474534    2.751024
     67          1           0        0.658634    0.127981    0.753566
     68          1           0       -0.271661   -0.157092   -0.730413
     69          1           0       -1.096236    0.380185    0.746266
     70          1           0        2.390646   -1.889179    1.043423
     71          1           0        3.376039   -5.611126    1.396882
     72          1           0        4.581149   -7.749996    1.695337
     73          1           0        6.772645   -8.124201    0.571061
     74          1           0        7.729342   -6.330167   -0.868712
     75          1           0        6.506984   -4.205033   -1.190137
     76          1           0        6.193117   -2.870882    1.519170
     77          1           0        7.426849   -0.748266    1.525328
     78          1           0        7.284864    1.495691    2.107428
     79          1           0        8.528636    3.608644    2.130963
     80          1           0        8.250925    5.920278    1.858665
     81          1           0        9.483717    8.057797    1.898630
     82          1           0       11.068082    8.624710    0.064315
     83          1           0       11.414894    7.011169   -1.799141
     84          1           0       10.211549    4.856637   -1.816623
     85          1           0        8.087948    3.915979   -2.132683
     86          1           0        6.911664    1.764876   -2.166442
     87          1           0        4.905735    0.725842   -1.628775
     88          1           0        3.713129   -1.420324   -1.677509
     89          1           0        2.795218   -5.211408   -1.658506
     90          1           0        0.345329   -5.275865   -1.994941
     91          1           0       -2.292158   -4.897235   -2.007131
     92          1           0       -4.628040   -4.144933   -1.693347
     93          1           0       -7.911183   -2.142969   -1.256688
     94          1           0       -9.682962   -3.838237   -0.937567
     95          1           0       -9.279218   -5.817889    0.520001
     96          1           0       -7.079931   -6.064881    1.663903
     97          1           0       -5.321133   -4.351552    1.367368
     98          1           0       -4.450610   -0.256978   -1.732440
     99          1           0       -5.016016    2.131710   -1.724487
    100          1           0       -4.779128    4.099169   -0.531118
    101          1           0       -5.321399    6.494461   -0.552232
    102          1           0       -6.994216    8.330841   -0.310941
    103          1           0       -9.321919    9.052353    0.115598
    104          1           0      -11.099565    7.359923    0.541733
    105          1           0      -10.550685    4.949929    0.544157
    106          1           0       -8.894107    3.138715    0.271285
    107          1           0       -7.807164    1.460957    1.474326
    108          1           0       -7.247401   -0.930634    1.460855
    109          1           0       -3.329505   -1.066768    1.015643
 ---------------------------------------------------------------------

 The electronic state is 1-A.
 Alpha  occ. eigenvalues --  -14.36496 -14.36493 -10.22959 -10.22940 -10.22899
 Alpha  occ. eigenvalues --  -10.22897 -10.22867 -10.22857 -10.20714 -10.19770
 Alpha  occ. eigenvalues --  -10.19748 -10.19737 -10.19660 -10.19494 -10.19485
 Alpha  occ. eigenvalues --  -10.19426 -10.19414 -10.19032 -10.19030 -10.19029
 Alpha  occ. eigenvalues --  -10.19026 -10.19025 -10.19022 -10.18995 -10.18989
 Alpha  occ. eigenvalues --  -10.18967 -10.18939 -10.18920 -10.18918 -10.18902
 Alpha  occ. eigenvalues --  -10.18902 -10.18888 -10.18885 -10.18865 -10.18838
 Alpha  occ. eigenvalues --  -10.18827 -10.18825 -10.18810 -10.18807 -10.18800
 Alpha  occ. eigenvalues --  -10.18796 -10.18790 -10.18763 -10.18761 -10.18761
 Alpha  occ. eigenvalues --  -10.18758 -10.18755 -10.18752 -10.18728 -10.18727
 Alpha  occ. eigenvalues --  -10.18725 -10.18725 -10.18725 -10.18722 -10.18720
 Alpha  occ. eigenvalues --  -10.18720 -10.18717 -10.18717 -10.18652 -10.18603
 Alpha  occ. eigenvalues --  -10.18596 -10.17973 -10.17932  -0.96380  -0.96369
 Alpha  occ. eigenvalues --   -0.88564  -0.87209  -0.86813  -0.85619  -0.85515
 Alpha  occ. eigenvalues --   -0.85015  -0.84559  -0.83933  -0.83019  -0.81721
 Alpha  occ. eigenvalues --   -0.80750  -0.78434  -0.77512  -0.77155  -0.76079
 Alpha  occ. eigenvalues --   -0.75440  -0.75093  -0.74817  -0.74488  -0.74438
 Alpha  occ. eigenvalues --   -0.74311  -0.74251  -0.73819  -0.73605  -0.73395
 Alpha  occ. eigenvalues --   -0.72853  -0.72187  -0.71344  -0.70166  -0.68648
 Alpha  occ. eigenvalues --   -0.68646  -0.64978  -0.63685  -0.63336  -0.62811
 Alpha  occ. eigenvalues --   -0.62472  -0.62035  -0.61211  -0.60838  -0.60462
 Alpha  occ. eigenvalues --   -0.60228  -0.60161  -0.59782  -0.58901  -0.58783
 Alpha  occ. eigenvalues --   -0.58432  -0.58278  -0.57759  -0.56961  -0.56362
 Alpha  occ. eigenvalues --   -0.55280  -0.53493  -0.53263  -0.52764  -0.52517
 Alpha  occ. eigenvalues --   -0.51325  -0.50995  -0.50910  -0.50455  -0.49758
 Alpha  occ. eigenvalues --   -0.49350  -0.48402  -0.48179  -0.47588  -0.47489
 Alpha  occ. eigenvalues --   -0.46566  -0.45808  -0.45438  -0.45344  -0.45023
 Alpha  occ. eigenvalues --   -0.44719  -0.44603  -0.44436  -0.44329  -0.44132
 Alpha  occ. eigenvalues --   -0.44024  -0.43693  -0.43653  -0.43486  -0.43280
 Alpha  occ. eigenvalues --   -0.42972  -0.42808  -0.42740  -0.42529  -0.42357
 Alpha  occ. eigenvalues --   -0.42113  -0.42086  -0.41986  -0.41943  -0.41881
 Alpha  occ. eigenvalues --   -0.41602  -0.41280  -0.41167  -0.40493  -0.39985
 Alpha  occ. eigenvalues --   -0.39099  -0.38939  -0.38631  -0.38504  -0.38118
 Alpha  occ. eigenvalues --   -0.37963  -0.37444  -0.37167  -0.37015  -0.36693
 Alpha  occ. eigenvalues --   -0.36553  -0.36167  -0.36133  -0.35861  -0.35699
 Alpha  occ. eigenvalues --   -0.35597  -0.35427  -0.35255  -0.35060  -0.34988
 Alpha  occ. eigenvalues --   -0.34704  -0.34399  -0.34334  -0.34174  -0.33999
 Alpha  occ. eigenvalues --   -0.33396  -0.33395  -0.32801  -0.32781  -0.32294
 Alpha  occ. eigenvalues --   -0.32040  -0.31986  -0.31072  -0.29977  -0.28448
 Alpha  occ. eigenvalues --   -0.28037  -0.27250  -0.26153  -0.25594  -0.25521
 Alpha  occ. eigenvalues --   -0.25362  -0.24960  -0.24871  -0.24832  -0.24726
 Alpha  occ. eigenvalues --   -0.24527  -0.24240  -0.23759  -0.22947  -0.21677
 Alpha  occ. eigenvalues --   -0.21041  -0.18609  -0.17025
 Alpha virt. eigenvalues --   -0.04293  -0.03891  -0.03150  -0.01997  -0.01641
 Alpha virt. eigenvalues --   -0.01133  -0.00547  -0.00281   0.00094   0.00134
 Alpha virt. eigenvalues --    0.00275   0.00678   0.00717   0.01132   0.01471

 Mulliken charges:
               1
     1  C   -0.438334
     2  C   -0.062394
     3  C   -0.438941
     4  C    0.098317
     5  C   -0.254277
     6  C    0.287465
     7  N   -0.658567
     8  C    0.276744
     9  C   -0.162539
    10  C   -0.140061
    11  C   -0.128525
    12  C   -0.140022
    13  C   -0.163404
    14  C    0.291593
    15  C   -0.173091
    16  C   -0.188691
    17  C    0.095259
    18  C    0.095700
    19  C   -0.182327
    20  C   -0.181222
    21  C    0.093005
    22  C    0.089365
    23  C   -0.174049
    24  C   -0.133759
    25  C   -0.127042
    26  C   -0.133753
    27  C   -0.174043
    28  C   -0.181252
    29  C   -0.182330
    30  C   -0.188753
    31  C   -0.172568
    32  C   -0.177530
    33  C   -0.206802
    34  C    0.085668
    35  C    0.085861
    36  C   -0.206827
    37  C   -0.177190
    38  C    0.286654
    39  N   -0.658155
    40  C    0.276672
    41  C   -0.163086
    42  C   -0.140192
    43  C   -0.128445
    44  C   -0.140052
    45  C   -0.162469
    46  C    0.292378
    47  C   -0.172926
    48  C   -0.190595
    49  C    0.094509
    50  C    0.094836
    51  C   -0.177369
    52  C   -0.199167
    53  C    0.139626
    54  C   -0.192649
    55  C   -0.135394
    56  C   -0.137198
    57  C   -0.189611
    58  C    0.140282
    59  C   -0.262445
    60  C   -0.186848
    61  C   -0.173712
    62  C   -0.253676
    63  C    0.098123
    64  H    0.155488
    65  H    0.146694
    66  H    0.146446
    67  H    0.148557
    68  H    0.154348
    69  H    0.147767
    70  H    0.140251
    71  H    0.143610
    72  H    0.131306
    73  H    0.127670
    74  H    0.131694
    75  H    0.144412
    76  H    0.145683
    77  H    0.134250
    78  H    0.131255
    79  H    0.132307
    80  H    0.131889
    81  H    0.129930
    82  H    0.129089
    83  H    0.129954
    84  H    0.132004
    85  H    0.132300
    86  H    0.131506
    87  H    0.133877
    88  H    0.144968
    89  H    0.143099
    90  H    0.130869
    91  H    0.130898
    92  H    0.143109
    93  H    0.144554
    94  H    0.131495
    95  H    0.127642
    96  H    0.131363
    97  H    0.143687
    98  H    0.144904
    99  H    0.134460
   100  H    0.130718
   101  H    0.129811
   102  H    0.128955
   103  H    0.129171
   104  H    0.129290
   105  H    0.128637
   106  H    0.130306
   107  H    0.134148
   108  H    0.145490
   109  H    0.140367
 Sum of Mulliken charges =  -0.00000

 Dipole moment (field-independent basis, Debye):
    X=             -0.0004    Y=             -0.5449    Z=              0.2825  Tot=              0.6137
 Quadrupole moment (field-independent basis, Debye-Ang):
   XX=           -343.2020   YY=           -332.9529   ZZ=           -354.0763
   XY=              5.6455   XZ=             -4.2725   YZ=             -1.2838

 1\1\GINC-NODE75\FOpt\RB3LYP\6-31G(d)\C61H46N2\WYKGROUP\05-Nov-2022\0\\
 #p b3lyp/6-31g(d) opt SCF=XQC\\Gaussian input prepared by ASE\\0,1\C,0
 .4353713458,-1.3202090741,-2.5970978864\C,0.4558465017,-1.5697333946,-
 1.0726659\C,0.308396963,-0.2297696476,-0.3173116919\C,-0.6269366196,-2
 .5653197298,-0.6527740628\C,-2.0011185537,-2.4547048588,-0.8010682235\
 C,-2.8345028167,-3.4921903805,-0.3399120687\N,-4.2470125785,-3.3921210
 559,-0.4763167968\C,-4.9969909112,-4.5208883509,-0.9078334532\C,-4.522
 6815333,-5.3350837434,-1.9491145154\C,-5.254496861,-6.447041402,-2.361

 Normal termination of Gaussian 16 at Sat Nov  5 01:16:29 2022.
