 Gaussian 16, Revision B.01,
 Gaussian 16:  ES64L-G16RevB.01 20-Dec-2017

 -------------------------------------------------------------------
 #p b3lyp/6-31g(d) 6D 10F nosymm GFInput td=(50-50,nstate=2) SCF=XQC
 -------------------------------------------------------------------

 ------------------------------
 Gaussian input prepared by ASE
 ------------------------------
 Symbolic Z-matrix:
 Charge =  0 Multiplicity = 1

                          Input orientation:
 ---------------------------------------------------------------------
 Center     Atomic      Atomic             Coordinates (Angstroms)
 Number     Number       Type             X           Y           Z
 ---------------------------------------------------------------------
      1          6           0        0.435371   -1.320209   -2.597098
      2          6           0        0.455847   -1.569733   -1.072666
      3          6           0        0.308397   -0.229770   -0.317312
      4          6           0       -0.626937   -2.565320   -0.652774
      5          6           0       -2.001119   -2.454705   -0.801068
      6          6           0       -2.834503   -3.492190   -0.339912
      7          7           0       -4.247013   -3.392121   -0.476317
      8          6           0       -4.996991   -4.520888   -0.907833
      9          6           0       -4.522682   -5.335084   -1.949115
     10          6           0       -5.254497   -6.447041   -2.361217
     11          6           0       -6.475607   -6.757613   -1.758890
     12          6           0       -6.953780   -5.944962   -0.728712
     13          6           0       -6.220483   -4.841281   -0.297252
     14          6           0       -4.903844   -2.169081   -0.185438
     15          6           0       -5.968539   -1.714849   -0.981464
     16          6           0       -6.612025   -0.517833   -0.687394
     17          6           0       -6.215959    0.285928    0.395846
     18          6           0       -6.899414    1.565846    0.698438
     19          6           0       -7.382762    2.396426   -0.327390
     20          6           0       -8.025219    3.597213   -0.043373
     21          6           0       -8.213656    4.028622    1.280404
     22          6           0       -8.897715    5.310419    1.583319
     23          6           0       -8.709330    6.441087    0.769660
     24          6           0       -9.352278    7.644941    1.053441
     25          6           0      -10.198264    7.747401    2.159293
     26          6           0      -10.395185    6.633584    2.977659
     27          6           0       -9.753165    5.429600    2.692348
     28          6           0       -7.729594    3.199678    2.306351
     29          6           0       -7.089728    1.997453    2.022561
     30          6           0       -5.144113   -0.175370    1.179908
     31          6           0       -4.504387   -1.378972    0.905295
     32          6           0       -2.258920   -4.629534    0.255040
     33          6           0       -0.876568   -4.747514    0.384122
     34          6           0       -0.053729   -3.712004   -0.065495
     35          6           0        1.401867   -3.555233   -0.059539
     36          6           0        2.422616   -4.392322    0.397502
     37          6           0        3.749155   -3.982521    0.279499
     38          6           0        4.073911   -2.747989   -0.311304
     39          7           0        5.433981   -2.349321   -0.436339
     40          6           0        6.408932   -3.290832   -0.867431
     41          6           0        7.668276   -3.349002   -0.248519
     42          6           0        8.621498   -4.269606   -0.679621
     43          6           0        8.333225   -5.158086   -1.717813
     44          6           0        7.078156   -5.109129   -2.328356
     45          6           0        6.124685   -4.180120   -1.916454
     46          6           0        5.814013   -1.017080   -0.135593
     47          6           0        5.243608   -0.333387    0.950978
     48          6           0        5.610449    0.977497    1.234266
     49          6           0        6.570399    1.657601    0.464446
     50          6           0        6.969236    3.049366    0.781146
     51          6           0        6.010053    3.981382    1.279121
     52          6           0        6.359940    5.275911    1.577862
     53          6           0        7.692322    5.736091    1.401457
     54          6           0        8.088994    7.066400    1.698998
     55          6           0        9.392636    7.471070    1.516182
     56          6           0       10.360365    6.559286    1.026400
     57          6           0       10.006269    5.262953    0.727720
     58          6           0        8.668324    4.814034    0.901889
     59          6           0        8.273503    3.484419    0.605954
     60          6           0        7.137494    0.960886   -0.617180
     61          6           0        6.766628   -0.344188   -0.919438
     62          6           0        3.042639   -1.911197   -0.779989
     63          6           0        1.722392   -2.312183   -0.643069
     64          1           0        0.538643   -2.258534   -3.151467
     65          1           0        1.256201   -0.656188   -2.891788
     66          1           0       -0.505407   -0.845629   -2.899181
     67          1           0       -0.635256    0.261528   -0.581151
     68          1           0        0.321287   -0.385197    0.766322
     69          1           0        1.127424    0.451655   -0.574943
     70          1           0       -2.448230   -1.581232   -1.266847
     71          1           0       -3.580645   -5.090491   -2.429413
     72          1           0       -4.872021   -7.065741   -3.168918
     73          1           0       -7.046577   -7.621281   -2.087548
     74          1           0       -7.898567   -6.177825   -0.244366
     75          1           0       -6.589888   -4.221742    0.513767
     76          1           0       -6.295610   -2.310870   -1.827342
     77          1           0       -7.448957   -0.207036   -1.306474
     78          1           0       -7.238151    2.105232   -1.364117
     79          1           0       -8.402331    4.203967   -0.862032
     80          1           0       -8.031619    6.381574   -0.077479
     81          1           0       -9.184332    8.507646    0.413877
     82          1           0      -10.699119    8.685887    2.381099
     83          1           0      -11.058317    6.698632    3.836454
     84          1           0       -9.936229    4.562075    3.320316
     85          1           0       -7.841874    3.509633    3.341672
     86          1           0       -6.746276    1.373497    2.843058
     87          1           0       -4.794921    0.425149    2.015244
     88          1           0       -3.682453   -1.710125    1.531785
     89          1           0       -2.907563   -5.421556    0.615235
     90          1           0       -0.454008   -5.636303    0.845995
     91          1           0        2.195233   -5.351240    0.856413
     92          1           0        4.548821   -4.618571    0.645259
     93          1           0        7.892241   -2.670942    0.568854
     94          1           0        9.590750   -4.300729   -0.188666
     95          1           0        9.076304   -5.879160   -2.046201
     96          1           0        6.840868   -5.789452   -3.142175
     97          1           0        5.155426   -4.137302   -2.402930
     98          1           0        4.517785   -0.840112    1.578792
     99          1           0        5.171627    1.468080    2.098712
    100          1           0        4.978031    3.663418    1.395754
    101          1           0        5.609750    5.972060    1.946238
    102          1           0        7.343291    7.762837    2.075794
    103          1           0        9.684682    8.491717    1.748169
    104          1           0       11.386428    6.889105    0.886989
    105          1           0       10.748034    4.562068    0.351546
    106          1           0        9.032462    2.788018    0.257931
    107          1           0        7.853284    1.465601   -1.260087
    108          1           0        7.205110   -0.846855   -1.775492
    109          1           0        3.297493   -0.962091   -1.242663
 ---------------------------------------------------------------------

 SCF Done:  E(RB3LYP) =  -2461.76617139     A.U. after   15 cycles

 Excitation energies and oscillator strengths:

 Excited state symmetry could not be determined.
 Excited State   1:      Triplet-?Sym    2.4572 eV  504.57 nm  f=0.0000  <S**2>=2.000
     211 -> 214        0.15516
     211 -> 215       -0.11318
     211 -> 216       -0.12363
     212 -> 214       -0.14351
     212 -> 215        0.12669
     213 -> 214        0.47231
     213 -> 215        0.17577
     213 -> 216        0.29775
 This state for optimization and/or second-order correction.
 Total Energy, E(TD-HF/TD-DFT) =  -2461.67587073
 Copying the excited state density for this state as the 1-particle RhoCI density.

 Excited state symmetry could not be determined.
 Excited State   2:      Triplet-?Sym    2.5527 eV  485.69 nm  f=0.0000  <S**2>=2.000
     211 -> 214       -0.34981
     211 -> 215        0.17617
     212 -> 214        0.27101
     213 -> 215        0.33171
     213 -> 216        0.24772

 Excited state symmetry could not be determined.
 Excited State   3:      Singlet-?Sym    3.0416 eV  407.62 nm  f=0.9367  <S**2>=0.000
     212 -> 215        0.11024
     213 -> 214        0.63090
     213 -> 215        0.23497
     213 -> 216        0.15723

 Excited state symmetry could not be determined.
 Excited State   4:      Singlet-?Sym    3.2353 eV  383.22 nm  f=0.4916  <S**2>=0.000
     212 -> 214        0.10914
     213 -> 214       -0.25453
     213 -> 215        0.63880

 Alpha  occ. eigenvalues --  -14.36496 -14.36493 -10.22959 -10.22940 -10.22899
 Alpha  occ. eigenvalues --  -10.22897 -10.22867 -10.22857 -10.20714 -10.19770
 Alpha  occ. eigenvalues --  -10.19748 -10.19737 -10.19660 -10.19494 -10.19485
 Alpha  occ. eigenvalues --  -10.19426 -10.19414 -10.19032 -10.19030 -10.19029
 Alpha  occ. eigenvalues --  -10.19027 -10.19025 -10.19022 -10.18995 -10.18989
 Alpha  occ. eigenvalues --  -10.18967 -10.18938 -10.18920 -10.18918 -10.18902
 Alpha  occ. eigenvalues --  -10.18902 -10.18888 -10.18885 -10.18865 -10.18838
 Alpha  occ. eigenvalues --  -10.18827 -10.18825 -10.18810 -10.18807 -10.18800
 Alpha  occ. eigenvalues --  -10.18796 -10.18790 -10.18763 -10.18761 -10.18761
 Alpha  occ. eigenvalues --  -10.18758 -10.18755 -10.18752 -10.18728 -10.18727
 Alpha  occ. eigenvalues --  -10.18725 -10.18725 -10.18724 -10.18722 -10.18720
 Alpha  occ. eigenvalues --  -10.18720 -10.18717 -10.18717 -10.18652 -10.18603
 Alpha  occ. eigenvalues --  -10.18596 -10.17972 -10.17932  -0.96380  -0.96369
 Alpha  occ. eigenvalues --   -0.88564  -0.87209  -0.86813  -0.85619  -0.85515
 Alpha  occ. eigenvalues --   -0.85015  -0.84559  -0.83933  -0.83019  -0.81721
 Alpha  occ. eigenvalues --   -0.80750  -0.78434  -0.77512  -0.77155  -0.76079
 Alpha  occ. eigenvalues --   -0.75440  -0.75093  -0.74817  -0.74488  -0.74438
 Alpha  occ. eigenvalues --   -0.74311  -0.74251  -0.73819  -0.73605  -0.73395
 Alpha  occ. eigenvalues --   -0.72853  -0.72187  -0.71344  -0.70166  -0.68648
 Alpha  occ. eigenvalues --   -0.68646  -0.64978  -0.63685  -0.63336  -0.62811
 Alpha  occ. eigenvalues --   -0.62472  -0.62035  -0.61211  -0.60838  -0.60462
 Alpha  occ. eigenvalues --   -0.60228  -0.60161  -0.59782  -0.58901  -0.58783
 Alpha  occ. eigenvalues --   -0.58432  -0.58278  -0.57759  -0.56961  -0.56362
 Alpha  occ. eigenvalues --   -0.55280  -0.53493  -0.53263  -0.52764  -0.52517
 Alpha  occ. eigenvalues --   -0.51325  -0.50995  -0.50910  -0.50455  -0.49758
 Alpha  occ. eigenvalues --   -0.49350  -0.48402  -0.48179  -0.47588  -0.47489
 Alpha  occ. eigenvalues --   -0.46566  -0.45808  -0.45438  -0.45344  -0.45023
 Alpha  occ. eigenvalues --   -0.44719  -0.44603  -0.44436  -0.44329  -0.44132
 Alpha  occ. eigenvalues --   -0.44024  -0.43693  -0.43653  -0.43486  -0.43280
 Alpha  occ. eigenvalues --   -0.42972  -0.42808  -0.42740  -0.42529  -0.42357
 Alpha  occ. eigenvalues --   -0.42113  -0.42086  -0.41986  -0.41943  -0.41881
 Alpha  occ. eigenvalues --   -0.41602  -0.41280  -0.41167  -0.40493  -0.39985
 Alpha  occ. eigenvalues --   -0.39098  -0.38939  -0.38631  -0.38504  -0.38118
 Alpha  occ. eigenvalues --   -0.37963  -0.37444  -0.37167  -0.37015  -0.36693
 Alpha  occ. eigenvalues --   -0.36553  -0.36167  -0.36133  -0.35861  -0.35699
 Alpha  occ. eigenvalues --   -0.35597  -0.35427  -0.35255  -0.35060  -0.34988
 Alpha  occ. eigenvalues --   -0.34703  -0.34399  -0.34334  -0.34174  -0.33999
 Alpha  occ. eigenvalues --   -0.33396  -0.33395  -0.32801  -0.32781  -0.32294
 Alpha  occ. eigenvalues --   -0.32040  -0.31986  -0.31072  -0.29977  -0.28448
 Alpha  occ. eigenvalues --   -0.28037  -0.27250  -0.26153  -0.25594  -0.25521
 Alpha  occ. eigenvalues --   -0.25362  -0.24960  -0.24871  -0.24832  -0.24726
 Alpha  occ. eigenvalues --   -0.24527  -0.24240  -0.23759  -0.22947  -0.21677
 Alpha  occ. eigenvalues --   -0.21041  -0.18609  -0.17025
 Alpha virt. eigenvalues --   -0.04293  -0.03891  -0.03150  -0.01997  -0.01641
 Alpha virt. eigenvalues --   -0.01133  -0.00547  -0.00281   0.00094   0.00134
 Alpha virt. eigenvalues --    0.00275   0.00678   0.00717   0.01132   0.01471

 Mulliken charges:
               1
     1  C   -0.438334
     2  C   -0.062369
     3  C   -0.438937
     4  C    0.098306
     5  C   -0.254286
     6  C    0.287461
     7  N   -0.658522
     8  C    0.276712
     9  C   -0.162511
    10  C   -0.140094
    11  C   -0.128505
    12  C   -0.140038
    13  C   -0.163399
    14  C    0.291580
    15  C   -0.173083
    16  C   -0.188689
    17  C    0.095255
    18  C    0.095705
    19  C   -0.182332
    20  C   -0.181219
    21  C    0.093012
    22  C    0.089365
    23  C   -0.174051
    24  C   -0.133761
    25  C   -0.127038
    26  C   -0.133757
    27  C   -0.174041
    28  C   -0.181258
    29  C   -0.182328
    30  C   -0.188754
    31  C   -0.172563
    32  C   -0.177532
    33  C   -0.206824
    34  C    0.085694
    35  C    0.085869
    36  C   -0.206828
    37  C   -0.177186
    38  C    0.286647
    39  N   -0.658165
    40  C    0.276675
    41  C   -0.163085
    42  C   -0.140188
    43  C   -0.128449
    44  C   -0.140056
    45  C   -0.162456
    46  C    0.292410
    47  C   -0.172933
    48  C   -0.190617
    49  C    0.094536
    50  C    0.094846
    51  C   -0.177375
    52  C   -0.199167
    53  C    0.139637
    54  C   -0.192663
    55  C   -0.135389
    56  C   -0.137200
    57  C   -0.189611
    58  C    0.140287
    59  C   -0.262454
    60  C   -0.186855
    61  C   -0.173738
    62  C   -0.253667
    63  C    0.098097
    64  H    0.155488
    65  H    0.146693
    66  H    0.146447
    67  H    0.148552
    68  H    0.154349
    69  H    0.147765
    70  H    0.140244
    71  H    0.143613
    72  H    0.131310
    73  H    0.127670
    74  H    0.131696
    75  H    0.144414
    76  H    0.145682
    77  H    0.134249
    78  H    0.131255
    79  H    0.132306
    80  H    0.131890
    81  H    0.129930
    82  H    0.129089
    83  H    0.129955
    84  H    0.132004
    85  H    0.132300
    86  H    0.131505
    87  H    0.133877
    88  H    0.144962
    89  H    0.143096
    90  H    0.130870
    91  H    0.130897
    92  H    0.143110
    93  H    0.144552
    94  H    0.131494
    95  H    0.127643
    96  H    0.131362
    97  H    0.143685
    98  H    0.144903
    99  H    0.134461
   100  H    0.130719
   101  H    0.129810
   102  H    0.128956
   103  H    0.129171
   104  H    0.129290
   105  H    0.128636
   106  H    0.130306
   107  H    0.134148
   108  H    0.145493
   109  H    0.140366
 Sum of Mulliken charges =  -0.00000

 Dipole moment (field-independent basis, Debye):
    X=             -0.0272    Y=             -0.4652    Z=             -0.3995  Tot=              0.6138
 Quadrupole moment (field-independent basis, Debye-Ang):
   XX=           -343.8329   YY=           -334.3243   ZZ=           -352.1036
   XY=             -4.0539   XZ=             -5.5778   YZ=              6.1524

 Normal termination of Gaussian 16 at Sat Nov  5 11:52:07 2022.
