 Gaussian 16, Revision B.01,
 Gaussian 16:  ES64L-G16RevB.01 20-Dec-2017

 -------------------------------------------------------------------
 #p b3lyp/6-31g(d) 6D 10F nosymm GFInput td=(50-50,nstate=2) SCF=XQC
 -------------------------------------------------------------------

 ------------------------------
 Gaussian input prepared by ASE
 ------------------------------
 Symbolic Z-matrix:
 Charge =  0 Multiplicity = 1

                          Input orientation:
 ---------------------------------------------------------------------
 Center     Atomic      Atomic             Coordinates (Angstroms)
 Number     Number       Type             X           Y           Z
 ---------------------------------------------------------------------
      1          6           0       -2.560861   -0.239314    1.791724
      2          6           0       -2.574331    0.120475    0.294067
      3          6           0       -1.388342    0.987307   -0.061464
      4          6           0       -0.215954    0.418424   -0.517164
      5          7           0        0.760267    1.404269   -0.677561
      6          6           0        2.082307    1.213259   -1.173299
      7          6           0        2.513236    1.917014   -2.304241
      8          6           0        3.819877    1.734273   -2.756999
      9          6           0        4.682718    0.844603   -2.121512
     10          6           0        4.251752    0.132969   -0.989283
     11          7           0        5.116409   -0.773172   -0.327713
     12          6           0        6.493188   -0.458620   -0.152700
     13          6           0        6.888412    0.836448    0.218817
     14          6           0        8.238928    1.138258    0.383887
     15          6           0        9.214046    0.155275    0.202256
     16          6           0        8.822469   -1.136213   -0.156461
     17          6           0        7.475818   -1.443152   -0.342445
     18          6           0        4.605060   -2.006984    0.167151
     19          6           0        3.764510   -2.798907   -0.631415
     20          6           0        3.257610   -4.001309   -0.140696
     21          6           0        3.595558   -4.442053    1.140733
     22          6           0        4.442507   -3.662547    1.931346
     23          6           0        4.938838   -2.449750    1.455981
     24          6           0        2.948357    0.341220   -0.509754
     25          6           0        0.201710    2.625604   -0.314232
     26          6           0        0.791363    3.900364   -0.283146
     27          6           0        0.022383    4.969637    0.143676
     28          6           0       -1.322785    4.786613    0.542875
     29          6           0       -2.262415    5.792964    1.010817
     30          6           0       -2.073867    7.174649    1.173947
     31          6           0       -3.116901    7.967038    1.640846
     32          6           0       -4.362243    7.399629    1.952358
     33          6           0       -4.575227    6.031788    1.799022
     34          6           0       -3.524200    5.241388    1.330240
     35         16           0       -3.573421    3.495283    1.062816
     36          6           0       -1.894251    3.500884    0.516550
     37          6           0       -1.144038    2.387956    0.089426
     38          6           0       -0.088274   -0.998327   -0.788231
     39          6           0       -1.201175   -1.755948   -0.796166
     40          6           0       -2.570551   -1.117863   -0.661553
     41          7           0       -3.649591   -2.079989   -0.360191
     42          6           0       -3.365797   -3.440307   -0.033535
     43          6           0       -3.829197   -4.472059   -0.867655
     44          6           0       -3.556523   -5.804793   -0.567129
     45          6           0       -2.798399   -6.133806    0.559904
     46          6           0       -2.325993   -5.114599    1.386924
     47          6           0       -2.615269   -3.778703    1.101900
     48          6           0       -4.991844   -1.701478   -0.582649
     49          6           0       -6.034893   -2.387935    0.076354
     50          6           0       -7.364890   -2.032968   -0.121548
     51          6           0       -7.707722   -0.973488   -0.965320
     52          6           0       -6.685878   -0.276387   -1.606308
     53          6           0       -5.347898   -0.628810   -1.424219
     54          1           0       -3.421733   -0.863333    2.052753
     55          1           0       -1.641346   -0.771148    2.061315
     56          1           0       -2.607553    0.672787    2.395703
     57          1           0       -3.504547    0.663979    0.094368
     58          1           0        1.828550    2.581753   -2.819938
     59          1           0        4.162176    2.271251   -3.637316
     60          1           0        5.688662    0.692733   -2.497922
     61          1           0        6.133849    1.600220    0.378242
     62          1           0        8.527270    2.145798    0.671967
     63          1           0       10.265118    0.392400    0.339498
     64          1           0        9.570062   -1.910584   -0.307163
     65          1           0        7.177634   -2.445086   -0.634386
     66          1           0        3.519908   -2.469581   -1.636797
     67          1           0        2.608904   -4.603770   -0.771047
     68          1           0        3.204612   -5.382697    1.517691
     69          1           0        4.709442   -3.991318    2.932237
     70          1           0        5.586364   -1.839560    2.077777
     71          1           0        2.615713   -0.164691    0.389665
     72          1           0        1.824746    4.042217   -0.580537
     73          1           0        0.459520    5.963484    0.175551
     74          1           0       -1.113495    7.623897    0.934969
     75          1           0       -2.966286    9.035828    1.765504
     76          1           0       -5.168714    8.030153    2.316369
     77          1           0       -5.538214    5.590250    2.039347
     78          1           0        0.885319   -1.436306   -0.981685
     79          1           0       -1.137936   -2.814891   -1.015548
     80          1           0       -2.766391   -0.708910   -1.668660
     81          1           0       -4.407833   -4.216045   -1.750092
     82          1           0       -3.925350   -6.588065   -1.224399
     83          1           0       -2.580280   -7.173082    0.789818
     84          1           0       -1.739746   -5.355947    2.269869
     85          1           0       -2.260544   -2.993402    1.759630
     86          1           0       -5.792830   -3.202274    0.750216
     87          1           0       -8.140573   -2.585269    0.403313
     88          1           0       -8.746974   -0.694183   -1.111815
     89          1           0       -6.922467    0.555756   -2.264710
     90          1           0       -4.589630   -0.060475   -1.949981
 ---------------------------------------------------------------------

 SCF Done:  E(RB3LYP) =  -2451.95319749     A.U. after   15 cycles

 Excitation energies and oscillator strengths:

 Excited state symmetry could not be determined.
 Excited State   1:      Triplet-?Sym    2.2574 eV  549.24 nm  f=0.0000  <S**2>=2.000
     180 ->185         0.14753
     183 ->185        -0.30478
     184 ->185         0.56554
 This state for optimization and/or second-order correction.
 Total Energy, E(TD-HF/TD-DFT) =  -2451.87023979
 Copying the excited state density for this state as the 1-particle RhoCI density.

 Excited state symmetry could not be determined.
 Excited State   2:      Triplet-?Sym    3.0988 eV  400.11 nm  f=0.0000  <S**2>=2.000
     171 ->187        -0.10835
     181 ->187        -0.12344
     182 ->185         0.16305
     182 ->186         0.18933
     182 ->187        -0.53535

 Excited state symmetry could not be determined.
 Excited State   3:      Singlet-?Sym    3.3655 eV  368.40 nm  f=0.0316  <S**2>=0.000
     183 ->185         0.42638
     184 ->185         0.55104

 Excited state symmetry could not be determined.
 Excited State   4:      Singlet-?Sym    3.5623 eV  348.05 nm  f=0.1851  <S**2>=0.000
     181 ->185        -0.12374
     183 ->185         0.51759
     184 ->185        -0.40229
     184 ->186        -0.17627

 Alpha  occ. eigenvalues --  -88.89320 -14.38680 -14.37168 -14.34925 -10.24255
 Alpha  occ. eigenvalues --  -10.24227 -10.23584 -10.23512 -10.22987 -10.22373
 Alpha  occ. eigenvalues --  -10.22169 -10.22090 -10.21866 -10.21573 -10.21399
 Alpha  occ. eigenvalues --  -10.20321 -10.19966 -10.19783 -10.19756 -10.19747
 Alpha  occ. eigenvalues --  -10.19694 -10.19546 -10.19538 -10.19533 -10.19437
 Alpha  occ. eigenvalues --  -10.19347 -10.19331 -10.19304 -10.19299 -10.19266
 Alpha  occ. eigenvalues --  -10.19247 -10.19118 -10.19104 -10.19048 -10.19048
 Alpha  occ. eigenvalues --  -10.18998 -10.18985 -10.18943 -10.18759 -10.18726
 Alpha  occ. eigenvalues --  -10.18714 -10.18665 -10.18644 -10.18606 -10.18555
 Alpha  occ. eigenvalues --  -10.18408 -10.17955 -10.17893 -10.17885 -10.17587
 Alpha  occ. eigenvalues --  -10.17377 -10.17171 -10.16637  -7.95369  -5.91823
 Alpha  occ. eigenvalues --   -5.91470  -5.90970  -0.99201  -0.97152  -0.94734
 Alpha  occ. eigenvalues --   -0.88647  -0.86911  -0.85932  -0.84914  -0.84608
 Alpha  occ. eigenvalues --   -0.84024  -0.83549  -0.82391  -0.80134  -0.78855
 Alpha  occ. eigenvalues --   -0.76967  -0.76520  -0.75939  -0.75636  -0.75036
 Alpha  occ. eigenvalues --   -0.74804  -0.74730  -0.74463  -0.74022  -0.73358
 Alpha  occ. eigenvalues --   -0.72734  -0.71472  -0.70817  -0.70771  -0.68991
 Alpha  occ. eigenvalues --   -0.67166  -0.64222  -0.63783  -0.62505  -0.62409
 Alpha  occ. eigenvalues --   -0.62017  -0.60940  -0.60879  -0.60714  -0.60193
 Alpha  occ. eigenvalues --   -0.59599  -0.58902  -0.58426  -0.58027  -0.56754
 Alpha  occ. eigenvalues --   -0.56568  -0.55716  -0.54027  -0.53904  -0.52675
 Alpha  occ. eigenvalues --   -0.52068  -0.51512  -0.50929  -0.50307  -0.50045
 Alpha  occ. eigenvalues --   -0.49004  -0.48672  -0.48474  -0.47623  -0.47438
 Alpha  occ. eigenvalues --   -0.47120  -0.46663  -0.46047  -0.45717  -0.45040
 Alpha  occ. eigenvalues --   -0.44843  -0.44617  -0.44265  -0.43887  -0.43823
 Alpha  occ. eigenvalues --   -0.43734  -0.43615  -0.43470  -0.42772  -0.42703
 Alpha  occ. eigenvalues --   -0.42523  -0.42462  -0.42327  -0.41862  -0.41800
 Alpha  occ. eigenvalues --   -0.41304  -0.41035  -0.40691  -0.39506  -0.39242
 Alpha  occ. eigenvalues --   -0.38750  -0.38613  -0.37914  -0.37682  -0.37317
 Alpha  occ. eigenvalues --   -0.37158  -0.36947  -0.36906  -0.36701  -0.36524
 Alpha  occ. eigenvalues --   -0.36120  -0.36028  -0.35713  -0.35192  -0.35115
 Alpha  occ. eigenvalues --   -0.34910  -0.34768  -0.34676  -0.34472  -0.34351
 Alpha  occ. eigenvalues --   -0.33874  -0.33250  -0.32745  -0.32611  -0.31441
 Alpha  occ. eigenvalues --   -0.31218  -0.30699  -0.29075  -0.28136  -0.27411
 Alpha  occ. eigenvalues --   -0.26792  -0.26362  -0.25965  -0.25601  -0.25258
 Alpha  occ. eigenvalues --   -0.25189  -0.24815  -0.24691  -0.23782  -0.21815
 Alpha  occ. eigenvalues --   -0.19996  -0.19196  -0.18440  -0.18054
 Alpha virt. eigenvalues --   -0.03619  -0.02521  -0.02287  -0.01704  -0.01527
 Alpha virt. eigenvalues --   -0.00600  -0.00361  -0.00197   0.00102   0.00615
 Alpha virt. eigenvalues --    0.01438   0.02188   0.02429   0.02792   0.03034

 Mulliken charges:
               1
     1  C   -0.453702
     2  C   -0.174018
     3  C    0.032977
     4  C    0.263906
     5  N   -0.722060
     6  C    0.263608
     7  C   -0.153646
     8  C   -0.151392
     9  C   -0.161329
    10  C    0.286494
    11  N   -0.653824
    12  C    0.277107
    13  C   -0.163234
    14  C   -0.139904
    15  C   -0.127764
    16  C   -0.139704
    17  C   -0.163617
    18  C    0.267636
    19  C   -0.163168
    20  C   -0.140208
    21  C   -0.126061
    22  C   -0.139436
    23  C   -0.158429
    24  C   -0.203879
    25  C    0.340019
    26  C   -0.181659
    27  C   -0.197656
    28  C    0.129016
    29  C    0.088036
    30  C   -0.167790
    31  C   -0.148429
    32  C   -0.116119
    33  C   -0.192472
    34  C   -0.130863
    35  S    0.218913
    36  C   -0.274697
    37  C    0.011519
    38  C   -0.136061
    39  C   -0.171699
    40  C    0.006050
    41  N   -0.610239
    42  C    0.240221
    43  C   -0.139942
    44  C   -0.142804
    45  C   -0.127116
    46  C   -0.142568
    47  C   -0.150443
    48  C    0.321911
    49  C   -0.176326
    50  C   -0.137677
    51  C   -0.132907
    52  C   -0.142414
    53  C   -0.184537
    54  H    0.158211
    55  H    0.148095
    56  H    0.161784
    57  H    0.159717
    58  H    0.151376
    59  H    0.140438
    60  H    0.149852
    61  H    0.143924
    62  H    0.133595
    63  H    0.129926
    64  H    0.133461
    65  H    0.144959
    66  H    0.143689
    67  H    0.136424
    68  H    0.131464
    69  H    0.135196
    70  H    0.146639
    71  H    0.163339
    72  H    0.139393
    73  H    0.128212
    74  H    0.129260
    75  H    0.127585
    76  H    0.128530
    77  H    0.139953
    78  H    0.147849
    79  H    0.157943
    80  H    0.161141
    81  H    0.142863
    82  H    0.131448
    83  H    0.127383
    84  H    0.130767
    85  H    0.143184
    86  H    0.140663
    87  H    0.125088
    88  H    0.120768
    89  H    0.126980
    90  H    0.131285
 Sum of Mulliken charges =  -0.00000

 Dipole moment (field-independent basis, Debye):
    X=              4.0012    Y=             -1.4779    Z=             -0.7212  Tot=              4.3259
 Quadrupole moment (field-independent basis, Debye-Ang):
   XX=           -291.9629   YY=           -286.7575   ZZ=           -307.3722
   XY=              2.4108   XZ=             -1.3994   YZ=             -4.1468

 Normal termination of Gaussian 16 at Sat Nov  5 11:08:48 2022.
