 Gaussian 16, Revision B.01,
 Gaussian 16:  ES64L-G16RevB.01 20-Dec-2017

 -----------------------------
 #p b3lyp/6-31g(d) opt SCF=XQC
 -----------------------------

 ------------------------------
 Gaussian input prepared by ASE
 ------------------------------
 Symbolic Z-matrix:
 Charge =  0 Multiplicity = 1

 SCF Done:  E(RB3LYP) =  -2451.93613591     A.U. after   15 cycles
 SCF Done:  E(RB3LYP) =  -2451.94965101     A.U. after   14 cycles
 SCF Done:  E(RB3LYP) =  -2451.95144600     A.U. after   12 cycles
 SCF Done:  E(RB3LYP) =  -2451.95249125     A.U. after   13 cycles
 SCF Done:  E(RB3LYP) =  -2451.95260501     A.U. after   12 cycles
 SCF Done:  E(RB3LYP) =  -2451.95297796     A.U. after   11 cycles
 SCF Done:  E(RB3LYP) =  -2451.95302825     A.U. after   11 cycles
 SCF Done:  E(RB3LYP) =  -2451.95305551     A.U. after   10 cycles
 SCF Done:  E(RB3LYP) =  -2451.95310949     A.U. after   11 cycles
 SCF Done:  E(RB3LYP) =  -2451.95314793     A.U. after   11 cycles
 SCF Done:  E(RB3LYP) =  -2451.95318019     A.U. after   10 cycles
 SCF Done:  E(RB3LYP) =  -2451.95319227     A.U. after   10 cycles
 SCF Done:  E(RB3LYP) =  -2451.95319944     A.U. after   10 cycles
 SCF Done:  E(RB3LYP) =  -2451.95320404     A.U. after   10 cycles
 SCF Done:  E(RB3LYP) =  -2451.95320582     A.U. after    9 cycles
 SCF Done:  E(RB3LYP) =  -2451.95320633     A.U. after    9 cycles
 SCF Done:  E(RB3LYP) =  -2451.95320637     A.U. after    7 cycles
 SCF Done:  E(RB3LYP) =  -2451.95320639     A.U. after    7 cycles
 Optimization completed.
    -- Stationary point found.

                         Standard orientation:
 ---------------------------------------------------------------------
 Center     Atomic      Atomic             Coordinates (Angstroms)
 Number     Number       Type             X           Y           Z
 ---------------------------------------------------------------------
      1          6           0       -2.399809    0.850501   -1.719959
      2          6           0       -2.422669    0.594167   -0.201283
      3          6           0       -1.419486   -0.470217    0.179614
      4          6           0       -0.139415   -0.122215    0.561841
      5          7           0        0.626597   -1.272731    0.762253
      6          6           0        1.979558   -1.321795    1.206236
      7          6           0        2.308080   -2.026616    2.370409
      8          6           0        3.642537   -2.083319    2.772535
      9          6           0        4.638270   -1.426860    2.053209
     10          6           0        4.311227   -0.714408    0.887211
     11          7           0        5.310941   -0.043829    0.140688
     12          6           0        6.588991   -0.639620   -0.050918
     13          6           0        6.702528   -2.008219   -0.343278
     14          6           0        7.957815   -2.585646   -0.525108
     15          6           0        9.115902   -1.810050   -0.439175
     16          6           0        9.004693   -0.446477   -0.159435
     17          6           0        7.755077    0.136478    0.042788
     18          6           0        5.035629    1.234696   -0.423438
     19          6           0        4.403520    2.227631    0.341997
     20          6           0        4.126478    3.474811   -0.215957
     21          6           0        4.492109    3.758262   -1.533717
     22          6           0        5.133287    2.776667   -2.292258
     23          6           0        5.397274    1.520505   -1.748602
     24          6           0        2.973758   -0.684954    0.460055
     25          6           0       -0.178659   -2.376519    0.499826
     26          6           0        0.143380   -3.743391    0.540079
     27          6           0       -0.840228   -4.660052    0.209779
     28          6           0       -2.137311   -4.234729   -0.163058
     29          6           0       -3.277164   -5.058034   -0.533898
     30          6           0       -3.374608   -6.456755   -0.606662
     31          6           0       -4.573028   -7.050002   -0.988295
     32          6           0       -5.692157   -6.263627   -1.302990
     33          6           0       -5.621802   -4.874119   -1.238350
     34          6           0       -4.415874   -4.284311   -0.854927
     35         16           0       -4.105092   -2.550987   -0.707195
     36          6           0       -2.439556   -2.861094   -0.209327
     37          6           0       -1.465612   -1.897957    0.118793
     38          6           0        0.279096    1.253729    0.730924
     39          6           0       -0.659238    2.219110    0.717953
     40          6           0       -2.132668    1.863029    0.666237
     41          7           0       -3.009910    3.002361    0.329779
     42          6           0       -2.474546    4.254698   -0.097707
     43          6           0       -2.688141    5.408259    0.676039
     44          6           0       -2.168079    6.637489    0.276823
     45          6           0       -1.406932    6.736588   -0.891098
     46          6           0       -1.181726    5.593914   -1.658881
     47          6           0       -1.719315    4.363979   -1.274440
     48          6           0       -4.390280    2.916643    0.615491
     49          6           0       -5.302019    3.757122   -0.059629
     50          6           0       -6.666716    3.690429    0.199627
     51          6           0       -7.178531    2.776059    1.123723
     52          6           0       -6.290420    1.928334    1.782210
     53          6           0       -4.917759    1.991909    1.538673
     54          1           0       -3.129144    1.617849   -1.999035
     55          1           0       -1.404734    1.168380   -2.051339
     56          1           0       -2.652263   -0.069055   -2.258089
     57          1           0       -3.433441    0.262712    0.061504
     58          1           0        1.526629   -2.506517    2.949761
     59          1           0        3.907136   -2.622754    3.677780
     60          1           0        5.669009   -1.457859    2.389791
     61          1           0        5.804976   -2.612610   -0.428383
     62          1           0        8.027449   -3.646476   -0.751069
     63          1           0       10.092051   -2.262173   -0.589283
     64          1           0        9.897171    0.169139   -0.083563
     65          1           0        7.674850    1.194051    0.273264
     66          1           0        4.140051    2.017204    1.374171
     67          1           0        3.637484    4.233471    0.389387
     68          1           0        4.281152    4.733235   -1.963450
     69          1           0        5.418697    2.982328   -3.320543
     70          1           0        5.883928    0.755057   -2.344848
     71          1           0        2.711632   -0.179014   -0.462370
     72          1           0        1.139190   -4.071929    0.817331
     73          1           0       -0.611575   -5.721636    0.234179
     74          1           0       -2.513947   -7.074679   -0.364421
     75          1           0       -4.643676   -8.132838   -1.043190
     76          1           0       -6.622453   -6.739960   -1.599835
     77          1           0       -6.486616   -4.263288   -1.481329
     78          1           0        1.327591    1.497609    0.866250
     79          1           0       -0.377251    3.255079    0.861967
     80          1           0       -2.364189    1.565044    1.704246
     81          1           0       -3.269139    5.329213    1.589959
     82          1           0       -2.345910    7.518154    0.888672
     83          1           0       -0.995828    7.694320   -1.198137
     84          1           0       -0.596220    5.657059   -2.572512
     85          1           0       -1.555713    3.484145   -1.886211
     86          1           0       -4.930672    4.462682   -0.794557
     87          1           0       -7.337859    4.354181   -0.340006
     88          1           0       -8.245619    2.721550    1.318316
     89          1           0       -6.660594    1.203311    2.502792
     90          1           0       -4.266824    1.316051    2.080799
 ---------------------------------------------------------------------

 The electronic state is 1-A.
 Alpha  occ. eigenvalues --  -88.89320 -14.38679 -14.37168 -14.34925 -10.24255
 Alpha  occ. eigenvalues --  -10.24227 -10.23584 -10.23512 -10.22987 -10.22373
 Alpha  occ. eigenvalues --  -10.22169 -10.22090 -10.21866 -10.21573 -10.21400
 Alpha  occ. eigenvalues --  -10.20321 -10.19966 -10.19783 -10.19756 -10.19747
 Alpha  occ. eigenvalues --  -10.19694 -10.19546 -10.19538 -10.19533 -10.19437
 Alpha  occ. eigenvalues --  -10.19347 -10.19331 -10.19304 -10.19299 -10.19266
 Alpha  occ. eigenvalues --  -10.19247 -10.19118 -10.19104 -10.19048 -10.19048
 Alpha  occ. eigenvalues --  -10.18998 -10.18985 -10.18943 -10.18759 -10.18726
 Alpha  occ. eigenvalues --  -10.18714 -10.18665 -10.18644 -10.18606 -10.18555
 Alpha  occ. eigenvalues --  -10.18408 -10.17955 -10.17893 -10.17885 -10.17587
 Alpha  occ. eigenvalues --  -10.17377 -10.17171 -10.16637  -7.95369  -5.91823
 Alpha  occ. eigenvalues --   -5.91470  -5.90970  -0.99201  -0.97152  -0.94734
 Alpha  occ. eigenvalues --   -0.88647  -0.86911  -0.85932  -0.84914  -0.84608
 Alpha  occ. eigenvalues --   -0.84024  -0.83549  -0.82391  -0.80134  -0.78855
 Alpha  occ. eigenvalues --   -0.76967  -0.76520  -0.75939  -0.75636  -0.75036
 Alpha  occ. eigenvalues --   -0.74804  -0.74730  -0.74463  -0.74022  -0.73358
 Alpha  occ. eigenvalues --   -0.72734  -0.71472  -0.70817  -0.70771  -0.68991
 Alpha  occ. eigenvalues --   -0.67166  -0.64222  -0.63783  -0.62505  -0.62409
 Alpha  occ. eigenvalues --   -0.62017  -0.60940  -0.60879  -0.60714  -0.60193
 Alpha  occ. eigenvalues --   -0.59599  -0.58902  -0.58426  -0.58027  -0.56754
 Alpha  occ. eigenvalues --   -0.56568  -0.55716  -0.54027  -0.53904  -0.52675
 Alpha  occ. eigenvalues --   -0.52068  -0.51512  -0.50929  -0.50307  -0.50045
 Alpha  occ. eigenvalues --   -0.49004  -0.48672  -0.48474  -0.47623  -0.47438
 Alpha  occ. eigenvalues --   -0.47121  -0.46663  -0.46047  -0.45717  -0.45040
 Alpha  occ. eigenvalues --   -0.44843  -0.44617  -0.44265  -0.43887  -0.43823
 Alpha  occ. eigenvalues --   -0.43734  -0.43615  -0.43470  -0.42772  -0.42704
 Alpha  occ. eigenvalues --   -0.42523  -0.42462  -0.42327  -0.41862  -0.41800
 Alpha  occ. eigenvalues --   -0.41304  -0.41035  -0.40691  -0.39507  -0.39242
 Alpha  occ. eigenvalues --   -0.38750  -0.38613  -0.37914  -0.37682  -0.37317
 Alpha  occ. eigenvalues --   -0.37158  -0.36947  -0.36906  -0.36701  -0.36524
 Alpha  occ. eigenvalues --   -0.36120  -0.36028  -0.35713  -0.35192  -0.35115
 Alpha  occ. eigenvalues --   -0.34910  -0.34768  -0.34676  -0.34472  -0.34351
 Alpha  occ. eigenvalues --   -0.33874  -0.33250  -0.32745  -0.32611  -0.31441
 Alpha  occ. eigenvalues --   -0.31218  -0.30699  -0.29075  -0.28136  -0.27411
 Alpha  occ. eigenvalues --   -0.26792  -0.26362  -0.25965  -0.25601  -0.25259
 Alpha  occ. eigenvalues --   -0.25189  -0.24815  -0.24691  -0.23782  -0.21815
 Alpha  occ. eigenvalues --   -0.19996  -0.19196  -0.18440  -0.18054
 Alpha virt. eigenvalues --   -0.03619  -0.02521  -0.02287  -0.01704  -0.01527
 Alpha virt. eigenvalues --   -0.00600  -0.00361  -0.00197   0.00102   0.00615
 Alpha virt. eigenvalues --    0.01438   0.02188   0.02429   0.02792   0.03034

 Mulliken charges:
               1
     1  C   -0.453701
     2  C   -0.174008
     3  C    0.032987
     4  C    0.263910
     5  N   -0.722087
     6  C    0.263637
     7  C   -0.153651
     8  C   -0.151390
     9  C   -0.161330
    10  C    0.286505
    11  N   -0.653843
    12  C    0.277142
    13  C   -0.163237
    14  C   -0.139908
    15  C   -0.127764
    16  C   -0.139701
    17  C   -0.163638
    18  C    0.267634
    19  C   -0.163177
    20  C   -0.140191
    21  C   -0.126071
    22  C   -0.139435
    23  C   -0.158426
    24  C   -0.203887
    25  C    0.340017
    26  C   -0.181664
    27  C   -0.197654
    28  C    0.129016
    29  C    0.088043
    30  C   -0.167797
    31  C   -0.148432
    32  C   -0.116111
    33  C   -0.192478
    34  C   -0.130864
    35  S    0.218916
    36  C   -0.274695
    37  C    0.011489
    38  C   -0.136068
    39  C   -0.171711
    40  C    0.006051
    41  N   -0.610234
    42  C    0.240217
    43  C   -0.139949
    44  C   -0.142800
    45  C   -0.127123
    46  C   -0.142562
    47  C   -0.150439
    48  C    0.321916
    49  C   -0.176332
    50  C   -0.137677
    51  C   -0.132910
    52  C   -0.142413
    53  C   -0.184530
    54  H    0.158212
    55  H    0.148095
    56  H    0.161785
    57  H    0.159718
    58  H    0.151377
    59  H    0.140438
    60  H    0.149852
    61  H    0.143924
    62  H    0.133595
    63  H    0.129926
    64  H    0.133461
    65  H    0.144960
    66  H    0.143686
    67  H    0.136422
    68  H    0.131464
    69  H    0.135196
    70  H    0.146640
    71  H    0.163348
    72  H    0.139394
    73  H    0.128213
    74  H    0.129261
    75  H    0.127585
    76  H    0.128530
    77  H    0.139953
    78  H    0.147856
    79  H    0.157947
    80  H    0.161143
    81  H    0.142863
    82  H    0.131449
    83  H    0.127384
    84  H    0.130768
    85  H    0.143183
    86  H    0.140664
    87  H    0.125088
    88  H    0.120769
    89  H    0.126980
    90  H    0.131285
 Sum of Mulliken charges =  -0.00000

 Dipole moment (field-independent basis, Debye):
    X=              4.2418    Y=              0.6830    Z=              0.5046  Tot=              4.3259
 Quadrupole moment (field-independent basis, Debye-Ang):
   XX=           -291.5422   YY=           -286.3455   ZZ=           -306.7687
   XY=             -0.3940   XZ=              0.1361   YZ=             -5.4625

 Normal termination of Gaussian 16 at Sat Nov  5 02:43:19 2022.
