 Gaussian 16, Revision B.01,
 Gaussian 16:  ES64L-G16RevB.01 20-Dec-2017

 -------------------------------------------------------------------
 #p b3lyp/6-31g(d) 6D 10F nosymm GFInput td=(50-50,nstate=2) SCF=XQC
 -------------------------------------------------------------------

 ------------------------------
 Gaussian input prepared by ASE
 ------------------------------
 Symbolic Z-matrix:
 Charge =  0 Multiplicity = 1

                          Input orientation:
 ---------------------------------------------------------------------
 Center     Atomic      Atomic             Coordinates (Angstroms)
 Number     Number       Type             X           Y           Z
 ---------------------------------------------------------------------
      1          8           0        3.884133    2.268156   -0.973678
      2         15           0        3.011655    1.112651   -0.552904
      3          6           0        3.223311   -0.316905   -1.680412
      4          6           0        4.267118   -0.206302   -2.611568
      5          6           0        4.512291   -1.234108   -3.522271
      6          6           0        3.717137   -2.381084   -3.512787
      7          6           0        2.671195   -2.494908   -2.594416
      8          6           0        2.422063   -1.468343   -1.683440
      9          6           0        1.237648    1.575248   -0.570808
     10          6           0        0.949976    2.854448   -1.078405
     11          6           0       -0.361384    3.327537   -1.137380
     12          6           0       -1.397679    2.512057   -0.679663
     13          6           0       -1.114656    1.231609   -0.167176
     14          6           0        0.188449    0.759457   -0.109902
     15          6           0       -2.400612    0.527644    0.278525
     16          6           0       -2.389994    0.109186    1.752805
     17          6           0       -2.214194    0.904789    2.878716
     18          6           0       -2.238383    0.302953    4.141738
     19          6           0       -2.436366   -1.076515    4.269142
     20          6           0       -2.613544   -1.877524    3.138823
     21          6           0       -2.589696   -1.279050    1.877208
     22          6           0       -2.743737   -1.854073    0.533469
     23          6           0       -2.961050   -3.169837    0.118941
     24          6           0       -3.070003   -3.437250   -1.247531
     25          6           0       -2.963085   -2.405521   -2.186920
     26          6           0       -2.745504   -1.086484   -1.773875
     27          6           0       -2.637311   -0.818489   -0.414548
     28          6           0       -3.452562    1.589974   -0.056317
     29          6           0       -4.829522    1.532825    0.122904
     30          6           0       -5.605821    2.632434   -0.258311
     31          6           0       -5.007663    3.770950   -0.810795
     32          6           0       -3.624574    3.830632   -0.991816
     33          6           0       -2.847781    2.733841   -0.611838
     34          6           0        3.404787    0.622726    1.229663
     35          6           0        2.754808   -0.643531    1.723757
     36          6           0        3.429329   -1.808574    1.729204
     37          6           0        4.824890   -1.877733    1.293250
     38          6           0        5.542372   -0.753321    1.134359
     39          6           0        4.939161    0.599251    1.427932
     40          1           0        4.870203    0.696357   -2.614680
     41          1           0        5.321630   -1.136846   -4.241161
     42          1           0        3.906297   -3.181980   -4.222986
     43          1           0        2.043651   -3.382228   -2.589304
     44          1           0        1.599324   -1.573448   -0.985493
     45          1           0        1.775929    3.470384   -1.420374
     46          1           0       -0.564690    4.319240   -1.533228
     47          1           0        0.381424   -0.228786    0.294542
     48          1           0       -2.061649    1.976514    2.782034
     49          1           0       -2.102883    0.912672    5.030882
     50          1           0       -2.452950   -1.528893    5.257098
     51          1           0       -2.767799   -2.948448    3.243882
     52          1           0       -3.045593   -3.975097    0.844302
     53          1           0       -3.240127   -4.456405   -1.584350
     54          1           0       -3.050029   -2.629701   -3.246566
     55          1           0       -2.662797   -0.286911   -2.505217
     56          1           0       -5.296745    0.650255    0.551534
     57          1           0       -6.683679    2.601858   -0.124011
     58          1           0       -5.625526    4.616235   -1.101579
     59          1           0       -3.164146    4.716611   -1.421312
     60          1           0        2.998278    1.485907    1.771931
     61          1           0        1.724447   -0.598013    2.065844
     62          1           0        2.942966   -2.720798    2.067394
     63          1           0        5.270996   -2.854395    1.123178
     64          1           0        6.590163   -0.797426    0.846245
     65          1           0        5.163072    0.862812    2.475479
     66          1           0        5.395023    1.381715    0.812246
 ---------------------------------------------------------------------

 SCF Done:  E(RB3LYP) =  -1842.79914167     A.U. after   17 cycles

 Excitation energies and oscillator strengths:

 Excited state symmetry could not be determined.
 Excited State   1:      Triplet-?Sym    2.4223 eV  511.85 nm  f=0.0000  <S**2>=2.000
     127 ->139        -0.13091
     135 ->139         0.11312
     136 ->137         0.11454
     136 ->139         0.66602
     136 <-139         0.12762
 This state for optimization and/or second-order correction.
 Total Energy, E(TD-HF/TD-DFT) =  -1842.71012525
 Copying the excited state density for this state as the 1-particle RhoCI density.

 Excited state symmetry could not be determined.
 Excited State   2:      Triplet-?Sym    2.9761 eV  416.60 nm  f=0.0000  <S**2>=2.000
     124 ->146         0.11726
     126 ->140         0.10834
     133 ->137         0.11756
     133 ->140         0.11036
     134 ->137         0.43725
     135 ->137         0.38546
     135 ->140        -0.13041
     136 ->137        -0.19998

 Excited state symmetry could not be determined.
 Excited State   3:      Singlet-?Sym    3.8850 eV  319.14 nm  f=0.0863  <S**2>=0.000
     136 ->137         0.70168

 Excited state symmetry could not be determined.
 Excited State   4:      Singlet-?Sym    4.0604 eV  305.35 nm  f=0.0702  <S**2>=0.000
     134 ->137        -0.10032
     135 ->137         0.68636

 Alpha  occ. eigenvalues --  -77.14807 -19.07905 -10.21999 -10.20194 -10.20176
 Alpha  occ. eigenvalues --  -10.20140 -10.20084 -10.19977 -10.19937 -10.19903
 Alpha  occ. eigenvalues --  -10.19864 -10.19857 -10.19820 -10.19733 -10.19561
 Alpha  occ. eigenvalues --  -10.19541 -10.19526 -10.19520 -10.19462 -10.19460
 Alpha  occ. eigenvalues --  -10.19459 -10.19435 -10.19416 -10.19413 -10.19367
 Alpha  occ. eigenvalues --  -10.19365 -10.19360 -10.19357 -10.19316 -10.19268
 Alpha  occ. eigenvalues --  -10.19240 -10.19058 -10.19049 -10.18895 -10.18841
 Alpha  occ. eigenvalues --  -10.18831 -10.18707 -10.18580 -10.18199  -6.60568
 Alpha  occ. eigenvalues --   -4.76803  -4.76789  -4.76779  -0.94050  -0.90654
 Alpha  occ. eigenvalues --   -0.87678  -0.85145  -0.84829  -0.84684  -0.83811
 Alpha  occ. eigenvalues --   -0.81235  -0.78881  -0.77332  -0.75456  -0.74913
 Alpha  occ. eigenvalues --   -0.74666  -0.74589  -0.74358  -0.74214  -0.74091
 Alpha  occ. eigenvalues --   -0.72025  -0.71743  -0.68647  -0.64997  -0.63993
 Alpha  occ. eigenvalues --   -0.62932  -0.61058  -0.60653  -0.60162  -0.59195
 Alpha  occ. eigenvalues --   -0.58774  -0.58748  -0.58042  -0.57865  -0.57067
 Alpha  occ. eigenvalues --   -0.54574  -0.52684  -0.51335  -0.50968  -0.50472
 Alpha  occ. eigenvalues --   -0.49693  -0.49089  -0.48302  -0.47180  -0.47045
 Alpha  occ. eigenvalues --   -0.45872  -0.45077  -0.44764  -0.44579  -0.44565
 Alpha  occ. eigenvalues --   -0.44417  -0.43685  -0.43576  -0.43534  -0.42680
 Alpha  occ. eigenvalues --   -0.42322  -0.42074  -0.41880  -0.41858  -0.41632
 Alpha  occ. eigenvalues --   -0.41094  -0.40372  -0.39526  -0.38721  -0.38633
 Alpha  occ. eigenvalues --   -0.37905  -0.37309  -0.36983  -0.36430  -0.35628
 Alpha  occ. eigenvalues --   -0.35527  -0.35347  -0.35153  -0.34618  -0.34294
 Alpha  occ. eigenvalues --   -0.34138  -0.33835  -0.33770  -0.33604  -0.32870
 Alpha  occ. eigenvalues --   -0.32528  -0.31698  -0.30822  -0.28704  -0.28554
 Alpha  occ. eigenvalues --   -0.26802  -0.25968  -0.25592  -0.25147  -0.24911
 Alpha  occ. eigenvalues --   -0.24813  -0.24776  -0.24311  -0.22448  -0.21448
 Alpha  occ. eigenvalues --   -0.20554
 Alpha virt. eigenvalues --   -0.04468  -0.03510  -0.02771  -0.01978  -0.01823
 Alpha virt. eigenvalues --   -0.01396  -0.00344   0.00224   0.01118   0.02873
 Alpha virt. eigenvalues --    0.04090   0.06654   0.07665   0.08658   0.09461

 Mulliken charges:
               1
     1  O   -0.609782
     2  P    0.890051
     3  C   -0.088018
     4  C   -0.166972
     5  C   -0.124370
     6  C   -0.127532
     7  C   -0.126479
     8  C   -0.151152
     9  C   -0.128935
    10  C   -0.178423
    11  C   -0.182627
    12  C    0.067538
    13  C    0.131800
    14  C   -0.227076
    15  C   -0.272234
    16  C    0.123376
    17  C   -0.189809
    18  C   -0.136541
    19  C   -0.135282
    20  C   -0.191223
    21  C    0.064783
    22  C    0.064922
    23  C   -0.191191
    24  C   -0.135865
    25  C   -0.136392
    26  C   -0.187423
    27  C    0.123660
    28  C    0.125742
    29  C   -0.187282
    30  C   -0.134731
    31  C   -0.134985
    32  C   -0.188591
    33  C    0.066128
    34  C   -0.352041
    35  C   -0.150671
    36  C   -0.112780
    37  C   -0.106186
    38  C   -0.119522
    39  C   -0.326885
    40  H    0.175177
    41  H    0.133512
    42  H    0.132070
    43  H    0.132432
    44  H    0.138898
    45  H    0.180815
    46  H    0.135847
    47  H    0.143716
    48  H    0.140733
    49  H    0.132090
    50  H    0.131068
    51  H    0.130653
    52  H    0.130363
    53  H    0.130298
    54  H    0.132205
    55  H    0.142067
    56  H    0.141136
    57  H    0.132314
    58  H    0.131983
    59  H    0.133890
    60  H    0.177146
    61  H    0.146328
    62  H    0.129497
    63  H    0.127221
    64  H    0.134219
    65  H    0.154810
    66  H    0.192517
 Sum of Mulliken charges =  -0.00000

 Dipole moment (field-independent basis, Debye):
    X=             -2.6104    Y=             -2.7348    Z=              0.9302  Tot=              3.8934
 Quadrupole moment (field-independent basis, Debye-Ang):
   XX=           -227.1282   YY=           -215.3308   ZZ=           -218.6854
   XY=            -13.3097   XZ=              1.3617   YZ=              3.0238

 Normal termination of Gaussian 16 at Sat Nov  5 10:46:05 2022.
