 Gaussian 16, Revision B.01,
 Gaussian 16:  ES64L-G16RevB.01 20-Dec-2017

 -----------------------------
 #p b3lyp/6-31g(d) opt SCF=XQC
 -----------------------------

 ------------------------------
 Gaussian input prepared by ASE
 ------------------------------
 Symbolic Z-matrix:
 Charge =  0 Multiplicity = 1

 SCF Done:  E(RB3LYP) =  -1842.78319798     A.U. after   16 cycles
 SCF Done:  E(RB3LYP) =  -1842.79677698     A.U. after   14 cycles
 SCF Done:  E(RB3LYP) =  -1842.79832755     A.U. after   12 cycles
 SCF Done:  E(RB3LYP) =  -1842.79879000     A.U. after   13 cycles
 SCF Done:  E(RB3LYP) =  -1842.79898900     A.U. after   12 cycles
 SCF Done:  E(RB3LYP) =  -1842.79906853     A.U. after   11 cycles
 SCF Done:  E(RB3LYP) =  -1842.79911391     A.U. after   12 cycles
 SCF Done:  E(RB3LYP) =  -1842.79912083     A.U. after   10 cycles
 SCF Done:  E(RB3LYP) =  -1842.79913416     A.U. after   11 cycles
 SCF Done:  E(RB3LYP) =  -1842.79913842     A.U. after   10 cycles
 SCF Done:  E(RB3LYP) =  -1842.79914414     A.U. after   11 cycles
 SCF Done:  E(RB3LYP) =  -1842.79914503     A.U. after   10 cycles
 SCF Done:  E(RB3LYP) =  -1842.79914576     A.U. after   10 cycles
 SCF Done:  E(RB3LYP) =  -1842.79914575     A.U. after    7 cycles
 SCF Done:  E(RB3LYP) =  -1842.79914579     A.U. after    7 cycles
 SCF Done:  E(RB3LYP) =  -1842.79914579     A.U. after    6 cycles
 Optimization completed.
    -- Stationary point found.

                         Standard orientation:
 ---------------------------------------------------------------------
 Center     Atomic      Atomic             Coordinates (Angstroms)
 Number     Number       Type             X           Y           Z
 ---------------------------------------------------------------------
      1          8           0        3.581766   -2.627224   -0.882196
      2         15           0        2.857292   -1.337991   -0.588124
      3          6           0        3.464279   -0.581633    0.967250
      4          6           0        4.602181   -1.179868    1.529488
      5          6           0        5.144109   -0.688183    2.717105
      6          6           0        4.554556    0.404216    3.355073
      7          6           0        3.416990    0.999814    2.805925
      8          6           0        2.871362    0.509682    1.619400
      9          6           0        1.054007   -1.613208   -0.404161
     10          6           0        0.639530   -2.956318   -0.436179
     11          6           0       -0.708127   -3.297062   -0.315071
     12          6           0       -1.653421   -2.281261   -0.163450
     13          6           0       -1.243998   -0.934483   -0.134274
     14          6           0        0.095707   -0.594654   -0.252583
     15          6           0       -2.449252   -0.003034    0.032058
     16          6           0       -2.588788    1.024908   -1.096032
     17          6           0       -2.714024    0.801539   -2.462043
     18          6           0       -2.826266    1.901953   -3.319077
     19          6           0       -2.812815    3.205227   -2.809510
     20          6           0       -2.687387    3.431571   -1.437045
     21          6           0       -2.575137    2.334809   -0.579766
     22          6           0       -2.432473    2.262790    0.881218
     23          6           0       -2.368050    3.269845    1.846610
     24          6           0       -2.228310    2.909654    3.188758
     25          6           0       -2.153541    1.562934    3.561726
     26          6           0       -2.218017    0.552279    2.596208
     27          6           0       -2.357536    0.908836    1.260282
     28          6           0       -3.599332   -1.013269    0.095329
     29          6           0       -4.959594   -0.769779    0.242997
     30          6           0       -5.840034   -1.856471    0.275085
     31          6           0       -5.360850   -3.166642    0.160683
     32          6           0       -3.994757   -3.413693    0.012283
     33          6           0       -3.114113   -2.330104   -0.020002
     34          6           0        3.056889   -0.140560   -2.036724
     35          6           0        2.556679    1.261828   -1.806279
     36          6           0        3.404174    2.248128   -1.458000
     37          6           0        4.841230    2.001612   -1.329434
     38          6           0        5.380832    0.869265   -1.810007
     39          6           0        4.527976   -0.157176   -2.516091
     40          1           0        5.043375   -2.035781    1.028215
     41          1           0        6.024068   -1.160919    3.145458
     42          1           0        4.975085    0.787259    4.281373
     43          1           0        2.949136    1.844939    3.303972
     44          1           0        1.982716    0.981198    1.215598
     45          1           0        1.395131   -3.725434   -0.562860
     46          1           0       -1.009879   -4.340964   -0.341868
     47          1           0        0.385544    0.450831   -0.232724
     48          1           0       -2.726054   -0.209863   -2.859703
     49          1           0       -2.925380    1.742399   -4.389317
     50          1           0       -2.901338    4.049397   -3.488127
     51          1           0       -2.678397    4.446124   -1.046773
     52          1           0       -2.426316    4.317562    1.562650
     53          1           0       -2.177835    3.682841    3.950795
     54          1           0       -2.044825    1.298816    4.610100
     55          1           0       -2.159728   -0.492876    2.888225
     56          1           0       -5.334553    0.246300    0.332097
     57          1           0       -6.906248   -1.681166    0.389999
     58          1           0       -6.058584   -3.999262    0.187673
     59          1           0       -3.626855   -4.432641   -0.076098
     60          1           0        2.439045   -0.636024   -2.796442
     61          1           0        1.493595    1.457769   -1.916722
     62          1           0        3.028782    3.252010   -1.272588
     63          1           0        5.461134    2.760555   -0.858767
     64          1           0        6.452695    0.694636   -1.751406
     65          1           0        4.548211    0.055214   -3.598421
     66          1           0        4.935907   -1.166215   -2.395420
 ---------------------------------------------------------------------

 The electronic state is 1-A.
 Alpha  occ. eigenvalues --  -77.14808 -19.07905 -10.21999 -10.20194 -10.20176
 Alpha  occ. eigenvalues --  -10.20140 -10.20084 -10.19977 -10.19937 -10.19903
 Alpha  occ. eigenvalues --  -10.19864 -10.19857 -10.19820 -10.19733 -10.19561
 Alpha  occ. eigenvalues --  -10.19541 -10.19526 -10.19520 -10.19462 -10.19460
 Alpha  occ. eigenvalues --  -10.19459 -10.19435 -10.19416 -10.19413 -10.19367
 Alpha  occ. eigenvalues --  -10.19365 -10.19360 -10.19357 -10.19316 -10.19268
 Alpha  occ. eigenvalues --  -10.19240 -10.19058 -10.19049 -10.18895 -10.18841
 Alpha  occ. eigenvalues --  -10.18831 -10.18707 -10.18580 -10.18199  -6.60568
 Alpha  occ. eigenvalues --   -4.76803  -4.76789  -4.76779  -0.94050  -0.90654
 Alpha  occ. eigenvalues --   -0.87678  -0.85145  -0.84830  -0.84684  -0.83811
 Alpha  occ. eigenvalues --   -0.81235  -0.78881  -0.77332  -0.75456  -0.74913
 Alpha  occ. eigenvalues --   -0.74666  -0.74589  -0.74358  -0.74214  -0.74091
 Alpha  occ. eigenvalues --   -0.72025  -0.71743  -0.68647  -0.64997  -0.63993
 Alpha  occ. eigenvalues --   -0.62932  -0.61058  -0.60653  -0.60162  -0.59195
 Alpha  occ. eigenvalues --   -0.58774  -0.58748  -0.58042  -0.57865  -0.57067
 Alpha  occ. eigenvalues --   -0.54574  -0.52684  -0.51335  -0.50968  -0.50472
 Alpha  occ. eigenvalues --   -0.49693  -0.49090  -0.48302  -0.47180  -0.47045
 Alpha  occ. eigenvalues --   -0.45872  -0.45077  -0.44764  -0.44579  -0.44565
 Alpha  occ. eigenvalues --   -0.44417  -0.43685  -0.43576  -0.43534  -0.42680
 Alpha  occ. eigenvalues --   -0.42322  -0.42074  -0.41880  -0.41858  -0.41632
 Alpha  occ. eigenvalues --   -0.41094  -0.40372  -0.39526  -0.38721  -0.38633
 Alpha  occ. eigenvalues --   -0.37905  -0.37309  -0.36983  -0.36430  -0.35628
 Alpha  occ. eigenvalues --   -0.35527  -0.35347  -0.35153  -0.34618  -0.34294
 Alpha  occ. eigenvalues --   -0.34138  -0.33835  -0.33770  -0.33604  -0.32870
 Alpha  occ. eigenvalues --   -0.32528  -0.31698  -0.30823  -0.28704  -0.28554
 Alpha  occ. eigenvalues --   -0.26802  -0.25968  -0.25592  -0.25147  -0.24911
 Alpha  occ. eigenvalues --   -0.24813  -0.24776  -0.24311  -0.22448  -0.21448
 Alpha  occ. eigenvalues --   -0.20554
 Alpha virt. eigenvalues --   -0.04468  -0.03510  -0.02771  -0.01978  -0.01823
 Alpha virt. eigenvalues --   -0.01397  -0.00344   0.00224   0.01118   0.02873
 Alpha virt. eigenvalues --    0.04090   0.06653   0.07665   0.08658   0.09461

 Mulliken charges:
               1
     1  O   -0.609785
     2  P    0.889945
     3  C   -0.087983
     4  C   -0.166957
     5  C   -0.124364
     6  C   -0.127540
     7  C   -0.126476
     8  C   -0.151140
     9  C   -0.128920
    10  C   -0.178437
    11  C   -0.182641
    12  C    0.067564
    13  C    0.131753
    14  C   -0.227055
    15  C   -0.272239
    16  C    0.123385
    17  C   -0.189806
    18  C   -0.136545
    19  C   -0.135287
    20  C   -0.191211
    21  C    0.064790
    22  C    0.064900
    23  C   -0.191192
    24  C   -0.135860
    25  C   -0.136396
    26  C   -0.187418
    27  C    0.123679
    28  C    0.125718
    29  C   -0.187274
    30  C   -0.134728
    31  C   -0.134992
    32  C   -0.188584
    33  C    0.066137
    34  C   -0.352018
    35  C   -0.150662
    36  C   -0.112776
    37  C   -0.106207
    38  C   -0.119515
    39  C   -0.326873
    40  H    0.175178
    41  H    0.133512
    42  H    0.132071
    43  H    0.132433
    44  H    0.138898
    45  H    0.180815
    46  H    0.135848
    47  H    0.143721
    48  H    0.140733
    49  H    0.132090
    50  H    0.131067
    51  H    0.130653
    52  H    0.130362
    53  H    0.130298
    54  H    0.132204
    55  H    0.142066
    56  H    0.141137
    57  H    0.132315
    58  H    0.131983
    59  H    0.133890
    60  H    0.177144
    61  H    0.146328
    62  H    0.129496
    63  H    0.127223
    64  H    0.134222
    65  H    0.154807
    66  H    0.192519
 Sum of Mulliken charges =  -0.00000

 Dipole moment (field-independent basis, Debye):
    X=             -2.2370    Y=              3.0667    Z=              0.8657  Tot=              3.8934
 Quadrupole moment (field-independent basis, Debye-Ang):
   XX=           -222.7202   YY=           -219.6144   ZZ=           -217.9797
   XY=             13.0831   XZ=              6.4352   YZ=              0.1753

 Normal termination of Gaussian 16 at Sat Nov  5 01:40:23 2022.
