 Gaussian 16, Revision B.01,
 Gaussian 16:  ES64L-G16RevB.01 20-Dec-2017

 -------------------------------------------------------------------
 #p b3lyp/6-31g(d) 6D 10F nosymm GFInput td=(50-50,nstate=2) SCF=XQC
 -------------------------------------------------------------------

 ------------------------------
 Gaussian input prepared by ASE
 ------------------------------
 Symbolic Z-matrix:
 Charge =  0 Multiplicity = 1

                          Input orientation:
 ---------------------------------------------------------------------
 Center     Atomic      Atomic             Coordinates (Angstroms)
 Number     Number       Type             X           Y           Z
 ---------------------------------------------------------------------
      1          9           0       -6.351244    1.641112   -6.470116
      2          6           0       -5.846795    1.343480   -5.252514
      3          6           0       -4.794930    2.101113   -4.750615
      4          6           0       -4.284833    1.798061   -3.490079
      5          6           0       -4.807146    0.729978   -2.742706
      6          7           0       -4.273906    0.415796   -1.461685
      7          6           0       -5.147536    0.133527   -0.380858
      8          6           0       -4.844244   -0.878626    0.544984
      9          6           0       -5.702358   -1.147541    1.605340
     10          6           0       -6.902294   -0.436847    1.781906
     11          6           0       -7.817502   -0.734469    2.910186
     12          6           0       -7.316841   -1.098534    4.172621
     13          6           0       -8.176755   -1.380371    5.232869
     14          6           0       -9.559629   -1.301062    5.058200
     15          6           0      -10.072968   -0.938947    3.811399
     16          6           0       -9.212525   -0.661266    2.750482
     17          6           0       -7.198360    0.567489    0.844250
     18          6           0       -6.340096    0.856211   -0.210986
     19          6           0       -2.865636    0.389312   -1.274065
     20          6           0       -2.022474   -0.176252   -2.243694
     21          6           0       -0.643807   -0.189625   -2.061197
     22          6           0       -0.047022    0.345663   -0.906194
     23          6           0        1.423591    0.325574   -0.715849
     24          6           0        1.979126    0.113570    0.568475
     25          6           0        3.351299    0.090877    0.793080
     26          6           0        4.197549    0.291521   -0.300693
     27          6           0        3.674989    0.489276   -1.603216
     28          6           0        2.292238    0.509408   -1.799917
     29          6           0        4.810061    0.631817   -2.492031
     30          6           0        4.936866    0.859133   -3.867272
     31          6           0        6.208583    0.966077   -4.422550
     32          6           0        7.352794    0.853960   -3.613989
     33          6           0        7.254890    0.625588   -2.242993
     34          6           0        5.975584    0.507715   -1.693339
     35          7           0        5.594122    0.301838   -0.360808
     36          6           0        6.471768    0.153064    0.746366
     37          6           0        6.344118    1.028513    1.859509
     38          6           0        7.186228    0.901908    2.938386
     39          6           0        8.207754   -0.085676    2.963132
     40          6           0        9.096983   -0.234005    4.060255
     41          6           0       10.074358   -1.203762    4.048848
     42          6           0       10.205989   -2.071426    2.936639
     43          6           0        9.361139   -1.952170    1.856335
     44          6           0        8.343184   -0.960362    1.835990
     45          6           0        7.448773   -0.822192    0.742713
     46          6           0       -0.903866    0.902791    0.059471
     47          6           0       -2.282858    0.933378   -0.118476
     48          6           0       -5.861937   -0.024157   -3.282229
     49          6           0       -6.392206    0.286839   -4.532458
     50          1           0       -4.397935    2.923595   -5.336666
     51          1           0       -3.473058    2.389442   -3.079349
     52          1           0       -3.936855   -1.461001    0.421530
     53          1           0       -5.454875   -1.955867    2.287896
     54          1           0       -6.242377   -1.134584    4.329925
     55          1           0       -7.764484   -1.652716    6.201092
     56          1           0      -10.230196   -1.519176    5.884973
     57          1           0      -11.147913   -0.882152    3.660232
     58          1           0       -9.625372   -0.409984    1.777367
     59          1           0       -8.098717    1.163360    0.965903
     60          1           0       -6.584996    1.654478   -0.904323
     61          1           0       -2.455010   -0.617452   -3.136216
     62          1           0       -0.019162   -0.662221   -2.814178
     63          1           0        1.311066   -0.069096    1.405086
     64          1           0        3.746273   -0.094996    1.786471
     65          1           0        1.888262    0.691149   -2.792037
     66          1           0        4.052460    0.955628   -4.491748
     67          1           0        6.319874    1.141404   -5.488762
     68          1           0        8.337186    0.948711   -4.064386
     69          1           0        8.142637    0.548215   -1.624247
     70          1           0        5.583655    1.802488    1.835703
     71          1           0        7.086614    1.574675    3.786744
     72          1           0        8.992304    0.433547    4.912320
     73          1           0       10.748883   -1.307881    4.894210
     74          1           0       10.980053   -2.833948    2.939681
     75          1           0        9.460985   -2.617603    1.002182
     76          1           0        7.530237   -1.500805   -0.101536
     77          1           0       -0.479877    1.358653    0.949947
     78          1           0       -2.916510    1.391209    0.634571
     79          1           0       -6.267694   -0.855614   -2.715219
     80          1           0       -7.207681   -0.288835   -4.958074
 ---------------------------------------------------------------------

 SCF Done:  E(RB3LYP) =  -1980.96174248     A.U. after   15 cycles

 Excitation energies and oscillator strengths:

 Excited state symmetry could not be determined.
 Excited State   1:      Triplet-?Sym    2.6526 eV  467.41 nm  f=0.0000  <S**2>=2.000
     151 ->177         0.11785
     161 ->166        -0.15376
     162 ->166         0.51036
     164 ->166        -0.34031
     165 ->166         0.20345
 This state for optimization and/or second-order correction.
 Total Energy, E(TD-HF/TD-DFT) =  -1980.86426206
 Copying the excited state density for this state as the 1-particle RhoCI density.

 Excited state symmetry could not be determined.
 Excited State   2:      Triplet-?Sym    2.7721 eV  447.26 nm  f=0.0000  <S**2>=2.000
     162 ->166         0.10678
     165 ->166        -0.11673
     165 ->167         0.57224
     165 ->171         0.12423

 Excited state symmetry could not be determined.
 Excited State   3:      Singlet-?Sym    3.1687 eV  391.28 nm  f=0.1499  <S**2>=0.000
     164 ->166        -0.18051
     165 ->166         0.67799

 Excited state symmetry could not be determined.
 Excited State   4:      Singlet-?Sym    3.5038 eV  353.85 nm  f=0.9438  <S**2>=0.000
     165 ->167         0.69068

 Alpha  occ. eigenvalues --  -24.70065 -14.38387 -14.36648 -10.26854 -10.24147
 Alpha  occ. eigenvalues --  -10.23264 -10.23019 -10.22836 -10.22490 -10.22478
 Alpha  occ. eigenvalues --  -10.20842 -10.20658 -10.20304 -10.20224 -10.20128
 Alpha  occ. eigenvalues --  -10.19907 -10.19878 -10.19848 -10.19837 -10.19822
 Alpha  occ. eigenvalues --  -10.19805 -10.19770 -10.19762 -10.19656 -10.19422
 Alpha  occ. eigenvalues --  -10.19366 -10.19207 -10.19011 -10.18984 -10.18974
 Alpha  occ. eigenvalues --  -10.18914 -10.18869 -10.18840 -10.18826 -10.18825
 Alpha  occ. eigenvalues --  -10.18816 -10.18805 -10.18804 -10.18800 -10.18794
 Alpha  occ. eigenvalues --  -10.18791 -10.18767 -10.18763 -10.18732 -10.18726
 Alpha  occ. eigenvalues --  -10.18683 -10.18639 -10.18637 -10.18178  -1.21171
 Alpha  occ. eigenvalues --   -0.99082  -0.96566  -0.88343  -0.86455  -0.86351
 Alpha  occ. eigenvalues --   -0.85626  -0.85025  -0.84282  -0.83408  -0.82278
 Alpha  occ. eigenvalues --   -0.78884  -0.77806  -0.77457  -0.76765  -0.75792
 Alpha  occ. eigenvalues --   -0.75197  -0.74960  -0.74537  -0.74282  -0.73839
 Alpha  occ. eigenvalues --   -0.73382  -0.73013  -0.71583  -0.71263  -0.69372
 Alpha  occ. eigenvalues --   -0.65312  -0.63782  -0.63284  -0.63114  -0.62186
 Alpha  occ. eigenvalues --   -0.62037  -0.61385  -0.60639  -0.60485  -0.59632
 Alpha  occ. eigenvalues --   -0.58963  -0.58624  -0.57889  -0.57209  -0.56670
 Alpha  occ. eigenvalues --   -0.54215  -0.53880  -0.53430  -0.52675  -0.52377
 Alpha  occ. eigenvalues --   -0.51814  -0.51521  -0.50794  -0.50647  -0.48777
 Alpha  occ. eigenvalues --   -0.47673  -0.47570  -0.46565  -0.46281  -0.45985
 Alpha  occ. eigenvalues --   -0.45826  -0.45439  -0.45149  -0.44880  -0.44529
 Alpha  occ. eigenvalues --   -0.44041  -0.43960  -0.43678  -0.43411  -0.43320
 Alpha  occ. eigenvalues --   -0.43253  -0.43154  -0.42812  -0.42274  -0.42234
 Alpha  occ. eigenvalues --   -0.41992  -0.41892  -0.41547  -0.41422  -0.41104
 Alpha  occ. eigenvalues --   -0.40597  -0.39970  -0.39676  -0.39160  -0.38520
 Alpha  occ. eigenvalues --   -0.37776  -0.37302  -0.37008  -0.36644  -0.36510
 Alpha  occ. eigenvalues --   -0.35956  -0.35722  -0.35367  -0.35075  -0.34887
 Alpha  occ. eigenvalues --   -0.34609  -0.34424  -0.34377  -0.34036  -0.33790
 Alpha  occ. eigenvalues --   -0.33547  -0.33324  -0.33081  -0.31929  -0.30467
 Alpha  occ. eigenvalues --   -0.29283  -0.28017  -0.27190  -0.26256  -0.26164
 Alpha  occ. eigenvalues --   -0.25267  -0.25196  -0.24849  -0.24745  -0.24174
 Alpha  occ. eigenvalues --   -0.23068  -0.22564  -0.21236  -0.19811  -0.17689
 Alpha virt. eigenvalues --   -0.04854  -0.03051  -0.02766  -0.02185  -0.01849
 Alpha virt. eigenvalues --   -0.01769  -0.00042   0.00233   0.00576   0.00732
 Alpha virt. eigenvalues --    0.01615   0.02335   0.03427   0.04107   0.05531

 Mulliken charges:
               1
     1  F   -0.300161
     2  C    0.379853
     3  C   -0.207823
     4  C   -0.160465
     5  C    0.272808
     6  N   -0.656927
     7  C    0.290562
     8  C   -0.172466
     9  C   -0.189010
    10  C    0.094785
    11  C    0.091183
    12  C   -0.175436
    13  C   -0.133678
    14  C   -0.127720
    15  C   -0.133687
    16  C   -0.175494
    17  C   -0.188606
    18  C   -0.174022
    19  C    0.282555
    20  C   -0.171993
    21  C   -0.188314
    22  C    0.096425
    23  C    0.086166
    24  C   -0.195026
    25  C   -0.179024
    26  C    0.318363
    27  C    0.065843
    28  C   -0.259934
    29  C    0.057767
    30  C   -0.196707
    31  C   -0.145067
    32  C   -0.141757
    33  C   -0.175923
    34  C    0.312094
    35  N   -0.738957
    36  C    0.268077
    37  C   -0.152684
    38  C   -0.207648
    39  C    0.145629
    40  C   -0.192556
    41  C   -0.133910
    42  C   -0.135728
    43  C   -0.189115
    44  C    0.128974
    45  C   -0.233505
    46  C   -0.191360
    47  C   -0.170303
    48  C   -0.160213
    49  C   -0.207874
    50  H    0.148809
    51  H    0.153542
    52  H    0.146117
    53  H    0.134530
    54  H    0.130121
    55  H    0.129100
    56  H    0.128368
    57  H    0.129290
    58  H    0.130174
    59  H    0.134518
    60  H    0.143479
    61  H    0.142421
    62  H    0.133755
    63  H    0.130072
    64  H    0.142516
    65  H    0.132974
    66  H    0.130435
    67  H    0.124826
    68  H    0.127446
    69  H    0.140388
    70  H    0.152747
    71  H    0.138390
    72  H    0.133578
    73  H    0.134230
    74  H    0.134830
    75  H    0.135107
    76  H    0.151339
    77  H    0.132652
    78  H    0.144368
    79  H    0.153178
    80  H    0.148706
 Sum of Mulliken charges =  -0.00000

 Dipole moment (field-independent basis, Debye):
    X=              2.3921    Y=             -0.4929    Z=              2.4015  Tot=              3.4252
 Quadrupole moment (field-independent basis, Debye-Ang):
   XX=           -244.9418   YY=           -277.8789   ZZ=           -266.1415
   XY=             -3.5254   XZ=              4.0147   YZ=              1.3651

 Normal termination of Gaussian 16 at Sat Nov  5 10:57:16 2022.
