 Gaussian 16, Revision B.01,
 Gaussian 16:  ES64L-G16RevB.01 20-Dec-2017

 -----------------------------
 #p b3lyp/6-31g(d) opt SCF=XQC
 -----------------------------

 ------------------------------
 Gaussian input prepared by ASE
 ------------------------------
 Symbolic Z-matrix:
 Charge =  0 Multiplicity = 1

 SCF Done:  E(RB3LYP) =  -1980.95093212     A.U. after   15 cycles
 SCF Done:  E(RB3LYP) =  -1980.96119869     A.U. after   13 cycles
 SCF Done:  E(RB3LYP) =  -1980.96163565     A.U. after   12 cycles
 SCF Done:  E(RB3LYP) =  -1980.96171062     A.U. after   11 cycles
 SCF Done:  E(RB3LYP) =  -1980.96173536     A.U. after   11 cycles
 SCF Done:  E(RB3LYP) =  -1980.96174515     A.U. after   10 cycles
 SCF Done:  E(RB3LYP) =  -1980.96174771     A.U. after    9 cycles
 SCF Done:  E(RB3LYP) =  -1980.96174831     A.U. after    9 cycles
 SCF Done:  E(RB3LYP) =  -1980.96174852     A.U. after    7 cycles
 SCF Done:  E(RB3LYP) =  -1980.96174854     A.U. after    6 cycles
 Optimization completed.
    -- Stationary point found.

                         Standard orientation:
 ---------------------------------------------------------------------
 Center     Atomic      Atomic             Coordinates (Angstroms)
 Number     Number       Type             X           Y           Z
 ---------------------------------------------------------------------
      1          9           0       -6.533344   -6.262056    0.014733
      2          6           0       -5.989052   -5.025387    0.012179
      3          6           0       -4.929151   -4.752763   -0.844918
      4          6           0       -4.377847   -3.473311   -0.852473
      5          6           0       -4.867277   -2.476273    0.006918
      6          7           0       -4.292112   -1.175023    0.005245
      7          6           0       -5.129533   -0.030680    0.022424
      8          6           0       -4.788805    1.099809    0.783687
      9          6           0       -5.611468    2.220600    0.792765
     10          6           0       -6.811785    2.260717    0.062192
     11          6           0       -7.689167    3.456111    0.083004
     12          6           0       -7.146684    4.752272    0.134256
     13          6           0       -7.971033    5.876101    0.155911
     14          6           0       -9.359281    5.731886    0.122605
     15          6           0       -9.913938    4.451770    0.069530
     16          6           0       -9.089043    3.328268    0.052070
     17          6           0       -7.145585    1.120397   -0.688669
     18          6           0       -6.322793   -0.000158   -0.718204
     19          6           0       -2.878560   -1.031661   -0.015875
     20          6           0       -2.060513   -1.864726    0.763718
     21          6           0       -0.676824   -1.728518    0.731133
     22          6           0       -0.049695   -0.754380   -0.065408
     23          6           0        1.426194   -0.611894   -0.093479
     24          6           0        2.022822    0.667459   -0.195193
     25          6           0        3.401397    0.846967   -0.228778
     26          6           0        4.211793   -0.289580   -0.163562
     27          6           0        3.647694   -1.584250   -0.043711
     28          6           0        2.259426   -1.735726   -0.014291
     29          6           0        4.753585   -2.517245    0.028552
     30          6           0        4.836016   -3.910325    0.136135
     31          6           0        6.089053   -4.515474    0.163099
     32          6           0        7.258533   -3.740559    0.077189
     33          6           0        7.204868   -2.352272   -0.028396
     34          6           0        5.944172   -1.749728   -0.043392
     35          7           0        5.605709   -0.395072   -0.161226
     36          6           0        6.518268    0.686946   -0.282486
     37          6           0        6.416975    1.562439   -1.398302
     38          6           0        7.292947    2.612838   -1.534279
     39          6           0        8.323633    2.839909   -0.582662
     40          6           0        9.247456    3.911695   -0.701970
     41          6           0       10.232742    4.100835    0.241036
     42          6           0       10.337971    3.224262    1.349063
     43          6           0        9.459284    2.174320    1.492521
     44          6           0        8.432265    1.950398    0.535747
     45          6           0        7.503472    0.884936    0.664008
     46          6           0       -0.881462    0.077290   -0.835844
     47          6           0       -2.265491   -0.058600   -0.821060
     48          6           0       -5.931290   -2.786156    0.869611
     49          6           0       -6.502512   -4.056854    0.867017
     50          1           0       -4.557799   -5.530592   -1.504172
     51          1           0       -3.559212   -3.241806   -1.526008
     52          1           0       -3.880412    1.089970    1.377390
     53          1           0       -5.335836    3.068095    1.414296
     54          1           0       -6.067612    4.879174    0.130145
     55          1           0       -7.526763    6.867643    0.188503
     56          1           0      -10.002130    6.607842    0.137879
     57          1           0      -10.993489    4.325888    0.052031
     58          1           0       -9.533848    2.337024    0.041100
     59          1           0       -8.047126    1.125042   -1.295057
     60          1           0       -6.596083   -0.855798   -1.327396
     61          1           0       -2.516264   -2.611825    1.405962
     62          1           0       -0.071366   -2.366513    1.369013
     63          1           0        1.382461    1.544422   -0.216694
     64          1           0        3.828371    1.842850   -0.286141
     65          1           0        1.823532   -2.729101    0.046794
     66          1           0        3.932004   -4.511156    0.192869
     67          1           0        6.165943   -5.595715    0.247370
     68          1           0        8.227725   -4.231811    0.091352
     69          1           0        8.111871   -1.761672   -0.102334
     70          1           0        5.649178    1.378916   -2.143093
     71          1           0        7.213371    3.278823   -2.390072
     72          1           0        9.162979    4.582684   -1.553577
     73          1           0       10.933835    4.924586    0.139243
     74          1           0       11.118622    3.384463    2.087674
     75          1           0        9.538847    1.500953    2.342577
     76          1           0        7.565086    0.224915    1.524523
     77          1           0       -0.434449    0.819176   -1.491823
     78          1           0       -2.879816    0.583271   -1.444606
     79          1           0       -6.311904   -2.024384    1.542141
     80          1           0       -7.325444   -4.306438    1.528863
 ---------------------------------------------------------------------

 The electronic state is 1-A.
 Alpha  occ. eigenvalues --  -24.70065 -14.38386 -14.36648 -10.26854 -10.24147
 Alpha  occ. eigenvalues --  -10.23264 -10.23019 -10.22836 -10.22489 -10.22479
 Alpha  occ. eigenvalues --  -10.20842 -10.20658 -10.20304 -10.20224 -10.20128
 Alpha  occ. eigenvalues --  -10.19907 -10.19878 -10.19848 -10.19837 -10.19822
 Alpha  occ. eigenvalues --  -10.19805 -10.19770 -10.19762 -10.19656 -10.19422
 Alpha  occ. eigenvalues --  -10.19366 -10.19207 -10.19011 -10.18984 -10.18974
 Alpha  occ. eigenvalues --  -10.18914 -10.18869 -10.18840 -10.18826 -10.18825
 Alpha  occ. eigenvalues --  -10.18816 -10.18805 -10.18804 -10.18800 -10.18794
 Alpha  occ. eigenvalues --  -10.18791 -10.18767 -10.18763 -10.18732 -10.18726
 Alpha  occ. eigenvalues --  -10.18683 -10.18639 -10.18637 -10.18178  -1.21171
 Alpha  occ. eigenvalues --   -0.99082  -0.96566  -0.88343  -0.86454  -0.86351
 Alpha  occ. eigenvalues --   -0.85627  -0.85025  -0.84282  -0.83408  -0.82278
 Alpha  occ. eigenvalues --   -0.78884  -0.77806  -0.77457  -0.76765  -0.75792
 Alpha  occ. eigenvalues --   -0.75197  -0.74960  -0.74537  -0.74283  -0.73839
 Alpha  occ. eigenvalues --   -0.73382  -0.73013  -0.71583  -0.71263  -0.69372
 Alpha  occ. eigenvalues --   -0.65312  -0.63782  -0.63284  -0.63114  -0.62186
 Alpha  occ. eigenvalues --   -0.62037  -0.61385  -0.60639  -0.60485  -0.59632
 Alpha  occ. eigenvalues --   -0.58963  -0.58624  -0.57889  -0.57209  -0.56670
 Alpha  occ. eigenvalues --   -0.54215  -0.53880  -0.53430  -0.52674  -0.52377
 Alpha  occ. eigenvalues --   -0.51814  -0.51521  -0.50794  -0.50647  -0.48777
 Alpha  occ. eigenvalues --   -0.47673  -0.47570  -0.46565  -0.46281  -0.45985
 Alpha  occ. eigenvalues --   -0.45826  -0.45439  -0.45149  -0.44880  -0.44529
 Alpha  occ. eigenvalues --   -0.44041  -0.43960  -0.43678  -0.43411  -0.43320
 Alpha  occ. eigenvalues --   -0.43253  -0.43154  -0.42812  -0.42274  -0.42234
 Alpha  occ. eigenvalues --   -0.41992  -0.41892  -0.41547  -0.41422  -0.41104
 Alpha  occ. eigenvalues --   -0.40597  -0.39970  -0.39676  -0.39160  -0.38520
 Alpha  occ. eigenvalues --   -0.37776  -0.37302  -0.37008  -0.36644  -0.36510
 Alpha  occ. eigenvalues --   -0.35956  -0.35722  -0.35367  -0.35075  -0.34887
 Alpha  occ. eigenvalues --   -0.34609  -0.34424  -0.34377  -0.34036  -0.33790
 Alpha  occ. eigenvalues --   -0.33547  -0.33324  -0.33081  -0.31929  -0.30467
 Alpha  occ. eigenvalues --   -0.29283  -0.28017  -0.27190  -0.26256  -0.26164
 Alpha  occ. eigenvalues --   -0.25267  -0.25196  -0.24849  -0.24745  -0.24174
 Alpha  occ. eigenvalues --   -0.23068  -0.22564  -0.21236  -0.19811  -0.17689
 Alpha virt. eigenvalues --   -0.04854  -0.03051  -0.02766  -0.02185  -0.01849
 Alpha virt. eigenvalues --   -0.01769  -0.00042   0.00233   0.00576   0.00732
 Alpha virt. eigenvalues --    0.01615   0.02335   0.03427   0.04107   0.05531

 Mulliken charges:
               1
     1  F   -0.300161
     2  C    0.379851
     3  C   -0.207820
     4  C   -0.160461
     5  C    0.272807
     6  N   -0.656940
     7  C    0.290580
     8  C   -0.172477
     9  C   -0.188996
    10  C    0.094792
    11  C    0.091143
    12  C   -0.175423
    13  C   -0.133679
    14  C   -0.127724
    15  C   -0.133685
    16  C   -0.175481
    17  C   -0.188603
    18  C   -0.174023
    19  C    0.282544
    20  C   -0.171989
    21  C   -0.188313
    22  C    0.096431
    23  C    0.086163
    24  C   -0.195021
    25  C   -0.179022
    26  C    0.318344
    27  C    0.065850
    28  C   -0.259941
    29  C    0.057771
    30  C   -0.196712
    31  C   -0.145066
    32  C   -0.141756
    33  C   -0.175930
    34  C    0.312105
    35  N   -0.738966
    36  C    0.268112
    37  C   -0.152695
    38  C   -0.207641
    39  C    0.145635
    40  C   -0.192566
    41  C   -0.133910
    42  C   -0.135722
    43  C   -0.189119
    44  C    0.128976
    45  C   -0.233517
    46  C   -0.191369
    47  C   -0.170296
    48  C   -0.160210
    49  C   -0.207876
    50  H    0.148808
    51  H    0.153542
    52  H    0.146117
    53  H    0.134527
    54  H    0.130122
    55  H    0.129100
    56  H    0.128369
    57  H    0.129291
    58  H    0.130175
    59  H    0.134517
    60  H    0.143478
    61  H    0.142423
    62  H    0.133756
    63  H    0.130073
    64  H    0.142515
    65  H    0.132973
    66  H    0.130435
    67  H    0.124826
    68  H    0.127445
    69  H    0.140391
    70  H    0.152745
    71  H    0.138389
    72  H    0.133580
    73  H    0.134230
    74  H    0.134829
    75  H    0.135106
    76  H    0.151340
    77  H    0.132652
    78  H    0.144366
    79  H    0.153180
    80  H    0.148706
 Sum of Mulliken charges =  -0.00000

 Dipole moment (field-independent basis, Debye):
    X=              2.4691    Y=              2.3720    Z=             -0.0985  Tot=              3.4252
 Quadrupole moment (field-independent basis, Debye-Ang):
   XX=           -244.5156   YY=           -266.7462   ZZ=           -276.5936
   XY=              4.5813   XZ=              2.4212   YZ=             -3.9070

 Normal termination of Gaussian 16 at Sat Nov  5 01:16:41 2022.
