 Gaussian 16, Revision B.01,
 Gaussian 16:  ES64L-G16RevB.01 20-Dec-2017

 -------------------------------------------------------------------
 #p b3lyp/6-31g(d) 6D 10F nosymm GFInput td=(50-50,nstate=2) SCF=XQC
 -------------------------------------------------------------------

 ------------------------------
 Gaussian input prepared by ASE
 ------------------------------
 Symbolic Z-matrix:
 Charge =  0 Multiplicity = 1

                          Input orientation:
 ---------------------------------------------------------------------
 Center     Atomic      Atomic             Coordinates (Angstroms)
 Number     Number       Type             X           Y           Z
 ---------------------------------------------------------------------
      1          6           0      -12.093903    3.316261   -0.392535
      2          6           0      -12.510958    2.030426   -0.745263
      3          6           0      -11.585187    0.993784   -0.832284
      4          6           0      -10.227435    1.231784   -0.566499
      5          6           0       -9.240705    0.128428   -0.658842
      6          7           0       -9.689587   -1.087571   -1.006939
      7          6           0       -8.764164   -2.056302   -1.078777
      8          6           0       -9.210961   -3.417800   -1.459801
      9          6           0      -10.563835   -3.669245   -1.738020
     10          6           0      -10.981914   -4.948399   -2.095879
     11          6           0      -10.056208   -5.991407   -2.180317
     12          6           0       -8.708236   -5.748680   -1.904782
     13          6           0       -8.286504   -4.470744   -1.546749
     14          7           0       -7.458373   -1.870061   -0.827277
     15          6           0       -7.101897   -0.622657   -0.486672
     16          6           0       -5.669728   -0.370284   -0.199601
     17          6           0       -4.724851   -1.409988   -0.290023
     18          6           0       -3.396000   -1.157490   -0.020426
     19          6           0       -2.935703    0.126987    0.351515
     20          6           0       -1.523689    0.387478    0.633447
     21          6           0       -0.549544   -0.633039    0.548190
     22          6           0        0.785972   -0.401750    0.814120
     23          6           0        1.205374    0.892821    1.163874
     24          7           0        2.576058    1.152220    1.434279
     25          6           0        3.091253    1.709397    2.613167
     26          6           0        2.421153    2.109225    3.772489
     27          6           0        3.187283    2.617023    4.819351
     28          6           0        4.585827    2.722019    4.722261
     29          6           0        5.248475    2.310090    3.570333
     30          6           0        4.501891    1.795716    2.503689
     31          6           0        4.852907    1.269286    1.201806
     32          6           0        6.064301    1.114525    0.522665
     33          6           0        6.053979    0.568768   -0.761204
     34          7           0        7.280431    0.407266   -1.477801
     35          6           0        7.722573    1.259060   -2.492308
     36          6           0        7.102741    2.394785   -3.019313
     37          6           0        7.766258    3.077934   -4.035602
     38          6           0        9.016110    2.644982   -4.514865
     39          6           0        9.629179    1.515511   -3.981639
     40          6           0        8.983672    0.809117   -2.958142
     41          6           0        9.317470   -0.368918   -2.189516
     42          6           0       10.419640   -1.241596   -2.205949
     43          6           0       10.452074   -2.320137   -1.339262
     44          6           0        9.384440   -2.549301   -0.443466
     45          6           0        9.249352   -3.631752    0.517606
     46          6           0       10.134901   -4.687326    0.788928
     47          6           0        9.812566   -5.630392    1.758143
     48          6           0        8.606875   -5.538732    2.471403
     49          6           0        7.712313   -4.501497    2.220619
     50          6           0        8.041073   -3.557103    1.245559
     51         16           0        7.055580   -2.168148    0.775789
     52          6           0        8.271732   -1.679041   -0.413926
     53          6           0        8.242941   -0.584835   -1.288052
     54          6           0        4.841277    0.202929   -1.378218
     55          6           0        3.623932    0.360543   -0.724408
     56          6           0        3.640800    0.882198    0.573037
     57          6           0        0.271274    1.915169    1.247059
     58          6           0       -1.100264    1.693636    1.002772
     59          6           0       -2.078917    2.781596    1.109101
     60          6           0       -1.695058    4.087475    1.487642
     61          6           0       -2.612871    5.117624    1.586900
     62          6           0       -3.963185    4.870612    1.307773
     63          6           0       -4.365568    3.599423    0.939110
     64          6           0       -3.449515    2.529610    0.830992
     65          6           0       -3.884695    1.181765    0.445504
     66          6           0       -5.235280    0.899696    0.164187
     67          7           0       -7.956058    0.407944   -0.389435
     68          6           0       -9.815982    2.526387   -0.212595
     69          6           0      -10.744302    3.560747   -0.126719
     70          1           0      -12.817484    4.124414   -0.325103
     71          1           0      -13.559649    1.835764   -0.952820
     72          1           0      -11.897422   -0.007691   -1.105070
     73          1           0      -11.273120   -2.852472   -1.669397
     74          1           0      -12.031247   -5.132869   -2.309452
     75          1           0      -10.383927   -6.989294   -2.459727
     76          1           0       -7.985009   -6.557095   -1.969266
     77          1           0       -7.243250   -4.270988   -1.330784
     78          1           0       -5.054431   -2.402616   -0.573095
     79          1           0       -2.697139   -1.981187   -0.102351
     80          1           0       -0.843106   -1.640728    0.281117
     81          1           0        1.507754   -1.210758    0.767589
     82          1           0        1.343326    2.021754    3.859572
     83          1           0        2.689577    2.935151    5.731337
     84          1           0        5.152775    3.123608    5.557077
     85          1           0        6.330674    2.380211    3.500521
     86          1           0        7.005987    1.411230    0.974223
     87          1           0        6.139659    2.730805   -2.648478
     88          1           0        7.307449    3.964502   -4.465044
     89          1           0        9.506563    3.200688   -5.309111
     90          1           0       10.596356    1.186149   -4.352587
     91          1           0       11.238935   -1.069755   -2.898496
     92          1           0       11.299572   -2.999195   -1.347351
     93          1           0       11.070455   -4.766113    0.241739
     94          1           0       10.500035   -6.445686    1.965661
     95          1           0        8.367267   -6.282246    3.226602
     96          1           0        6.779279   -4.428761    2.772271
     97          1           0        4.870539   -0.210965   -2.381250
     98          1           0        2.694478    0.084029   -1.210311
     99          1           0        0.633688    2.904406    1.494628
    100          1           0       -0.657799    4.304779    1.713094
    101          1           0       -2.283663    6.110310    1.880626
    102          1           0       -4.695015    5.670177    1.381086
    103          1           0       -5.415632    3.433882    0.731269
    104          1           0       -5.986961    1.674369    0.223842
    105          1           0       -8.766458    2.704681   -0.008653
    106          1           0      -10.415659    4.559466    0.147799
 ---------------------------------------------------------------------

 SCF Done:  E(RB3LYP) =  -3095.09662605     A.U. after   16 cycles

 Excitation energies and oscillator strengths:

 Excited state symmetry could not be determined.
 Excited State   1:      Triplet-?Sym    2.5853 eV  479.57 nm  f=0.0000  <S**2>=2.000
     226 -> 234       -0.15088
     226 -> 239        0.10031
     227 -> 234        0.34708
     227 -> 237        0.13899
     228 -> 236       -0.20915
     231 -> 234        0.41147
     231 -> 237        0.12479
     233 -> 234       -0.12117
 This state for optimization and/or second-order correction.
 Total Energy, E(TD-HF/TD-DFT) =  -3095.00161741
 Copying the excited state density for this state as the 1-particle RhoCI density.

 Excited state symmetry could not be determined.
 Excited State   2:      Singlet-?Sym    2.8364 eV  437.12 nm  f=0.0193  <S**2>=0.000
     233 -> 234        0.70387

 Excited state symmetry could not be determined.
 Excited State   3:      Triplet-?Sym    2.8412 eV  436.38 nm  f=0.0000  <S**2>=2.000
     233 -> 234        0.69292

 Excited state symmetry could not be determined.
 Excited State   4:      Singlet-?Sym    3.0702 eV  403.83 nm  f=0.0002  <S**2>=0.000
     233 -> 235        0.70622

 Alpha  occ. eigenvalues --  -88.89496 -14.39212 -14.37815 -14.33969 -14.33932
 Alpha  occ. eigenvalues --  -14.33879 -10.27875 -10.27828 -10.27806 -10.24694
 Alpha  occ. eigenvalues --  -10.23611 -10.23197 -10.23079 -10.22721 -10.21854
 Alpha  occ. eigenvalues --  -10.21846 -10.21808 -10.21579 -10.21542 -10.21516
 Alpha  occ. eigenvalues --  -10.21217 -10.21198 -10.21148 -10.20744 -10.20672
 Alpha  occ. eigenvalues --  -10.20605 -10.20596 -10.20369 -10.20308 -10.20155
 Alpha  occ. eigenvalues --  -10.20073 -10.20044 -10.20004 -10.19985 -10.19962
 Alpha  occ. eigenvalues --  -10.19945 -10.19938 -10.19913 -10.19905 -10.19849
 Alpha  occ. eigenvalues --  -10.19780 -10.19764 -10.19681 -10.19643 -10.19621
 Alpha  occ. eigenvalues --  -10.19596 -10.19589 -10.19572 -10.19550 -10.19534
 Alpha  occ. eigenvalues --  -10.19524 -10.19475 -10.19458 -10.19435 -10.19410
 Alpha  occ. eigenvalues --  -10.19361 -10.19224 -10.18910 -10.18845 -10.18742
 Alpha  occ. eigenvalues --  -10.18591 -10.18577 -10.18486 -10.18417 -10.18358
 Alpha  occ. eigenvalues --  -10.18324 -10.18294 -10.18211 -10.17742  -7.95514
 Alpha  occ. eigenvalues --   -5.91979  -5.91617  -5.91104  -1.02253  -0.99947
 Alpha  occ. eigenvalues --   -0.98617  -0.90923  -0.90828  -0.89772  -0.88650
 Alpha  occ. eigenvalues --   -0.87349  -0.86081  -0.85825  -0.85678  -0.85598
 Alpha  occ. eigenvalues --   -0.84810  -0.83899  -0.83604  -0.80911  -0.80367
 Alpha  occ. eigenvalues --   -0.79029  -0.78671  -0.77886  -0.77613  -0.76864
 Alpha  occ. eigenvalues --   -0.76318  -0.75968  -0.75207  -0.75019  -0.74911
 Alpha  occ. eigenvalues --   -0.74720  -0.74487  -0.73876  -0.73177  -0.73057
 Alpha  occ. eigenvalues --   -0.72488  -0.71337  -0.70121  -0.69521  -0.68193
 Alpha  occ. eigenvalues --   -0.67913  -0.65684  -0.65099  -0.63817  -0.63505
 Alpha  occ. eigenvalues --   -0.63362  -0.62758  -0.61708  -0.61471  -0.60762
 Alpha  occ. eigenvalues --   -0.60576  -0.59869  -0.59613  -0.59537  -0.59024
 Alpha  occ. eigenvalues --   -0.58509  -0.58300  -0.58260  -0.56799  -0.56188
 Alpha  occ. eigenvalues --   -0.55997  -0.55375  -0.54406  -0.53759  -0.53100
 Alpha  occ. eigenvalues --   -0.52473  -0.52167  -0.51939  -0.51720  -0.50651
 Alpha  occ. eigenvalues --   -0.49872  -0.49625  -0.49309  -0.48561  -0.48264
 Alpha  occ. eigenvalues --   -0.47951  -0.47479  -0.47164  -0.46780  -0.46322
 Alpha  occ. eigenvalues --   -0.45858  -0.45806  -0.45215  -0.45106  -0.45044
 Alpha  occ. eigenvalues --   -0.44858  -0.44340  -0.44299  -0.44221  -0.43932
 Alpha  occ. eigenvalues --   -0.43851  -0.43720  -0.43542  -0.43231  -0.43092
 Alpha  occ. eigenvalues --   -0.42982  -0.42701  -0.42586  -0.42500  -0.42397
 Alpha  occ. eigenvalues --   -0.42202  -0.42171  -0.41806  -0.41721  -0.41613
 Alpha  occ. eigenvalues --   -0.41489  -0.40872  -0.40273  -0.39591  -0.39128
 Alpha  occ. eigenvalues --   -0.38597  -0.38439  -0.38319  -0.38050  -0.37483
 Alpha  occ. eigenvalues --   -0.37302  -0.37179  -0.37054  -0.36955  -0.36878
 Alpha  occ. eigenvalues --   -0.36555  -0.36062  -0.35942  -0.35565  -0.35333
 Alpha  occ. eigenvalues --   -0.35193  -0.34964  -0.34774  -0.34716  -0.34651
 Alpha  occ. eigenvalues --   -0.34640  -0.34133  -0.33671  -0.33522  -0.33434
 Alpha  occ. eigenvalues --   -0.33264  -0.33101  -0.33080  -0.32124  -0.31800
 Alpha  occ. eigenvalues --   -0.30797  -0.29867  -0.29019  -0.28780  -0.28517
 Alpha  occ. eigenvalues --   -0.27912  -0.26525  -0.26443  -0.25981  -0.25697
 Alpha  occ. eigenvalues --   -0.25634  -0.25137  -0.25076  -0.24902  -0.24672
 Alpha  occ. eigenvalues --   -0.24657  -0.23082  -0.22780  -0.22215  -0.21947
 Alpha  occ. eigenvalues --   -0.20559  -0.19767  -0.18948
 Alpha virt. eigenvalues --   -0.07714  -0.07053  -0.04772  -0.04044  -0.03707
 Alpha virt. eigenvalues --   -0.03564  -0.03307  -0.00879  -0.00616  -0.00425
 Alpha virt. eigenvalues --   -0.00181   0.00026   0.00544   0.01376   0.01518

 Mulliken charges:
               1
     1  C   -0.115586
     2  C   -0.139853
     3  C   -0.156090
     4  C    0.076988
     5  C    0.450299
     6  N   -0.540366
     7  C    0.451269
     8  C    0.076184
     9  C   -0.155984
    10  C   -0.139948
    11  C   -0.115507
    12  C   -0.139965
    13  C   -0.155941
    14  N   -0.544164
    15  C    0.455144
    16  C    0.099691
    17  C   -0.173306
    18  C   -0.212530
    19  C    0.084897
    20  C    0.077080
    21  C   -0.215122
    22  C   -0.163932
    23  C    0.290118
    24  N   -0.746604
    25  C    0.312057
    26  C   -0.177014
    27  C   -0.140652
    28  C   -0.144779
    29  C   -0.192739
    30  C    0.059480
    31  C    0.061559
    32  C   -0.211631
    33  C    0.204451
    34  N   -0.729806
    35  C    0.320185
    36  C   -0.180804
    37  C   -0.141440
    38  C   -0.145616
    39  C   -0.196221
    40  C    0.050247
    41  C    0.087042
    42  C   -0.211485
    43  C   -0.197064
    44  C    0.129745
    45  C    0.083753
    46  C   -0.164314
    47  C   -0.149375
    48  C   -0.114519
    49  C   -0.193159
    50  C   -0.130648
    51  S    0.222700
    52  C   -0.221216
    53  C    0.277035
    54  C   -0.147505
    55  C   -0.184178
    56  C    0.330136
    57  C   -0.254853
    58  C    0.072552
    59  C    0.064172
    60  C   -0.201732
    61  C   -0.130930
    62  C   -0.130896
    63  C   -0.197043
    64  C    0.068846
    65  C    0.082576
    66  C   -0.277083
    67  N   -0.546171
    68  C   -0.154342
    69  C   -0.139767
    70  H    0.135218
    71  H    0.135188
    72  H    0.162134
    73  H    0.161563
    74  H    0.134919
    75  H    0.135220
    76  H    0.134813
    77  H    0.160621
    78  H    0.162018
    79  H    0.138040
    80  H    0.145943
    81  H    0.155833
    82  H    0.144122
    83  H    0.131176
    84  H    0.129020
    85  H    0.136926
    86  H    0.152700
    87  H    0.138920
    88  H    0.125456
    89  H    0.122511
    90  H    0.128301
    91  H    0.130065
    92  H    0.126635
    93  H    0.132192
    94  H    0.128871
    95  H    0.129178
    96  H    0.138962
    97  H    0.149785
    98  H    0.150083
    99  H    0.159901
   100  H    0.140085
   101  H    0.135094
   102  H    0.134360
   103  H    0.141628
   104  H    0.175919
   105  H    0.156576
   106  H    0.133694
 Sum of Mulliken charges =  -0.00000

 Dipole moment (field-independent basis, Debye):
    X=             -4.0034    Y=              0.6093    Z=              0.8560  Tot=              4.1389
 Quadrupole moment (field-independent basis, Debye-Ang):
   XX=           -371.9363   YY=           -358.3512   ZZ=           -393.4187
   XY=             -6.0977   XZ=              6.3808   YZ=              6.8899

 Normal termination of Gaussian 16 at Sat Nov  5 11:52:54 2022.
