 Gaussian 16, Revision B.01,
 Gaussian 16:  ES64L-G16RevB.01 20-Dec-2017

 -----------------------------
 #p b3lyp/6-31g(d) opt SCF=XQC
 -----------------------------

 ------------------------------
 Gaussian input prepared by ASE
 ------------------------------
 Symbolic Z-matrix:
 Charge =  0 Multiplicity = 1

 SCF Done:  E(RB3LYP) =  -3095.08195752     A.U. after   16 cycles
 SCF Done:  E(RB3LYP) =  -3095.09505244     A.U. after   13 cycles
 SCF Done:  E(RB3LYP) =  -3095.09603311     A.U. after   12 cycles
 SCF Done:  E(RB3LYP) =  -3095.09632333     A.U. after   12 cycles
 SCF Done:  E(RB3LYP) =  -3095.09645908     A.U. after   11 cycles
 SCF Done:  E(RB3LYP) =  -3095.09652040     A.U. after   11 cycles
 SCF Done:  E(RB3LYP) =  -3095.09654567     A.U. after   11 cycles
 SCF Done:  E(RB3LYP) =  -3095.09655379     A.U. after   10 cycles
 SCF Done:  E(RB3LYP) =  -3095.09655891     A.U. after   10 cycles
 SCF Done:  E(RB3LYP) =  -3095.09656443     A.U. after   11 cycles
 SCF Done:  E(RB3LYP) =  -3095.09660940     A.U. after   10 cycles
 SCF Done:  E(RB3LYP) =  -3095.09661388     A.U. after   10 cycles
 SCF Done:  E(RB3LYP) =  -3095.09661658     A.U. after   10 cycles
 SCF Done:  E(RB3LYP) =  -3095.09661929     A.U. after   10 cycles
 SCF Done:  E(RB3LYP) =  -3095.09662073     A.U. after   10 cycles
 SCF Done:  E(RB3LYP) =  -3095.09662095     A.U. after    7 cycles
 SCF Done:  E(RB3LYP) =  -3095.09662110     A.U. after    7 cycles
 SCF Done:  E(RB3LYP) =  -3095.09662112     A.U. after    7 cycles
 SCF Done:  E(RB3LYP) =  -3095.09662115     A.U. after    7 cycles
 SCF Done:  E(RB3LYP) =  -3095.09662117     A.U. after    6 cycles
 Optimization completed on the basis of negligible forces.
    -- Stationary point found.

                         Standard orientation:
 ---------------------------------------------------------------------
 Center     Atomic      Atomic             Coordinates (Angstroms)
 Number     Number       Type             X           Y           Z
 ---------------------------------------------------------------------
      1          6           0      -12.406156   -2.929559    0.741528
      2          6           0      -12.792796   -1.588871    0.810709
      3          6           0      -11.839361   -0.579343    0.705510
      4          6           0      -10.484044   -0.899934    0.529123
      5          6           0       -9.467865    0.174472    0.416917
      6          7           0       -9.888240    1.446668    0.495165
      7          6           0       -8.936813    2.386642    0.389115
      8          6           0       -9.351552    3.807907    0.469611
      9          6           0      -10.701853    4.144103    0.655510
     10          6           0      -11.089812    5.479343    0.731062
     11          6           0      -10.136207    6.494564    0.622022
     12          6           0       -8.790606    6.167569    0.436825
     13          6           0       -8.398958    4.833395    0.360943
     14          7           0       -7.632213    2.120886    0.214704
     15          6           0       -7.305243    0.821757    0.147914
     16          6           0       -5.875547    0.480906   -0.044439
     17          6           0       -4.902997    1.493670   -0.146457
     18          6           0       -3.576906    1.158809   -0.324317
     19          6           0       -3.146630   -0.185572   -0.411473
     20          6           0       -1.737413   -0.532814   -0.597635
     21          6           0       -0.736065    0.459409   -0.700005
     22          6           0        0.597228    0.145889   -0.878483
     23          6           0        0.985901   -1.202785   -0.942893
     24          7           0        2.353617   -1.545575   -1.119056
     25          6           0        2.875808   -2.346886   -2.144173
     26          6           0        2.217593   -2.961599   -3.212726
     27          6           0        2.989371   -3.693366   -4.112510
     28          6           0        4.382091   -3.809780   -3.960347
     29          6           0        5.033354   -3.184582   -2.901711
     30          6           0        4.280909   -2.442763   -1.983437
     31          6           0        4.621063   -1.667017   -0.809660
     32          6           0        5.822694   -1.404427   -0.146495
     33          6           0        5.802650   -0.604771    0.996494
     34          7           0        7.018780   -0.328203    1.695290
     35          6           0        7.415878   -0.962108    2.874588
     36          6           0        6.753133   -1.948905    3.608617
     37          6           0        7.376308   -2.422847    4.760494
     38          6           0        8.628385   -1.930450    5.171737
     39          6           0        9.284314   -0.950895    4.432741
     40          6           0        8.679952   -0.456144    3.269475
     41          6           0        9.062862    0.528960    2.283106
     42          6           0       10.189251    1.359252    2.147166
     43          6           0       10.270054    2.234041    1.077744
     44          6           0        9.227495    2.298655    0.127110
     45          6           0        9.142869    3.161791   -1.039699
     46          6           0       10.063771    4.116669   -1.500343
     47          6           0        9.788145    4.846319   -2.651122
     48          6           0        8.594716    4.638249   -3.360533
     49          6           0        7.665743    3.697276   -2.923990
     50          6           0        7.947636    2.967381   -1.767057
     51         16           0        6.913271    1.729908   -1.046066
     52          6           0        8.090905    1.468272    0.249463
     53          6           0        8.013143    0.579612    1.329486
     54          6           0        4.589011   -0.089985    1.493754
     55          6           0        3.380847   -0.349981    0.855804
     56          6           0        3.408399   -1.129031   -0.305269
     57          6           0        0.024479   -2.197338   -0.837102
     58          6           0       -1.344664   -1.896967   -0.678698
     59          6           0       -2.352048   -2.959403   -0.583142
     60          6           0       -1.998650   -4.324234   -0.674281
     61          6           0       -2.943702   -5.330136   -0.582189
     62          6           0       -4.291590   -4.998150   -0.394421
     63          6           0       -4.664307   -3.668843   -0.306259
     64          6           0       -3.720045   -2.622273   -0.397912
     65          6           0       -4.123657   -1.213718   -0.309938
     66          6           0       -5.470847   -0.846985   -0.127267
     67          7           0       -8.186736   -0.185707    0.243693
     68          6           0      -10.103233   -2.249306    0.460458
     69          6           0      -11.059172   -3.256303    0.566242
     70          1           0      -13.151311   -3.716445    0.823892
     71          1           0      -13.839339   -1.330185    0.946932
     72          1           0      -12.127878    0.464150    0.757817
     73          1           0      -11.432946    3.348193    0.738851
     74          1           0      -12.137410    5.729320    0.875256
     75          1           0      -10.440432    7.536293    0.681155
     76          1           0       -8.045738    6.954109    0.351513
     77          1           0       -7.357829    4.568120    0.217408
     78          1           0       -5.209308    2.531057   -0.082705
     79          1           0       -2.856296    1.964493   -0.396339
     80          1           0       -1.005626    1.507346   -0.654093
     81          1           0        1.341024    0.929330   -0.981514
     82          1           0        1.144687   -2.868007   -3.343338
     83          1           0        2.500892   -4.181166   -4.951602
     84          1           0        4.953665   -4.388982   -4.679686
     85          1           0        6.111474   -3.264883   -2.791462
     86          1           0        6.764195   -1.810813   -0.503059
     87          1           0        5.788297   -2.330995    3.290725
     88          1           0        6.883626   -3.190029    5.351785
     89          1           0        9.086696   -2.321501    6.075733
     90          1           0       10.253047   -0.575392    4.752221
     91          1           0       10.989318    1.314656    2.880854
     92          1           0       11.136498    2.879390    0.967111
     93          1           0       10.990158    4.284320   -0.957585
     94          1           0       10.502879    5.584177   -3.004823
     95          1           0        8.391747    5.215003   -4.258703
     96          1           0        6.742138    3.534559   -3.472299
     97          1           0        4.610293    0.521641    2.390246
     98          1           0        2.450305    0.043465    1.250440
     99          1           0        0.362997   -3.224858   -0.865993
    100          1           0       -0.963832   -4.608491   -0.823628
    101          1           0       -2.637554   -6.369775   -0.656361
    102          1           0       -5.044624   -5.777653   -0.319791
    103          1           0       -5.713069   -3.438549   -0.163786
    104          1           0       -6.243272   -1.598837   -0.044916
    105          1           0       -9.055456   -2.491255    0.324416
    106          1           0      -10.754144   -4.297855    0.512089
 ---------------------------------------------------------------------

 The electronic state is 1-A.
 Alpha  occ. eigenvalues --  -88.89497 -14.39212 -14.37815 -14.33969 -14.33932
 Alpha  occ. eigenvalues --  -14.33878 -10.27875 -10.27828 -10.27806 -10.24694
 Alpha  occ. eigenvalues --  -10.23610 -10.23197 -10.23079 -10.22721 -10.21854
 Alpha  occ. eigenvalues --  -10.21846 -10.21808 -10.21579 -10.21542 -10.21516
 Alpha  occ. eigenvalues --  -10.21217 -10.21197 -10.21148 -10.20744 -10.20671
 Alpha  occ. eigenvalues --  -10.20605 -10.20596 -10.20369 -10.20308 -10.20155
 Alpha  occ. eigenvalues --  -10.20072 -10.20044 -10.20004 -10.19985 -10.19962
 Alpha  occ. eigenvalues --  -10.19945 -10.19938 -10.19912 -10.19905 -10.19848
 Alpha  occ. eigenvalues --  -10.19780 -10.19764 -10.19681 -10.19643 -10.19621
 Alpha  occ. eigenvalues --  -10.19596 -10.19589 -10.19572 -10.19549 -10.19534
 Alpha  occ. eigenvalues --  -10.19524 -10.19475 -10.19458 -10.19435 -10.19410
 Alpha  occ. eigenvalues --  -10.19361 -10.19224 -10.18910 -10.18845 -10.18742
 Alpha  occ. eigenvalues --  -10.18591 -10.18577 -10.18486 -10.18417 -10.18358
 Alpha  occ. eigenvalues --  -10.18324 -10.18294 -10.18211 -10.17742  -7.95515
 Alpha  occ. eigenvalues --   -5.91980  -5.91618  -5.91105  -1.02253  -0.99947
 Alpha  occ. eigenvalues --   -0.98617  -0.90923  -0.90828  -0.89772  -0.88650
 Alpha  occ. eigenvalues --   -0.87349  -0.86081  -0.85825  -0.85678  -0.85598
 Alpha  occ. eigenvalues --   -0.84810  -0.83899  -0.83604  -0.80911  -0.80367
 Alpha  occ. eigenvalues --   -0.79029  -0.78671  -0.77886  -0.77613  -0.76864
 Alpha  occ. eigenvalues --   -0.76318  -0.75968  -0.75207  -0.75019  -0.74911
 Alpha  occ. eigenvalues --   -0.74720  -0.74487  -0.73876  -0.73177  -0.73057
 Alpha  occ. eigenvalues --   -0.72488  -0.71337  -0.70121  -0.69521  -0.68193
 Alpha  occ. eigenvalues --   -0.67913  -0.65684  -0.65099  -0.63816  -0.63505
 Alpha  occ. eigenvalues --   -0.63362  -0.62758  -0.61708  -0.61471  -0.60762
 Alpha  occ. eigenvalues --   -0.60576  -0.59869  -0.59613  -0.59537  -0.59024
 Alpha  occ. eigenvalues --   -0.58509  -0.58300  -0.58260  -0.56799  -0.56188
 Alpha  occ. eigenvalues --   -0.55997  -0.55375  -0.54406  -0.53759  -0.53100
 Alpha  occ. eigenvalues --   -0.52473  -0.52167  -0.51939  -0.51720  -0.50651
 Alpha  occ. eigenvalues --   -0.49872  -0.49625  -0.49308  -0.48561  -0.48264
 Alpha  occ. eigenvalues --   -0.47951  -0.47479  -0.47164  -0.46780  -0.46322
 Alpha  occ. eigenvalues --   -0.45858  -0.45806  -0.45215  -0.45106  -0.45044
 Alpha  occ. eigenvalues --   -0.44858  -0.44340  -0.44299  -0.44221  -0.43932
 Alpha  occ. eigenvalues --   -0.43851  -0.43720  -0.43542  -0.43231  -0.43092
 Alpha  occ. eigenvalues --   -0.42982  -0.42701  -0.42586  -0.42500  -0.42397
 Alpha  occ. eigenvalues --   -0.42202  -0.42171  -0.41806  -0.41720  -0.41613
 Alpha  occ. eigenvalues --   -0.41489  -0.40872  -0.40273  -0.39591  -0.39128
 Alpha  occ. eigenvalues --   -0.38598  -0.38439  -0.38319  -0.38050  -0.37483
 Alpha  occ. eigenvalues --   -0.37302  -0.37179  -0.37054  -0.36954  -0.36878
 Alpha  occ. eigenvalues --   -0.36555  -0.36062  -0.35942  -0.35565  -0.35333
 Alpha  occ. eigenvalues --   -0.35193  -0.34964  -0.34774  -0.34716  -0.34651
 Alpha  occ. eigenvalues --   -0.34640  -0.34133  -0.33671  -0.33522  -0.33434
 Alpha  occ. eigenvalues --   -0.33264  -0.33101  -0.33080  -0.32124  -0.31800
 Alpha  occ. eigenvalues --   -0.30798  -0.29867  -0.29019  -0.28780  -0.28516
 Alpha  occ. eigenvalues --   -0.27912  -0.26525  -0.26443  -0.25981  -0.25697
 Alpha  occ. eigenvalues --   -0.25634  -0.25137  -0.25076  -0.24902  -0.24672
 Alpha  occ. eigenvalues --   -0.24657  -0.23082  -0.22780  -0.22215  -0.21947
 Alpha  occ. eigenvalues --   -0.20559  -0.19768  -0.18948
 Alpha virt. eigenvalues --   -0.07714  -0.07053  -0.04772  -0.04044  -0.03707
 Alpha virt. eigenvalues --   -0.03564  -0.03307  -0.00879  -0.00616  -0.00425
 Alpha virt. eigenvalues --   -0.00181   0.00025   0.00544   0.01376   0.01518

 Mulliken charges:
               1
     1  C   -0.115580
     2  C   -0.139858
     3  C   -0.156082
     4  C    0.076977
     5  C    0.450346
     6  N   -0.540386
     7  C    0.451286
     8  C    0.076179
     9  C   -0.155975
    10  C   -0.139952
    11  C   -0.115509
    12  C   -0.139959
    13  C   -0.155945
    14  N   -0.544177
    15  C    0.455135
    16  C    0.099680
    17  C   -0.173304
    18  C   -0.212528
    19  C    0.084891
    20  C    0.077081
    21  C   -0.215126
    22  C   -0.163917
    23  C    0.290102
    24  N   -0.746603
    25  C    0.312049
    26  C   -0.177012
    27  C   -0.140647
    28  C   -0.144780
    29  C   -0.192745
    30  C    0.059492
    31  C    0.061551
    32  C   -0.211644
    33  C    0.204483
    34  N   -0.729786
    35  C    0.320173
    36  C   -0.180820
    37  C   -0.141435
    38  C   -0.145612
    39  C   -0.196222
    40  C    0.050245
    41  C    0.087062
    42  C   -0.211488
    43  C   -0.197069
    44  C    0.129750
    45  C    0.083778
    46  C   -0.164334
    47  C   -0.149364
    48  C   -0.114521
    49  C   -0.193149
    50  C   -0.130652
    51  S    0.222659
    52  C   -0.221190
    53  C    0.276991
    54  C   -0.147502
    55  C   -0.184188
    56  C    0.330152
    57  C   -0.254849
    58  C    0.072561
    59  C    0.064184
    60  C   -0.201738
    61  C   -0.130932
    62  C   -0.130891
    63  C   -0.197045
    64  C    0.068839
    65  C    0.082570
    66  C   -0.277072
    67  N   -0.546185
    68  C   -0.154347
    69  C   -0.139769
    70  H    0.135217
    71  H    0.135188
    72  H    0.162132
    73  H    0.161564
    74  H    0.134919
    75  H    0.135220
    76  H    0.134812
    77  H    0.160622
    78  H    0.162018
    79  H    0.138040
    80  H    0.145943
    81  H    0.155831
    82  H    0.144123
    83  H    0.131175
    84  H    0.129020
    85  H    0.136925
    86  H    0.152701
    87  H    0.138921
    88  H    0.125456
    89  H    0.122510
    90  H    0.128302
    91  H    0.130064
    92  H    0.126633
    93  H    0.132193
    94  H    0.128871
    95  H    0.129178
    96  H    0.138963
    97  H    0.149782
    98  H    0.150086
    99  H    0.159901
   100  H    0.140087
   101  H    0.135095
   102  H    0.134359
   103  H    0.141628
   104  H    0.175919
   105  H    0.156578
   106  H    0.133694
 Sum of Mulliken charges =  -0.00000

 Dipole moment (field-independent basis, Debye):
    X=             -4.0013    Y=             -0.6761    Z=             -0.8132  Tot=              4.1387
 Quadrupole moment (field-independent basis, Debye-Ang):
   XX=           -369.6028   YY=           -357.2152   ZZ=           -395.0426
   XY=              5.3992   XZ=             -6.6740   YZ=             -0.4305

 Normal termination of Gaussian 16 at Sat Nov  5 04:44:08 2022.
