 Gaussian 16, Revision B.01,
 Gaussian 16:  ES64L-G16RevB.01 20-Dec-2017

 -------------------------------------------------------------------
 #p b3lyp/6-31g(d) 6D 10F nosymm GFInput td=(50-50,nstate=2) SCF=XQC
 -------------------------------------------------------------------

 ------------------------------
 Gaussian input prepared by ASE
 ------------------------------
 Symbolic Z-matrix:
 Charge =  0 Multiplicity = 1

                          Input orientation:
 ---------------------------------------------------------------------
 Center     Atomic      Atomic             Coordinates (Angstroms)
 Number     Number       Type             X           Y           Z
 ---------------------------------------------------------------------
      1          6           0        9.439663    0.164628   -0.194561
      2          6           0        9.009709   -0.203554   -1.470789
      3          6           0        7.669734   -0.065986   -1.830538
      4          6           0        6.750646    0.462998   -0.915418
      5          7           0        5.394184    0.629840   -1.297658
      6          6           0        4.973761    1.191519   -2.495651
      7          6           0        3.605139    1.211957   -2.546528
      8          6           0        3.127224    0.628438   -1.328642
      9          6           0        1.816870    0.361211   -0.823043
     10          6           0        0.650088    0.704109   -1.558385
     11          6           0       -0.615042    0.455642   -1.077228
     12          6           0       -0.732967   -0.151044    0.188041
     13          6           0        0.383397   -0.532480    0.955422
     14          6           0        1.700491   -0.280066    0.455432
     15          6           0        2.888151   -0.646270    1.159238
     16          6           0        4.148399   -0.385833    0.670020
     17          6           0        4.260470    0.273428   -0.570624
     18          6           0       -0.138441   -1.153009    2.161537
     19          6           0        0.427709   -1.716105    3.318354
     20          6           0       -0.398173   -2.216818    4.319366
     21          6           0       -1.796261   -2.160655    4.197529
     22          6           0       -2.392769   -1.608684    3.068320
     23          6           0       -1.557163   -1.121576    2.060098
     24          7           0       -1.909161   -0.508836    0.856005
     25          6           0       -3.228142   -0.286467    0.395886
     26          6           0       -4.145090   -1.336500    0.267936
     27          6           0       -5.430097   -1.058311   -0.179538
     28          6           0       -5.767846    0.263836   -0.506081
     29          6           0       -7.130488    0.605875   -0.996436
     30          6           0       -7.464851    1.927543   -1.327300
     31          6           0       -8.752096    2.197999   -1.780887
     32          6           0       -9.664929    1.149052   -1.892643
     33          6           0       -9.238268   -0.132657   -1.540045
     34          7           0       -8.007822   -0.408910   -1.102302
     35          7           0       -4.886451    1.273831   -0.390223
     36          6           0       -3.661798    1.003580    0.056147
     37          6           0        7.182326    0.846190    0.361095
     38          6           0        8.520555    0.685276    0.718448
     39          1           0       10.482511    0.047667    0.085924
     40          1           0        9.715771   -0.614525   -2.187177
     41          1           0        7.325446   -0.381985   -2.810612
     42          1           0        5.705279    1.566438   -3.196970
     43          1           0        3.016041    1.611738   -3.360179
     44          1           0        0.765134    1.174055   -2.530724
     45          1           0       -1.493594    0.714596   -1.658518
     46          1           0        2.801606   -1.155522    2.109984
     47          1           0        5.028816   -0.692720    1.224890
     48          1           0        1.502315   -1.761357    3.451075
     49          1           0        0.045668   -2.652059    5.210330
     50          1           0       -2.423222   -2.548238    4.995768
     51          1           0       -3.472683   -1.551080    2.978977
     52          1           0       -3.843752   -2.351601    0.508192
     53          1           0       -6.173954   -1.837262   -0.296032
     54          1           0       -6.716777    2.704149   -1.222205
     55          1           0       -9.038871    3.212840   -2.043719
     56          1           0      -10.679515    1.314323   -2.242381
     57          1           0       -9.919458   -0.979302   -1.612637
     58          1           0       -2.979464    1.845425    0.156741
     59          1           0        6.474720    1.286333    1.055986
     60          1           0        8.847317    0.984898    1.710465
 ---------------------------------------------------------------------

 SCF Done:  E(RB3LYP) =  -1527.92303077     A.U. after   16 cycles

 Excitation energies and oscillator strengths:

 Excited state symmetry could not be determined.
 Excited State   1:      Triplet-?Sym    2.5436 eV  487.43 nm  f=0.0000  <S**2>=2.000
     126 ->129         0.30105
     126 ->134         0.12087
     127 ->128         0.15531
     127 ->129         0.56426
 This state for optimization and/or second-order correction.
 Total Energy, E(TD-HF/TD-DFT) =  -1527.82955486
 Copying the excited state density for this state as the 1-particle RhoCI density.

 Excited state symmetry could not be determined.
 Excited State   2:      Triplet-?Sym    2.7883 eV  444.65 nm  f=0.0000  <S**2>=2.000
     123 ->128        -0.27877
     124 ->128         0.13990
     125 ->128        -0.17969
     126 ->128        -0.39464
     127 ->128         0.40996

 Excited state symmetry could not be determined.
 Excited State   3:      Singlet-?Sym    3.0906 eV  401.16 nm  f=0.1440  <S**2>=0.000
     126 ->128        -0.14952
     127 ->128         0.68566

 Excited state symmetry could not be determined.
 Excited State   4:      Singlet-?Sym    3.2295 eV  383.91 nm  f=0.1249  <S**2>=0.000
     126 ->128         0.67855
     127 ->128         0.15026

 Alpha  occ. eigenvalues --  -14.38708 -14.38375 -14.33723 -14.33181 -10.24419
 Alpha  occ. eigenvalues --  -10.24122 -10.23295 -10.23080 -10.22991 -10.22520
 Alpha  occ. eigenvalues --  -10.22160 -10.22082 -10.21453 -10.21319 -10.21272
 Alpha  occ. eigenvalues --  -10.20927 -10.20153 -10.20133 -10.20123 -10.20073
 Alpha  occ. eigenvalues --  -10.20070 -10.20019 -10.19804 -10.19595 -10.19159
 Alpha  occ. eigenvalues --  -10.18828 -10.18786 -10.18784 -10.18712 -10.18617
 Alpha  occ. eigenvalues --  -10.18555 -10.18495 -10.18447 -10.18420 -10.18081
 Alpha  occ. eigenvalues --  -10.18017 -10.17867 -10.17479  -0.99247  -0.99001
 Alpha  occ. eigenvalues --   -0.95529  -0.93710  -0.86969  -0.85732  -0.84494
 Alpha  occ. eigenvalues --   -0.82099  -0.80571  -0.80019  -0.79542  -0.79202
 Alpha  occ. eigenvalues --   -0.77312  -0.75748  -0.74994  -0.74534  -0.73259
 Alpha  occ. eigenvalues --   -0.72190  -0.71113  -0.70080  -0.66113  -0.65213
 Alpha  occ. eigenvalues --   -0.63471  -0.62836  -0.62336  -0.61938  -0.60903
 Alpha  occ. eigenvalues --   -0.60491  -0.59899  -0.58554  -0.57045  -0.55956
 Alpha  occ. eigenvalues --   -0.54928  -0.53912  -0.52988  -0.51627  -0.50771
 Alpha  occ. eigenvalues --   -0.50480  -0.49109  -0.48853  -0.48413  -0.47478
 Alpha  occ. eigenvalues --   -0.46953  -0.46685  -0.45648  -0.45247  -0.45059
 Alpha  occ. eigenvalues --   -0.44112  -0.43644  -0.43310  -0.43260  -0.42540
 Alpha  occ. eigenvalues --   -0.42267  -0.42049  -0.41992  -0.41684  -0.41523
 Alpha  occ. eigenvalues --   -0.40966  -0.40330  -0.40067  -0.39004  -0.38837
 Alpha  occ. eigenvalues --   -0.38676  -0.37497  -0.37406  -0.36921  -0.36390
 Alpha  occ. eigenvalues --   -0.35926  -0.35788  -0.35634  -0.35017  -0.33733
 Alpha  occ. eigenvalues --   -0.33269  -0.31936  -0.30467  -0.29613  -0.29189
 Alpha  occ. eigenvalues --   -0.28568  -0.27887  -0.27006  -0.26909  -0.26129
 Alpha  occ. eigenvalues --   -0.25347  -0.25064  -0.24100  -0.22920  -0.21515
 Alpha  occ. eigenvalues --   -0.19028  -0.18523
 Alpha virt. eigenvalues --   -0.05579  -0.03724  -0.03120  -0.01545  -0.01289
 Alpha virt. eigenvalues --   -0.01219   0.00278   0.01590   0.01763   0.03449
 Alpha virt. eigenvalues --    0.04747   0.07876   0.09014   0.09523   0.10001

 Mulliken charges:
               1
     1  C   -0.122799
     2  C   -0.139860
     3  C   -0.155564
     4  C    0.288144
     5  N   -0.617139
     6  C    0.025308
     7  C   -0.230901
     8  C   -0.015237
     9  C    0.076279
    10  C   -0.197948
    11  C   -0.188298
    12  C    0.325610
    13  C   -0.080880
    14  C    0.103439
    15  C   -0.208579
    16  C   -0.171112
    17  C    0.318669
    18  C    0.066698
    19  C   -0.203496
    20  C   -0.141689
    21  C   -0.143591
    22  C   -0.177096
    23  C    0.301604
    24  N   -0.747360
    25  C    0.249851
    26  C   -0.115641
    27  C   -0.168765
    28  C    0.266569
    29  C    0.261693
    30  C   -0.151790
    31  C   -0.102713
    32  C   -0.142731
    33  C    0.043639
    34  N   -0.493966
    35  N   -0.502030
    36  C    0.024233
    37  C   -0.158365
    38  C   -0.142547
    39  H    0.134854
    40  H    0.137888
    41  H    0.145935
    42  H    0.156295
    43  H    0.132838
    44  H    0.129179
    45  H    0.142782
    46  H    0.132946
    47  H    0.139086
    48  H    0.141643
    49  H    0.122994
    50  H    0.126701
    51  H    0.138109
    52  H    0.163894
    53  H    0.173462
    54  H    0.168879
    55  H    0.145042
    56  H    0.139895
    57  H    0.140864
    58  H    0.161716
    59  H    0.154757
    60  H    0.138601
 Sum of Mulliken charges =  -0.00000

 Dipole moment (field-independent basis, Debye):
    X=              1.0123    Y=              0.5227    Z=             -0.9611  Tot=              1.4906
 Quadrupole moment (field-independent basis, Debye-Ang):
   XX=           -155.2952   YY=           -213.6403   ZZ=           -203.4806
   XY=             -4.7597   XZ=              5.0256   YZ=             -7.1987

 Normal termination of Gaussian 16 at Sat Nov  5 10:37:41 2022.
