 Gaussian 16, Revision B.01,
 Gaussian 16:  ES64L-G16RevB.01 20-Dec-2017

 -----------------------------
 #p b3lyp/6-31g(d) opt SCF=XQC
 -----------------------------

 ------------------------------
 Gaussian input prepared by ASE
 ------------------------------
 Symbolic Z-matrix:
 Charge =  0 Multiplicity = 1

 SCF Done:  E(RB3LYP) =  -1527.91558081     A.U. after   16 cycles
 SCF Done:  E(RB3LYP) =  -1527.92268045     A.U. after   12 cycles
 SCF Done:  E(RB3LYP) =  -1527.92296140     A.U. after   11 cycles
 SCF Done:  E(RB3LYP) =  -1527.92301657     A.U. after   11 cycles
 SCF Done:  E(RB3LYP) =  -1527.92302853     A.U. after   11 cycles
 SCF Done:  E(RB3LYP) =  -1527.92303363     A.U. after    9 cycles
 SCF Done:  E(RB3LYP) =  -1527.92303480     A.U. after    8 cycles
 SCF Done:  E(RB3LYP) =  -1527.92303499     A.U. after    7 cycles
 SCF Done:  E(RB3LYP) =  -1527.92303507     A.U. after    7 cycles
 SCF Done:  E(RB3LYP) =  -1527.92303511     A.U. after    7 cycles
 Optimization completed.
    -- Stationary point found.

                         Standard orientation:
 ---------------------------------------------------------------------
 Center     Atomic      Atomic             Coordinates (Angstroms)
 Number     Number       Type             X           Y           Z
 ---------------------------------------------------------------------
      1          6           0       -9.572875   -0.280829    0.091736
      2          6           0       -9.141310   -1.219995   -0.846822
      3          6           0       -7.799495   -1.594292   -0.904351
      4          6           0       -6.880036   -1.041744   -0.003641
      5          7           0       -5.521495   -1.449755   -0.046394
      6          6           0       -5.094248   -2.767907   -0.132191
      7          6           0       -3.725385   -2.814933   -0.143839
      8          6           0       -3.254501   -1.463971   -0.070946
      9          6           0       -1.947235   -0.885085   -0.066707
     10          6           0       -0.776295   -1.688367   -0.124378
     11          6           0        0.485929   -1.140179   -0.115291
     12          6           0        0.596555    0.261519   -0.038564
     13          6           0       -0.524288    1.111702    0.000559
     14          6           0       -1.838396    0.544826   -0.013939
     15          6           0       -3.030257    1.331568    0.008202
     16          6           0       -4.287506    0.770580    0.005710
     17          6           0       -4.392044   -0.634803   -0.013102
     18          6           0       -0.009664    2.470396    0.035184
     19          6           0       -0.582521    3.752348    0.100461
     20          6           0        0.237449    4.875239    0.140269
     21          6           0        1.636196    4.748978    0.125674
     22          6           0        2.239265    3.496745    0.063820
     23          6           0        1.409512    2.374029    0.008652
     24          7           0        1.768653    1.025585   -0.035069
     25          6           0        3.090269    0.522384   -0.066493
     26          6           0        4.001427    0.920537   -1.051887
     27          6           0        5.289358    0.401371   -1.028170
     28          6           0        5.635809   -0.519340   -0.027649
     29          6           0        7.001876   -1.106402    0.031109
     30          6           0        7.344950   -2.030688    1.029143
     31          6           0        8.635093   -2.551479    1.043132
     32          6           0        9.542094   -2.139677    0.066498
     33          6           0        9.106893   -1.216069   -0.885706
     34          7           0        7.873561   -0.706071   -0.912612
     35          7           0        4.760006   -0.908630    0.916697
     36          6           0        3.532476   -0.393926    0.899183
     37          6           0       -7.313239   -0.109561    0.948219
     38          6           0       -8.653438    0.273880    0.984123
     39          1           0      -10.617215    0.015679    0.128077
     40          1           0       -9.847645   -1.653986   -1.549231
     41          1           0       -7.454165   -2.299440   -1.654316
     42          1           0       -5.821480   -3.567048   -0.138376
     43          1           0       -3.131552   -3.717358   -0.187195
     44          1           0       -0.885710   -2.767470   -0.179993
     45          1           0        1.367698   -1.769585   -0.171331
     46          1           0       -2.949510    2.410506    0.019076
     47          1           0       -5.171343    1.399885    0.007025
     48          1           0       -1.657762    3.884649    0.128659
     49          1           0       -0.211567    5.863285    0.189214
     50          1           0        2.258513    5.638605    0.167793
     51          1           0        3.319757    3.396551    0.067307
     52          1           0        3.693439    1.618037   -1.824928
     53          1           0        6.028983    0.678165   -1.769790
     54          1           0        6.601130   -2.316369    1.763237
     55          1           0        8.928584   -3.268723    1.805133
     56          1           0       10.558662   -2.520291    0.039279
     57          1           0        9.783325   -0.868553   -1.665302
     58          1           0        2.854789   -0.714594    1.688053
     59          1           0       -6.605126    0.291555    1.665846
     60          1           0       -8.981374    0.997474    1.725417
 ---------------------------------------------------------------------

 The electronic state is 1-A.
 Alpha  occ. eigenvalues --  -14.38708 -14.38375 -14.33723 -14.33181 -10.24419
 Alpha  occ. eigenvalues --  -10.24123 -10.23295 -10.23080 -10.22991 -10.22520
 Alpha  occ. eigenvalues --  -10.22160 -10.22082 -10.21453 -10.21319 -10.21272
 Alpha  occ. eigenvalues --  -10.20927 -10.20153 -10.20133 -10.20123 -10.20073
 Alpha  occ. eigenvalues --  -10.20070 -10.20019 -10.19804 -10.19595 -10.19159
 Alpha  occ. eigenvalues --  -10.18828 -10.18786 -10.18784 -10.18712 -10.18617
 Alpha  occ. eigenvalues --  -10.18555 -10.18495 -10.18447 -10.18420 -10.18081
 Alpha  occ. eigenvalues --  -10.18017 -10.17867 -10.17479  -0.99247  -0.99001
 Alpha  occ. eigenvalues --   -0.95529  -0.93710  -0.86969  -0.85732  -0.84494
 Alpha  occ. eigenvalues --   -0.82099  -0.80571  -0.80019  -0.79542  -0.79202
 Alpha  occ. eigenvalues --   -0.77312  -0.75748  -0.74994  -0.74534  -0.73259
 Alpha  occ. eigenvalues --   -0.72190  -0.71113  -0.70080  -0.66113  -0.65213
 Alpha  occ. eigenvalues --   -0.63471  -0.62836  -0.62336  -0.61938  -0.60903
 Alpha  occ. eigenvalues --   -0.60491  -0.59899  -0.58554  -0.57045  -0.55956
 Alpha  occ. eigenvalues --   -0.54928  -0.53912  -0.52988  -0.51627  -0.50771
 Alpha  occ. eigenvalues --   -0.50480  -0.49109  -0.48853  -0.48413  -0.47478
 Alpha  occ. eigenvalues --   -0.46954  -0.46685  -0.45648  -0.45247  -0.45059
 Alpha  occ. eigenvalues --   -0.44112  -0.43644  -0.43310  -0.43260  -0.42540
 Alpha  occ. eigenvalues --   -0.42267  -0.42049  -0.41992  -0.41684  -0.41523
 Alpha  occ. eigenvalues --   -0.40966  -0.40330  -0.40067  -0.39004  -0.38837
 Alpha  occ. eigenvalues --   -0.38676  -0.37497  -0.37406  -0.36921  -0.36390
 Alpha  occ. eigenvalues --   -0.35926  -0.35788  -0.35634  -0.35017  -0.33733
 Alpha  occ. eigenvalues --   -0.33269  -0.31936  -0.30467  -0.29613  -0.29189
 Alpha  occ. eigenvalues --   -0.28568  -0.27887  -0.27006  -0.26909  -0.26129
 Alpha  occ. eigenvalues --   -0.25347  -0.25064  -0.24101  -0.22920  -0.21515
 Alpha  occ. eigenvalues --   -0.19028  -0.18523
 Alpha virt. eigenvalues --   -0.05579  -0.03724  -0.03120  -0.01545  -0.01289
 Alpha virt. eigenvalues --   -0.01219   0.00278   0.01590   0.01763   0.03449
 Alpha virt. eigenvalues --    0.04747   0.07876   0.09014   0.09523   0.10001

 Mulliken charges:
               1
     1  C   -0.122789
     2  C   -0.139863
     3  C   -0.155573
     4  C    0.288148
     5  N   -0.617119
     6  C    0.025305
     7  C   -0.230907
     8  C   -0.015225
     9  C    0.076273
    10  C   -0.197942
    11  C   -0.188281
    12  C    0.325580
    13  C   -0.080864
    14  C    0.103442
    15  C   -0.208576
    16  C   -0.171102
    17  C    0.318649
    18  C    0.066684
    19  C   -0.203492
    20  C   -0.141686
    21  C   -0.143593
    22  C   -0.177101
    23  C    0.301606
    24  N   -0.747354
    25  C    0.249833
    26  C   -0.115618
    27  C   -0.168767
    28  C    0.266577
    29  C    0.261689
    30  C   -0.151781
    31  C   -0.102703
    32  C   -0.142735
    33  C    0.043635
    34  N   -0.493973
    35  N   -0.502050
    36  C    0.024246
    37  C   -0.158381
    38  C   -0.142548
    39  H    0.134853
    40  H    0.137888
    41  H    0.145934
    42  H    0.156296
    43  H    0.132839
    44  H    0.129179
    45  H    0.142779
    46  H    0.132946
    47  H    0.139085
    48  H    0.141643
    49  H    0.122993
    50  H    0.126701
    51  H    0.138110
    52  H    0.163893
    53  H    0.173461
    54  H    0.168878
    55  H    0.145040
    56  H    0.139896
    57  H    0.140865
    58  H    0.161718
    59  H    0.154757
    60  H    0.138602
 Sum of Mulliken charges =  -0.00000

 Dipole moment (field-independent basis, Debye):
    X=             -1.0064    Y=             -1.0995    Z=             -0.0007  Tot=              1.4905
 Quadrupole moment (field-independent basis, Debye-Ang):
   XX=           -154.9401   YY=           -199.8751   ZZ=           -217.3730
   XY=             -6.3251   XZ=              1.5146   YZ=              0.4490

 1\1\GINC-NODE83\FOpt\RB3LYP\6-31G(d)\C34H22N4\WYKGROUP\05-Nov-2022\0\\
 #p b3lyp/6-31g(d) opt SCF=XQC\\Gaussian input prepared by ASE\\0,1\C,9
 .4396634874,0.1646277763,-0.1945613033\C,9.0097085765,-0.2035537436,-1
 .4707885887\C,7.6697339197,-0.0659860709,-1.8305383291\C,6.7506462348,
 0.4629976546,-0.915417802\N,5.3941841202,0.6298399584,-1.2976583323\C,
 4.9737613819,1.1915189863,-2.495651304\C,3.6051392916,1.2119570676,-2.
 5465281317\C,3.1272244937,0.6284377977,-1.3286420895\C,1.816869848,0.3
 612113115,-0.8230427554\C,0.6500877958,0.7041094601,-1.5583854058\C,-0

 Normal termination of Gaussian 16 at Sat Nov  5 00:48:54 2022.
